Title
82320
    1SAPS     N    1   1.395   5.589  10.876  0.2752 -0.5380  0.4488
    1SAPS   HN1    2   1.341   5.501  10.878 -0.9922  0.2363  0.9380
    1SAPS   HN2    3   1.381   5.635  10.784  1.0000 -0.5221  0.3392
    1SAPS   HN3    4   1.496   5.566  10.864  0.1974 -0.3399 -0.6326
    1SAPS   C12    5   1.376   5.681  10.992 -0.4728  0.3547  0.0110
    1SAPS  H12A    6   1.391   5.628  11.085 -0.1503  1.4823  0.6021
    1SAPS   C13    7   1.488   5.783  10.999 -0.0468  0.5157 -0.2625
    1SAPS  O13A    8   1.586   5.776  10.923  0.0319 -0.1194  0.4067
    1SAPS  O13B    9   1.487   5.868  11.092  0.1882  0.7035  0.6186
    1SAPS   C11   10   1.238   5.739  11.000 -0.6844  0.0421 -0.0255
    1SAPS  H11A   11   1.206   5.788  10.906 -0.2069  1.8880  0.7547
    1SAPS  H11B   12   1.242   5.813  11.082 -1.6415 -0.5312  0.5448
    1SAPS     P   13   0.985   5.671  11.038 -0.3464  0.0617  0.6666
    1SAPS   O13   14   0.909   5.561  11.101 -0.2390 -0.0974 -0.0899
    1SAPS   O14   15   0.954   5.809  11.087 -0.3606  0.1009  0.1089
    1SAPS   O12   16   1.143   5.641  11.038 -0.0873  0.0842  0.4639
    1SAPS   O11   17   0.953   5.654  10.887 -0.2228 -0.3650 -0.1946
    1SAPS    C1   18   1.016   5.560  10.803 -0.5692 -0.9065  0.0116
    1SAPS    HA   19   1.127   5.570  10.810 -0.7177 -0.4801  2.3641
    1SAPS    HB   20   0.971   5.459  10.812  0.6328 -1.4685 -0.2197
    1SAPS    C2   21   0.984   5.610  10.654 -0.2256 -0.8820 -0.6017
    1SAPS    HS   22   1.003   5.718  10.641  1.6041 -0.7655  2.5884
    1SAPS   O21   23   0.846   5.575  10.621 -0.0983  0.1306 -0.6648
    1SAPS   C21   24   0.778   5.672  10.556 -0.7548 -1.1319 -0.4781
    1SAPS   O22   25   0.820   5.785  10.536 -0.5211  0.0071 -0.3247
    1SAPS   C22   26   0.637   5.620  10.518 -0.0384  0.5604  0.0782
    1SAPS   H2R   27   0.578   5.593  10.608  0.0530  0.2497  0.0460
    1SAPS   H2S   28   0.590   5.710  10.472  0.4419  0.3236 -0.9029
    1SAPS    C3   29   1.073   5.527  10.550  0.5502 -0.4666 -0.1943
    1SAPS    HX   30   1.076   5.418  10.571 -1.2004 -0.2202  1.4585
    1SAPS    HY   31   1.176   5.567  10.560 -0.0440  0.7364  1.2713
    1SAPS   O31   32   1.031   5.555  10.413  0.1536 -0.3712  0.7252
    1SAPS   C31   33   1.106   5.518  10.321 -0.6298  0.0493  0.5554
    1SAPS   O32   34   1.194   5.435  10.327  0.0199  0.1167 -0.2628
    1SAPS   C32   35   1.058   5.580  10.187  0.3695 -0.2902 -1.0391
    1SAPS   H2X   36   1.105   5.680  10.179 -1.4316  0.7077  0.3801
    1SAPS   H2Y   37   0.948   5.600  10.185  0.4460  1.0521  3.3708
    1SAPS   C23   38   0.641   5.488  10.427 -0.1337 -0.8876  0.0290
    1SAPS   H3R   39   0.539   5.445  10.419 -1.1665  1.3661  0.6189
    1SAPS   H3S   40   0.709   5.423  10.486  2.7169  2.0499  0.1367
    1SAPS   C24   41   0.690   5.526  10.286 -0.0195  0.5034  0.2848
    1SAPS   H4R   42   0.762   5.611  10.285  0.3838  0.1753  0.8527
    1SAPS   H4S   43   0.606   5.557  10.220  0.5485 -0.2731 -0.8204
    1SAPS   C25   44   0.750   5.403  10.220 -0.8031 -0.2739 -0.1184
    1SAPS   H5R   45   0.820   5.346  10.282  0.8292  1.9845  0.1937
    1SAPS   C26   46   0.704   5.358  10.097 -0.6547  0.4801  0.1334
    1SAPS   H6R   47   0.754   5.278  10.042 -2.2929 -0.4716  0.0134
    1SAPS   C27   48   0.602   5.419  10.016  1.3893  0.0523  0.5583
    1SAPS   H7R   49   0.504   5.436  10.067 -0.0598  0.6509 -2.2726
    1SAPS   H7S   50   0.576   5.346   9.936  0.6160  0.5733  0.3202
    1SAPS   C28   51   0.626   5.561   9.956 -0.3635 -0.2111 -0.5061
    1SAPS   H8R   52   0.632   5.642  10.030  2.8373 -0.9680  0.1430
    1SAPS   C29   53   0.627   5.587   9.824  0.8168  0.7192  0.0175
    1SAPS   H9R   54   0.645   5.689   9.787  0.7957  0.3892 -0.9075
    1SAPS  C210   55   0.611   5.485   9.709  0.6712 -0.0188 -0.1192
    1SAPS  H10R   56   0.516   5.431   9.727  1.2159 -1.3180 -1.0688
    1SAPS  H10S   57   0.692   5.409   9.708  1.3622  0.6994 -2.3639
    1SAPS  C211   58   0.625   5.554   9.574 -0.2519  0.1920 -0.0480
    1SAPS  H11R   59   0.676   5.651   9.571 -0.0799  0.1279  0.6731
    1SAPS  C212   60   0.581   5.507   9.456 -0.1951  0.6652  0.3843
    1SAPS  H12R   61   0.603   5.567   9.367 -1.1077  1.1120  0.4548
    1SAPS  C213   62   0.512   5.370   9.447 -0.3356 -0.5865 -0.7722
    1SAPS  H13R   63   0.408   5.395   9.417 -0.4661  1.6656  1.3509
    1SAPS  H13S   64   0.492   5.328   9.548  1.1093  0.7215  0.0899
    1SAPS  C214   65   0.568   5.282   9.341 -0.8037  0.0141  0.2343
    1SAPS  H14R   66   0.663   5.238   9.376  0.3391  1.1975 -1.3202
    1SAPS  C215   67   0.537   5.271   9.213  0.1072  0.0777 -0.8862
    1SAPS  H15R   68   0.589   5.198   9.149 -0.5543 -0.2597 -1.0415
    1SAPS  C216   69   0.433   5.360   9.148 -0.3456 -0.8025  0.2557
    1SAPS  H16R   70   0.417   5.449   9.213 -1.4648 -1.3729  0.7951
    1SAPS  H16S   71   0.335   5.307   9.147 -0.4493 -0.6958  2.2043
    1SAPS  C217   72   0.452   5.402   9.004  0.6538 -0.1140 -0.2911
    1SAPS  H17R   73   0.548   5.458   8.994  2.0086 -1.8897  2.1085
    1SAPS  H17S   74   0.369   5.471   8.981  2.0163  1.2799 -1.1735
    1SAPS  C218   75   0.449   5.285   8.907 -0.7346  0.2080  0.0953
    1SAPS  H18R   76   0.347   5.244   8.906 -0.3041 -0.9826 -3.0976
    1SAPS  H18S   77   0.515   5.201   8.938 -2.5002 -1.9157 -1.7593
    1SAPS  C219   78   0.491   5.302   8.762  0.1631  0.1395 -0.6611
    1SAPS  H19R   79   0.512   5.209   8.705  0.9458 -1.7961  2.6341
    1SAPS  H19S   80   0.588   5.354   8.757  0.9114 -1.0279  1.0492
    1SAPS  C220   81   0.391   5.370   8.673 -0.2242  0.3711 -0.3769
    1SAPS  H20R   82   0.305   5.307   8.642  1.2565 -0.9971 -1.7771
    1SAPS  H20S   83   0.437   5.406   8.578 -2.7277  2.7261 -0.7555
    1SAPS  H20T   84   0.348   5.466   8.708  2.1652  0.7743  1.6216
    1SAPS   C33   85   1.097   5.507  10.061 -0.2084  0.2978 -0.2467
    1SAPS   H3X   86   1.042   5.410  10.061 -0.5122  0.4673  0.2055
    1SAPS   H3Y   87   1.206   5.489  10.051  0.4377  1.4618  3.6621
    1SAPS   C34   88   1.047   5.600   9.944 -0.9164  0.8542 -0.2616
    1SAPS   H4X   89   1.113   5.689   9.941 -0.5723  0.6416  0.8241
    1SAPS   H4Y   90   0.941   5.622   9.971 -1.0476 -1.0190  0.8893
    1SAPS   C35   91   1.039   5.523   9.813  0.5667 -0.5074  0.6403
    1SAPS   H5X   92   0.974   5.434   9.824 -0.9827  0.5822  0.4913
    1SAPS   H5Y   93   1.143   5.486   9.798  0.4269 -0.6732  0.0533
    1SAPS   C36   94   0.996   5.615   9.700 -0.6557 -0.3019  0.6298
    1SAPS   H6X   95   1.071   5.697   9.690 -1.6462  0.4165 -1.0663
    1SAPS   H6Y   96   0.898   5.666   9.709 -1.3614 -1.2784 -1.2815
    1SAPS   C37   97   1.010   5.534   9.568 -0.5969 -0.7836  0.2421
    1SAPS   H7X   98   0.923   5.467   9.552 -0.0968 -1.8321  1.8230
    1SAPS   H7Y   99   1.102   5.473   9.559 -0.0015  0.1545 -0.2275
    1SAPS   C38  100   0.988   5.621   9.439 -0.2963  0.2653 -0.3321
    1SAPS   H8X  101   1.064   5.701   9.429  0.5721 -0.6524 -1.3142
    1SAPS   H8Y  102   0.894   5.678   9.452 -0.8015  0.1840 -3.3171
    1SAPS   C39  103   0.982   5.534   9.314  0.6445  0.0466 -0.3973
    1SAPS   H9X  104   0.931   5.438   9.338 -2.0053  1.4682 -0.1596
    1SAPS   H9Y  105   1.085   5.517   9.275  1.1727  2.5205 -0.1990
    1SAPS  C310  106   0.914   5.604   9.192  0.1005 -0.2800 -0.5746
    1SAPS  H10X  107   0.950   5.709   9.197  1.5033 -0.6866 -1.7829
    1SAPS  H10Y  108   0.805   5.600   9.215  0.5295 -1.7110  1.3734
    1SAPS  C311  109   0.948   5.548   9.057 -0.3591  0.4855  0.4914
    1SAPS  H11X  110   1.057   5.564   9.048 -0.2689  0.0010  0.6816
    1SAPS  H11Y  111   0.894   5.602   8.976 -0.8027  1.5522  1.4806
    1SAPS  C312  112   0.918   5.401   9.057  0.3051  0.0152  0.2815
    1SAPS  H12X  113   0.832   5.376   9.123  0.4614 -2.3329 -0.3822
    1SAPS  H12Y  114   1.010   5.347   9.089  0.2556 -0.2201  0.0267
    1SAPS  C313  115   0.882   5.344   8.913  0.0067 -0.4016 -0.5081
    1SAPS  H13X  116   0.790   5.398   8.881 -0.4876  1.0271  3.0487
    1SAPS  H13Y  117   0.843   5.241   8.927 -1.1796 -0.1880 -2.0692
    1SAPS  C314  118   1.000   5.352   8.819 -0.0691  0.4353  0.4339
    1SAPS  H14X  119   1.075   5.282   8.861 -0.4789 -0.4947 -0.3815
    1SAPS  H14Y  120   1.059   5.445   8.808  2.3595 -1.1687 -0.3834
    1SAPS  C315  121   0.966   5.310   8.677 -0.2158 -0.2295  0.2725
    1SAPS  H15X  122   1.058   5.272   8.628 -1.7084 -3.0550 -0.3980
    1SAPS  H15Y  123   0.917   5.389   8.615 -0.9197 -0.7747  0.1394
    1SAPS  C316  124   0.863   5.200   8.673 -0.9783 -0.3703  0.3805
    1SAPS  H16X  125   0.770   5.238   8.720 -1.1471 -1.3253  0.8325
    1SAPS  H16Y  126   0.893   5.117   8.741 -0.6556 -0.3785  0.2294
    1SAPS  C317  127   0.842   5.142   8.534 -1.1522  0.3022 -0.4113
    1SAPS  H17X  128   0.932   5.087   8.498 -1.7994 -0.1891 -1.3064
    1SAPS  H17Y  129   0.822   5.231   8.472  0.7475  2.0794  1.4621
    1SAPS  C318  130   0.719   5.058   8.524  0.0515 -0.4043  0.5102
    1SAPS  H18X  131   0.630   5.124   8.535 -0.5034 -1.4825  2.7849
    1SAPS  H18Y  132   0.710   4.980   8.602  3.2244 -1.3159  0.0186
    1SAPS  H18Z  133   0.707   5.016   8.421  1.4227  0.5912 -0.0666
    2SAPS     N  134   5.915   5.261  10.568  0.2509 -0.3128 -0.3212
    2SAPS   HN1  135   5.914   5.158  10.563 -2.0804 -0.3428  0.2063
    2SAPS   HN2  136   5.912   5.299  10.471 -0.7632  0.6552  0.0657
    2SAPS   HN3  137   6.001   5.281  10.623  1.4782  1.0702 -2.6603
    2SAPS   C12  138   5.795   5.312  10.631 -0.0979  0.2481 -0.5806
    2SAPS  H12A  139   5.713   5.310  10.561 -1.3609 -1.4286  0.9027
    2SAPS   C13  140   5.752   5.240  10.764  0.3617  0.3515  0.8301
    2SAPS  O13A  141   5.816   5.137  10.798 -0.4139 -0.3187 -0.1521
    2SAPS  O13B  142   5.641   5.270  10.814  0.7468  0.1263 -0.0356
    2SAPS   C11  143   5.812   5.458  10.665 -0.0329  0.0885 -0.8081
    2SAPS  H11A  144   5.896   5.449  10.738  1.3311 -1.6608 -2.5232
    2SAPS  H11B  145   5.727   5.509  10.715  0.4804 -2.5681  3.0010
    2SAPS     P  146   5.901   5.680  10.562  0.5290 -0.0114 -0.3260
    2SAPS   O13  147   5.900   5.718  10.705  0.0189  0.4877  0.8307
    2SAPS   O14  148   6.020   5.707  10.483 -1.2719 -0.2747  0.1051
    2SAPS   O12  149   5.859   5.530  10.553  0.1022  1.0482  0.3650
    2SAPS   O11  150   5.786   5.764  10.497  0.7679 -0.2434  0.0484
    2SAPS    C1  151   5.700   5.706  10.396  0.0575 -0.7407 -0.0515
    2SAPS    HA  152   5.660   5.606  10.423  1.0740 -0.7694  1.4137
    2SAPS    HB  153   5.614   5.775  10.388  2.2475  2.2044  0.6326
    2SAPS    C2  154   5.763   5.688  10.252  0.0371 -0.5536  0.1178
    2SAPS    HS  155   5.831   5.600  10.258  2.2483  0.9807 -1.6775
    2SAPS   O21  156   5.842   5.804  10.216 -0.3388  0.0216 -0.4782
    2SAPS   C21  157   5.942   5.781  10.136 -0.5998  0.2501 -0.2273
    2SAPS   O22  158   5.990   5.675  10.105 -0.0875  0.6970 -0.5388
    2SAPS   C22  159   5.980   5.911  10.067 -0.2454  0.1525 -0.1325
    2SAPS   H2R  160   5.892   5.960  10.020 -1.8700 -0.3898  2.1910
    2SAPS   H2S  161   6.026   5.976  10.145 -2.9103 -0.2608  1.8705
    2SAPS    C3  162   5.659   5.655  10.140  1.0812 -0.3478  0.0351
    2SAPS    HX  163   5.592   5.743  10.133  1.9500  0.5208  2.0065
    2SAPS    HY  164   5.595   5.571  10.173  0.3400  0.1886 -0.0383
    2SAPS   O31  165   5.720   5.645  10.010 -0.5821 -0.0583  0.2796
    2SAPS   C31  166   5.761   5.516   9.979 -0.8595 -0.7585 -0.0021
    2SAPS   O32  167   5.748   5.420  10.052 -0.2121  0.4421  0.4354
    2SAPS   C32  168   5.828   5.517   9.846  1.0553  0.7798 -0.4230
    2SAPS   H2X  169   5.938   5.525   9.859  0.7843  1.7320  1.3617
    2SAPS   H2Y  170   5.796   5.606   9.789  0.8973  1.6573  1.0043
    2SAPS   C23  171   6.088   5.888   9.958  0.8071 -0.1901 -0.2297
    2SAPS   H3R  172   6.051   5.811   9.886 -1.8167 -0.3371  1.2270
    2SAPS   H3S  173   6.176   5.847  10.013 -0.4942 -0.9740  1.2926
    2SAPS   C24  174   6.127   6.013   9.877 -0.0666  0.8015  0.6972
    2SAPS   H4R  175   6.167   6.080   9.956  0.5004 -0.1496  1.2214
    2SAPS   H4S  176   6.041   6.065   9.829  0.6961  0.8717 -0.5993
    2SAPS   C25  177   6.227   6.002   9.765 -0.9363 -0.2725  0.6259
    2SAPS   H5R  178   6.319   5.951   9.797 -1.2638 -0.7943  0.7571
    2SAPS   C26  179   6.228   6.055   9.638  0.0884 -0.5952 -0.2501
    2SAPS   H6R  180   6.306   6.023   9.566  0.0431 -1.1345 -0.0657
    2SAPS   C27  181   6.118   6.132   9.569  0.2555  0.6851 -0.3066
    2SAPS   H7R  182   6.139   6.241   9.577 -1.4437  0.9537  0.7619
    2SAPS   H7S  183   6.016   6.117   9.610  0.0156 -0.6007 -1.3349
    2SAPS   C28  184   6.110   6.091   9.422 -0.7820 -0.0069  0.4950
    2SAPS   H8R  185   6.061   5.994   9.406 -0.2635 -0.3297  0.8343
    2SAPS   C29  186   6.171   6.156   9.317  0.1924 -0.1496  0.5470
    2SAPS   H9R  187   6.147   6.119   9.216 -2.6462  2.3678  0.2072
    2SAPS  C210  188   6.253   6.288   9.317 -0.1437  0.0726 -0.1145
    2SAPS  H10R  189   6.361   6.273   9.301  0.4126  1.9217  1.6437
    2SAPS  H10S  190   6.246   6.327   9.421 -2.2433  2.3720 -1.0729
    2SAPS  C211  191   6.197   6.395   9.233 -0.9197 -1.1066 -0.3317
    2SAPS  H11R  192   6.114   6.452   9.276  1.1534  1.4319  0.4420
    2SAPS  C212  193   6.234   6.422   9.108 -0.2295  0.1037  0.5791
    2SAPS  H12R  194   6.204   6.519   9.067  3.2880  1.4114  0.9050
    2SAPS  C213  195   6.341   6.338   9.041 -0.5946 -0.4252 -0.4038
    2SAPS  H13R  196   6.362   6.242   9.092 -2.7078 -0.2096  0.8984
    2SAPS  H13S  197   6.438   6.393   9.044  0.1725 -1.8094  0.7817
    2SAPS  C214  198   6.315   6.328   8.894 -0.1011 -0.1426 -0.3609
    2SAPS  H14R  199   6.241   6.249   8.874 -1.4321  1.3792 -1.6259
    2SAPS  C215  200   6.372   6.391   8.789 -1.0469  0.6711 -0.9945
    2SAPS  H15R  201   6.333   6.372   8.688 -1.7115 -0.3766 -0.5448
    2SAPS  C216  202   6.478   6.496   8.798  0.3974  0.6844  0.9563
    2SAPS  H16R  203   6.576   6.448   8.820 -0.9682 -2.2385  0.8466
    2SAPS  H16S  204   6.457   6.553   8.891 -2.6559  1.7895 -0.3372
    2SAPS  C217  205   6.480   6.592   8.679 -0.0255 -0.1555  0.4979
    2SAPS  H17R  206   6.538   6.681   8.710  0.2379 -0.4705  0.9074
    2SAPS  H17S  207   6.380   6.640   8.667  1.3519  2.6307 -0.2454
    2SAPS  C218  208   6.514   6.533   8.549  0.0068  0.0983 -0.3653
    2SAPS  H18R  209   6.459   6.439   8.527 -1.7158  1.1536 -0.6622
    2SAPS  H18S  210   6.622   6.512   8.531  0.4282  2.0991 -0.3127
    2SAPS  C219  211   6.476   6.630   8.442 -0.1098  0.2766  0.1754
    2SAPS  H19R  212   6.520   6.728   8.469  2.3920 -1.0360  1.0743
    2SAPS  H19S  213   6.366   6.649   8.440  0.0932  1.4869  0.3710
    2SAPS  C220  214   6.527   6.586   8.302  0.0099 -0.1462 -0.4758
    2SAPS  H20R  215   6.524   6.670   8.230 -1.2143 -1.8287 -2.4521
    2SAPS  H20S  216   6.455   6.516   8.254 -1.3766 -0.4953  2.0080
    2SAPS  H20T  217   6.624   6.532   8.294 -0.6205 -1.4279  0.3402
    2SAPS   C33  218   5.792   5.390   9.766 -0.1012 -0.1385 -0.3051
    2SAPS   H3X  219   5.686   5.357   9.760  0.2489 -1.1339 -1.0957
    2SAPS   H3Y  220   5.841   5.299   9.809 -0.0548  0.2471  0.4677
    2SAPS   C34  221   5.842   5.384   9.618  0.0862 -0.7133 -0.6543
    2SAPS   H4X  222   5.953   5.374   9.623  0.3874  1.5803 -2.0708
    2SAPS   H4Y  223   5.811   5.474   9.560  3.1365  1.6225  1.2053
    2SAPS   C35  224   5.801   5.253   9.546  0.1200 -0.0665  0.1097
    2SAPS   H5X  225   5.690   5.248   9.542 -0.0081  2.1288  0.4324
    2SAPS   H5Y  226   5.845   5.163   9.594  0.7468  0.4950  0.5951
    2SAPS   C36  227   5.857   5.268   9.405 -0.6586  0.1333  0.1272
    2SAPS   H6X  228   5.949   5.207   9.413 -1.7071 -1.2918  1.7124
    2SAPS   H6Y  229   5.894   5.369   9.379  2.1998 -0.8865  0.0153
    2SAPS   C37  230   5.768   5.200   9.292 -0.1746 -0.3178  0.5719
    2SAPS   H7X  231   5.688   5.271   9.265  0.3384  0.1028  0.1413
    2SAPS   H7Y  232   5.727   5.102   9.324  0.5821 -0.6728  0.4839
    2SAPS   C38  233   5.855   5.179   9.167 -0.3566 -0.2776  0.2746
    2SAPS   H8X  234   5.933   5.101   9.178 -0.1200 -0.2987 -1.4041
    2SAPS   H8Y  235   5.914   5.269   9.139 -1.2686  0.4585  0.6767
    2SAPS   C39  236   5.762   5.138   9.052 -0.1375 -0.1644  0.5083
    2SAPS   H9X  237   5.705   5.230   9.029 -0.6326 -0.1458  1.8000
    2SAPS   H9Y  238   5.684   5.059   9.068 -0.2639 -0.2126 -0.3004
    2SAPS  C310  239   5.839   5.086   8.927 -0.4983  0.0761 -0.5184
    2SAPS  H10X  240   5.901   4.999   8.957  1.6526  1.5046 -0.7110
    2SAPS  H10Y  241   5.915   5.158   8.891  0.7711  0.3338  2.5217
    2SAPS  C311  242   5.756   5.036   8.810  0.5595  0.7827 -0.0415
    2SAPS  H11X  243   5.722   5.128   8.758 -0.5603  0.6029  0.3528
    2SAPS  H11Y  244   5.664   4.985   8.845 -0.7529  1.0930 -2.8500
    2SAPS  C312  245   5.834   4.939   8.712 -0.0336 -0.9528 -0.0961
    2SAPS  H12X  246   5.782   4.927   8.615  0.6125 -1.6113 -0.3645
    2SAPS  H12Y  247   5.847   4.837   8.755 -1.6812 -0.6788  1.1384
    2SAPS  C313  248   5.975   4.984   8.676 -0.0553 -0.4607 -1.0845
    2SAPS  H13X  249   6.057   4.943   8.739  1.3745  2.7516 -0.7264
    2SAPS  H13Y  250   5.985   5.095   8.668  1.4660 -0.5702 -0.9189
    2SAPS  C314  251   6.008   4.927   8.536  1.0543  0.2224  0.0395
    2SAPS  H14X  252   5.933   4.964   8.463  0.7825 -1.6182 -0.6382
    2SAPS  H14Y  253   5.997   4.817   8.541  0.1937  0.2007 -1.6845
    2SAPS  C315  254   6.151   4.957   8.498 -0.0441  0.6100  0.2292
    2SAPS  H15X  255   6.219   4.894   8.558 -1.1316 -0.1094  0.7311
    2SAPS  H15Y  256   6.173   5.063   8.522 -0.0312  0.2787  1.7396
    2SAPS  C316  257   6.169   4.933   8.351  0.7335 -0.0471 -0.4124
    2SAPS  H16X  258   6.122   5.007   8.284  0.0369 -0.3328 -0.2440
    2SAPS  H16Y  259   6.124   4.832   8.337 -0.9600  0.5804  0.3346
    2SAPS  C317  260   6.319   4.919   8.309  0.0771  0.3691  0.5652
    2SAPS  H17X  261   6.331   4.881   8.205 -0.7881  0.4800  0.4182
    2SAPS  H17Y  262   6.363   4.852   8.386  1.4646 -0.1216 -0.6160
    2SAPS  C318  263   6.403   5.045   8.304  0.8415  0.0861 -0.3638
    2SAPS  H18X  264   6.457   5.057   8.400 -1.6769  2.2723  0.8472
    2SAPS  H18Y  265   6.334   5.131   8.287 -0.1284 -0.6039  0.0047
    2SAPS  H18Z  266   6.479   5.048   8.224 -0.6012 -0.0305 -1.7591
    3SAPS     N  267   6.423   0.515  11.410  0.8188  0.2300 -0.0826
    3SAPS   HN1  268   6.446   0.611  11.445 -1.0727  0.5413  0.3767
    3SAPS   HN2  269   6.424   0.461  11.498  1.8516  0.0895 -0.1773
    3SAPS   HN3  270   6.497   0.482  11.345  0.2308  1.4828 -1.4246
    3SAPS   C12  271   6.292   0.513  11.341  0.2823  0.2011  0.1482
    3SAPS  H12A  272   6.240   0.433  11.392  0.5575 -1.0106 -1.4078
    3SAPS   C13  273   6.199   0.636  11.357  0.8446 -0.2786  0.1165
    3SAPS  O13A  274   6.221   0.717  11.452  0.0470  0.5784 -0.1317
    3SAPS  O13B  275   6.083   0.635  11.308 -0.4230  0.5791 -0.5828
    3SAPS   C11  276   6.322   0.493  11.188 -0.3405 -0.7716  0.6923
    3SAPS  H11A  277   6.366   0.590  11.156 -2.3293  0.4668  1.5789
    3SAPS  H11B  278   6.222   0.477  11.142 -0.1688  2.5250 -0.9551
    3SAPS     P  279   6.354   0.239  11.144  0.6655  0.3984  0.0962
    3SAPS   O13  280   6.463   0.141  11.154 -0.1060 -0.5695  0.0346
    3SAPS   O14  281   6.242   0.216  11.240 -0.2167 -0.0151  0.1040
    3SAPS   O12  282   6.415   0.384  11.162 -0.0137  0.6559 -0.5920
    3SAPS   O11  283   6.303   0.243  10.993  0.0514 -0.3810  0.2050
    3SAPS    C1  284   6.403   0.262  10.885  0.2860 -0.1618  0.1476
    3SAPS    HA  285   6.475   0.342  10.911  0.9329  0.3017 -2.9213
    3SAPS    HB  286   6.465   0.171  10.867  1.2066  0.0890  1.9834
    3SAPS    C2  287   6.338   0.295  10.747  0.9661  0.5305  0.1831
    3SAPS    HS  288   6.417   0.280  10.670  1.9116  1.0596  1.0374
    3SAPS   O21  289   6.282   0.426  10.742  0.2928  0.4671  0.9392
    3SAPS   C21  290   6.371   0.520  10.706  0.6208  0.2755  0.6780
    3SAPS   O22  291   6.480   0.494  10.657  0.0752 -0.3100 -0.0653
    3SAPS   C22  292   6.315   0.660  10.738  0.2242 -0.1818  0.2230
    3SAPS   H2R  293   6.207   0.661  10.715  0.0465  0.3368  1.0571
    3SAPS   H2S  294   6.324   0.673  10.848 -0.6738 -0.0573  0.2815
    3SAPS    C3  295   6.228   0.188  10.722 -0.3305 -0.1802  0.1020
    3SAPS    HX  296   6.137   0.235  10.766 -0.0925  0.5444 -0.1642
    3SAPS    HY  297   6.259   0.099  10.780  0.2200 -0.1602 -0.1615
    3SAPS   O31  298   6.213   0.148  10.580 -0.3667 -0.6696 -1.0616
    3SAPS   C31  299   6.126   0.052  10.544 -0.0895  0.2449 -0.0448
    3SAPS   O32  300   6.086  -0.028  10.633  0.1501  0.0811 -0.1511
    3SAPS   C32  301   6.091   0.069  10.398 -0.5905  0.8320 -0.3225
    3SAPS   H2X  302   6.188   0.044  10.351 -0.8117 -0.0984 -0.2998
    3SAPS   H2Y  303   6.063   0.176  10.391  1.7396  1.5264  0.5950
    3SAPS   C23  304   6.394   0.769  10.660  0.5785 -0.2775 -0.0082
    3SAPS   H3R  305   6.502   0.754  10.641  1.0910  1.8853  1.0397
    3SAPS   H3S  306   6.388   0.873  10.699 -0.3289 -1.0235  1.9036
    3SAPS   C24  307   6.345   0.766  10.508 -0.0059  1.0809 -0.5292
    3SAPS   H4R  308   6.234   0.772  10.513  0.1121  1.3267  2.5408
    3SAPS   H4S  309   6.356   0.665  10.464 -2.0544  1.5550 -2.2306
    3SAPS   C25  310   6.398   0.881  10.421  0.6905 -0.2510 -0.4399
    3SAPS   H5R  311   6.423   0.972  10.477 -0.9386  0.9540 -1.6099
    3SAPS   C26  312   6.437   0.878  10.292  0.8185  0.7817  0.6838
    3SAPS   H6R  313   6.470   0.973  10.245  1.6436 -0.1079 -0.5701
    3SAPS   C27  314   6.431   0.769  10.196 -0.0900  0.6295 -0.8770
    3SAPS   H7R  315   6.406   0.669  10.239 -0.0535  1.4910  1.2089
    3SAPS   H7S  316   6.536   0.759  10.163  0.3975  0.0938  0.7989
    3SAPS   C28  317   6.341   0.792  10.074 -0.4163 -0.2377  0.5576
    3SAPS   H8R  318   6.232   0.785  10.088 -0.6694  0.7824 -0.8743
    3SAPS   C29  319   6.388   0.833   9.952 -0.4050 -0.5738  0.0381
    3SAPS   H9R  320   6.317   0.844   9.869 -0.7137 -0.6869  0.2882
    3SAPS  C210  321   6.526   0.858   9.906 -0.0966 -0.3635 -0.8444
    3SAPS  H10R  322   6.546   0.821   9.802 -1.5552  2.5025 -2.1893
    3SAPS  H10S  323   6.593   0.803   9.975 -0.7308  2.5013  2.1555
    3SAPS  C211  324   6.573   0.998   9.905 -0.6996  0.6738 -0.6714
    3SAPS  H11R  325   6.595   1.044  10.002 -2.3073  1.1559 -0.5077
    3SAPS  C212  326   6.591   1.081   9.805  0.3139  0.8798  0.4271
    3SAPS  H12R  327   6.597   1.189   9.826 -0.7613  1.1845 -0.7095
    3SAPS  C213  328   6.580   1.052   9.659 -0.3129 -0.1252  0.6094
    3SAPS  H13R  329   6.609   0.948   9.633 -1.5990 -0.2274 -0.4951
    3SAPS  H13S  330   6.653   1.107   9.596 -1.2289 -0.8092 -1.0975
    3SAPS  C214  331   6.444   1.075   9.598 -0.1617  0.9670 -0.6319
    3SAPS  H14R  332   6.359   1.058   9.665 -1.4595 -0.8071 -2.6632
    3SAPS  C215  333   6.417   1.094   9.474  0.3920 -0.6493  0.4393
    3SAPS  H15R  334   6.311   1.096   9.443  0.1279 -1.5599  1.2786
    3SAPS  C216  335   6.511   1.111   9.357  0.1150  0.9824  0.3898
    3SAPS  H16R  336   6.562   1.014   9.338 -0.4459  0.5634  0.9718
    3SAPS  H16S  337   6.589   1.188   9.376  1.4363 -0.5106  1.2187
    3SAPS  C217  338   6.430   1.163   9.233 -0.2072 -0.7760 -0.7634
    3SAPS  H17R  339   6.501   1.169   9.147  0.5056 -2.3892 -0.2972
    3SAPS  H17S  340   6.400   1.267   9.260  0.0657 -0.6689 -0.8670
    3SAPS  C218  341   6.332   1.073   9.163 -0.2176 -1.1808  0.2483
    3SAPS  H18R  342   6.242   1.069   9.228 -0.0467  1.8572  0.7402
    3SAPS  H18S  343   6.380   0.973   9.153  2.5077  0.3223 -2.9410
    3SAPS  C219  344   6.301   1.137   9.019 -1.1058  0.9346 -0.0889
    3SAPS  H19R  345   6.397   1.125   8.963 -0.2689  0.8601  1.3239
    3SAPS  H19S  346   6.296   1.247   9.035 -1.9065  0.9025 -0.1349
    3SAPS  C220  347   6.190   1.094   8.924  0.0385 -0.4808 -0.4782
    3SAPS  H20R  348   6.183   1.165   8.839 -2.7502  0.3396  0.3826
    3SAPS  H20S  349   6.094   1.091   8.981 -0.2274  1.8104 -0.7618
    3SAPS  H20T  350   6.199   0.988   8.891 -2.2735 -0.7832 -0.1998
    3SAPS   C33  351   5.982  -0.026  10.350  0.1217 -0.4342  0.0873
    3SAPS   H3X  352   5.895  -0.012  10.417  0.0801 -1.4418  0.2476
    3SAPS   H3Y  353   6.020  -0.129  10.365 -0.0822 -0.2773  1.8173
    3SAPS   C34  354   5.940  -0.002  10.203  0.3031 -0.5487 -0.7242
    3SAPS   H4X  355   5.891   0.098  10.202  1.1712 -0.0967  0.7828
    3SAPS   H4Y  356   5.862  -0.075  10.174 -0.4625 -1.0584  2.3716
    3SAPS   C35  357   6.053  -0.011  10.103  0.2386  0.6443  0.4767
    3SAPS   H5X  358   6.135  -0.082  10.127 -0.3446 -0.0348  0.4734
    3SAPS   H5Y  359   6.095   0.091  10.096 -2.0459  1.8152  2.9295
    3SAPS   C36  360   6.004  -0.031   9.952  0.3044 -0.2984  0.3876
    3SAPS   H6X  361   5.909   0.024   9.934  1.1232  1.8368  2.4982
    3SAPS   H6Y  362   5.972  -0.137   9.938  1.0135 -0.3769 -0.6649
    3SAPS   C37  363   6.101  -0.012   9.837 -0.7191 -0.3728 -0.0889
    3SAPS   H7X  364   6.048  -0.043   9.744  1.1117 -0.9312 -0.9745
    3SAPS   H7Y  365   6.186  -0.083   9.843  0.5040  1.3229  3.9161
    3SAPS   C38  366   6.145   0.126   9.803 -0.0836  1.2184  0.0811
    3SAPS   H8X  367   6.188   0.182   9.890  0.4888  1.3460 -0.2759
    3SAPS   H8Y  368   6.058   0.190   9.778  0.4244  1.2615 -1.6619
    3SAPS   C39  369   6.258   0.156   9.699 -0.3702  0.3553  0.1623
    3SAPS   H9X  370   6.349   0.099   9.728 -0.3036  0.3100 -0.1236
    3SAPS   H9Y  371   6.282   0.264   9.693 -3.2516  1.0557  0.5038
    3SAPS  C310  372   6.207   0.095   9.566 -0.4091 -0.8949  0.0582
    3SAPS  H10X  373   6.112   0.148   9.540  0.5432  0.8438  0.0138
    3SAPS  H10Y  374   6.174  -0.009   9.583 -0.8047 -0.3846  2.7006
    3SAPS  C311  375   6.311   0.087   9.457 -0.3273 -0.3322 -0.3145
    3SAPS  H11X  376   6.389   0.014   9.487  0.2686  0.9153  1.2438
    3SAPS  H11Y  377   6.334   0.195   9.443 -1.8549 -0.2324 -2.3094
    3SAPS  C312  378   6.250   0.030   9.335  0.7313  0.6041  0.3870
    3SAPS  H12X  379   6.150   0.077   9.326 -0.8034 -2.3223  1.5563
    3SAPS  H12Y  380   6.231  -0.079   9.334  2.2016  0.3255  1.3855
    3SAPS  C313  381   6.326   0.077   9.202 -0.1793 -0.0923 -0.5612
    3SAPS  H13X  382   6.280   0.029   9.113 -1.8170  2.1263 -0.9377
    3SAPS  H13Y  383   6.425   0.026   9.202  0.2078  0.6362 -1.7776
    3SAPS  C314  384   6.337   0.227   9.189  0.3117  0.1049  0.7037
    3SAPS  H14X  385   6.435   0.265   9.225  0.7654 -1.2433  0.8967
    3SAPS  H14Y  386   6.245   0.261   9.242 -0.4021  0.0897 -0.5016
    3SAPS  C315  387   6.316   0.278   9.042  0.5672 -0.2157  0.5883
    3SAPS  H15X  388   6.311   0.388   9.050  1.1782 -0.1309 -0.2179
    3SAPS  H15Y  389   6.218   0.247   9.001  0.2078  0.6992  0.7435
    3SAPS  C316  390   6.433   0.254   8.947 -1.0868  0.0787  0.0764
    3SAPS  H16X  391   6.470   0.149   8.957 -0.5729  0.3179  0.7268
    3SAPS  H16Y  392   6.514   0.324   8.977  0.4977 -1.3216 -0.8354
    3SAPS  C317  393   6.389   0.279   8.799 -0.0676 -0.1131  0.5061
    3SAPS  H17X  394   6.482   0.295   8.741  1.2653  0.3136  2.7257
    3SAPS  H17Y  395   6.320   0.367   8.798 -0.9843 -0.8073  1.5927
    3SAPS  C318  396   6.313   0.163   8.731  0.5184 -0.2883 -0.5028
    3SAPS  H18X  397   6.203   0.165   8.747  0.5159  0.7992 -0.6324
    3SAPS  H18Y  398   6.336   0.065   8.780 -0.8807 -0.0294  0.7146
    3SAPS  H18Z  399   6.333   0.163   8.622 -3.1682  2.4229 -1.2641
    4SAPS     N  400   2.317   1.860  11.012  0.0456  0.6797  0.0902
    4SAPS   HN1  401   2.222   1.829  10.981  0.5431 -1.1746  0.3378
    4SAPS   HN2  402   2.367   1.777  11.050 -1.1876  0.6570  1.7156
    4SAPS   HN3  403   2.300   1.937  11.079 -1.2568 -0.3898  1.0291
    4SAPS   C12  404   2.395   1.899  10.890 -0.2503  0.6559  0.1721
    4SAPS  H12A  405   2.369   2.002  10.870 -1.0804  0.4758  0.3114
    4SAPS   C13  406   2.557   1.889  10.901  0.5277 -0.4907  0.1196
    4SAPS  O13A  407   2.605   1.856  11.016  0.4857 -0.3003  0.1897
    4SAPS  O13B  408   2.623   1.889  10.796 -0.5233 -0.6597  0.2015
    4SAPS   C11  409   2.350   1.807  10.768  0.1895  0.1516  0.1772
    4SAPS  H11A  410   2.384   1.703  10.782  0.0491  0.3207  1.7969
    4SAPS  H11B  411   2.398   1.846  10.675  2.0892 -1.0209  0.6678
    4SAPS     P  412   2.119   1.912  10.679  0.2561  0.1343 -0.1927
    4SAPS   O13  413   1.983   1.920  10.732  0.7028  0.0676 -0.0303
    4SAPS   O14  414   2.194   2.044  10.686  0.2192 -0.7256  0.2602
    4SAPS   O12  415   2.204   1.809  10.768 -0.0400  0.1375  0.0270
    4SAPS   O11  416   2.118   1.850  10.536 -0.7762 -0.2904  0.4318
    4SAPS    C1  417   2.049   1.729  10.503  0.0434 -0.4250  0.4597
    4SAPS    HA  418   2.110   1.642  10.534 -0.6681 -1.4372 -0.9395
    4SAPS    HB  419   1.954   1.728  10.561 -0.3283 -0.2066 -0.1416
    4SAPS    C2  420   2.004   1.728  10.350 -0.0762  0.6068  0.0638
    4SAPS    HS  421   1.942   1.637  10.333 -1.6196  1.0473  2.9292
    4SAPS   O21  422   2.113   1.748  10.259  0.0079 -0.3012  0.5284
    4SAPS   C21  423   2.195   1.649  10.248 -0.7940 -0.2742  0.3794
    4SAPS   O22  424   2.190   1.547  10.308 -0.3252  0.1910 -0.3105
    4SAPS   C22  425   2.306   1.675  10.144  0.6982  0.4565 -0.5393
    4SAPS   H2R  426   2.378   1.749  10.187  1.3850 -0.6759  0.2652
    4SAPS   H2S  427   2.349   1.573  10.139 -1.4513 -0.4638 -0.6494
    4SAPS    C3  428   1.909   1.851  10.323  0.2517  0.5692  0.0573
    4SAPS    HX  429   1.973   1.938  10.349  1.9763 -0.9657  1.1598
    4SAPS    HY  430   1.815   1.842  10.381  0.3004  1.0062  0.2040
    4SAPS   O31  431   1.879   1.874  10.182  0.3640 -0.3099 -0.5443
    4SAPS   C31  432   1.765   1.825  10.134  0.1122 -0.0706  0.4087
    4SAPS   O32  433   1.691   1.747  10.190  0.1421  0.2286 -0.2134
    4SAPS   C32  434   1.741   1.881   9.988  0.1929  0.2470 -0.2980
    4SAPS   H2X  435   1.836   1.858   9.936 -0.1911  1.4289 -1.5952
    4SAPS   H2Y  436   1.738   1.989  10.016  0.1076 -0.4628  2.5260
    4SAPS   C23  437   2.256   1.728  10.005 -0.2476  0.1795 -0.2289
    4SAPS   H3R  438   2.205   1.826  10.014 -0.4069  0.1696 -0.9807
    4SAPS   H3S  439   2.192   1.656   9.949 -0.5614 -0.3294  0.7728
    4SAPS   C24  440   2.380   1.745   9.909 -0.4474 -0.7304  0.3206
    4SAPS   H4R  441   2.401   1.641   9.878  3.0061  0.0301 -0.0158
    4SAPS   H4S  442   2.456   1.798   9.969 -0.3018  0.6015 -1.0157
    4SAPS   C25  443   2.357   1.833   9.791  0.1030 -0.0258 -0.7220
    4SAPS   H5R  444   2.368   1.939   9.817  0.7828  0.1812 -1.8022
    4SAPS   C26  445   2.328   1.789   9.671  0.4247  0.1177 -0.8312
    4SAPS   H6R  446   2.316   1.867   9.595  0.3928 -0.2620 -1.2179
    4SAPS   C27  447   2.289   1.646   9.642  0.4585 -0.4675 -0.1008
    4SAPS   H7R  448   2.192   1.654   9.588  0.3792 -2.0324 -0.2104
    4SAPS   H7S  449   2.276   1.590   9.737  2.7530  0.8922  1.0548
    4SAPS   C28  450   2.384   1.566   9.558  0.0325 -0.3915  0.4037
    4SAPS   H8R  451   2.458   1.503   9.607  0.6248 -0.8569 -1.0536
    4SAPS   C29  452   2.382   1.560   9.421  0.4007  0.3793 -0.0099
    4SAPS   H9R  453   2.466   1.507   9.374 -0.4436  0.0231 -1.1252
    4SAPS  C210  454   2.280   1.636   9.332  0.4522  0.4792 -0.3156
    4SAPS  H10R  455   2.314   1.741   9.322 -1.3401  0.8635 -3.1207
    4SAPS  H10S  456   2.185   1.661   9.385 -0.2562 -0.1065 -1.2777
    4SAPS  C211  457   2.253   1.571   9.197  0.4978 -0.1826 -0.1464
    4SAPS  H11R  458   2.342   1.575   9.133 -1.2923  0.3468 -2.6976
    4SAPS  C212  459   2.139   1.525   9.142  0.1284  0.5557 -0.3157
    4SAPS  H12R  460   2.143   1.470   9.047 -1.1355  0.3979 -0.2919
    4SAPS  C213  461   2.004   1.513   9.216  0.1125  0.0062 -0.5098
    4SAPS  H13R  462   2.022   1.501   9.325 -0.7496 -2.2069 -0.5871
    4SAPS  H13S  463   1.962   1.415   9.185 -0.8790  0.9009 -2.0684
    4SAPS  C214  464   1.918   1.629   9.197 -0.1382 -0.3479 -0.0134
    4SAPS  H14R  465   1.966   1.723   9.227  3.4742 -1.9316 -0.6412
    4SAPS  C215  466   1.789   1.630   9.149 -0.2997  0.2469 -0.1838
    4SAPS  H15R  467   1.750   1.726   9.111  1.0063 -1.1162 -5.4463
    4SAPS  C216  468   1.716   1.501   9.105  0.0468  0.0135  0.0748
    4SAPS  H16R  469   1.609   1.513   9.132  0.1056  0.1266  0.2584
    4SAPS  H16S  470   1.755   1.409   9.152  1.8381  0.7482  0.0803
    4SAPS  C217  471   1.738   1.488   8.957 -0.1477  0.1967  0.2570
    4SAPS  H17R  472   1.844   1.496   8.926 -0.2856  0.8964 -0.0430
    4SAPS  H17S  473   1.691   1.568   8.896  0.9176  0.2085 -0.5629
    4SAPS  C218  474   1.704   1.343   8.917  1.1147 -0.0318  0.0621
    4SAPS  H18R  475   1.639   1.342   8.827  1.5035  0.6428 -0.2336
    4SAPS  H18S  476   1.651   1.288   8.997  2.0934 -1.7931 -0.4581
    4SAPS  C219  477   1.825   1.262   8.887  0.3680 -0.2133 -1.2179
    4SAPS  H19R  478   1.887   1.246   8.978 -2.0340 -2.0703  0.1709
    4SAPS  H19S  479   1.893   1.312   8.815  0.7472  2.3566  0.8353
    4SAPS  C220  480   1.789   1.123   8.832  0.6758  0.5191 -0.2693
    4SAPS  H20R  481   1.887   1.081   8.799  1.0880  1.7704 -0.6585
    4SAPS  H20S  482   1.724   1.138   8.743  0.3540  0.0809 -0.1108
    4SAPS  H20T  483   1.750   1.063   8.917 -0.7528 -1.6918 -2.4286
    4SAPS   C33  484   1.615   1.816   9.920 -0.5384 -0.4411  0.0747
    4SAPS   H3X  485   1.592   1.875   9.828 -0.2190 -0.2168  0.1378
    4SAPS   H3Y  486   1.530   1.822   9.991  0.7745 -3.4094  1.9978
    4SAPS   C34  487   1.625   1.669   9.875 -0.4490 -0.1579  0.4168
    4SAPS   H4X  488   1.527   1.634   9.837 -0.0959 -1.4493  0.6455
    4SAPS   H4Y  489   1.646   1.599   9.959  2.1746  0.9601  0.7660
    4SAPS   C35  490   1.728   1.644   9.762 -0.3431  0.4416  0.5453
    4SAPS   H5X  491   1.832   1.682   9.774 -0.2848  1.0498 -1.7511
    4SAPS   H5Y  492   1.695   1.711   9.680 -0.0543  0.9551  0.8446
    4SAPS   C36  493   1.738   1.492   9.721 -0.2057 -0.2695  0.2753
    4SAPS   H6X  494   1.631   1.463   9.712 -0.6989  1.1054  1.3402
    4SAPS   H6Y  495   1.801   1.434   9.792 -1.2404 -2.1199 -0.2925
    4SAPS   C37  496   1.794   1.470   9.579 -0.0001 -0.0646  0.3901
    4SAPS   H7X  497   1.836   1.367   9.580  5.2066  1.8959  0.3537
    4SAPS   H7Y  498   1.876   1.536   9.544  0.4150  0.4395  2.2220
    4SAPS   C38  499   1.685   1.476   9.466 -0.2034  0.1657 -0.3823
    4SAPS   H8X  500   1.737   1.475   9.368  1.4986 -1.7443  0.5043
    4SAPS   H8Y  501   1.627   1.570   9.473 -1.0217 -0.4442  1.3940
    4SAPS   C39  502   1.600   1.349   9.474  0.1717 -0.0398 -0.3969
    4SAPS   H9X  503   1.555   1.337   9.575  2.1964 -0.2785  0.4875
    4SAPS   H9Y  504   1.665   1.260   9.460 -0.4571 -0.4964 -0.4628
    4SAPS  C310  505   1.487   1.349   9.372  0.3665 -0.0458 -0.5134
    4SAPS  H10X  506   1.459   1.245   9.346  0.8241  0.1192 -1.6633
    4SAPS  H10Y  507   1.525   1.400   9.281 -2.0975 -1.2752 -2.3077
    4SAPS  C311  508   1.357   1.430   9.417 -0.0702 -0.1958 -0.3547
    4SAPS  H11X  509   1.378   1.531   9.458  0.4620  0.4374 -2.1389
    4SAPS  H11Y  510   1.320   1.366   9.500  0.3396  0.3609  0.2673
    4SAPS  C312  511   1.250   1.449   9.315 -0.3440 -0.1111  0.0490
    4SAPS  H12X  512   1.293   1.470   9.215 -0.7448  1.5490  0.2138
    4SAPS  H12Y  513   1.193   1.532   9.361 -1.0042 -1.0486  0.9425
    4SAPS  C313  514   1.151   1.325   9.315  0.0020  0.3071  0.4388
    4SAPS  H13X  515   1.118   1.314   9.421  1.1565 -0.5161  0.7197
    4SAPS  H13Y  516   1.218   1.239   9.293 -0.3345 -0.6676  3.0290
    4SAPS  C314  517   1.028   1.343   9.224  0.0202 -1.2000  0.2997
    4SAPS  H14X  518   1.054   1.371   9.120 -0.5930  1.5375  0.8503
    4SAPS  H14Y  519   0.966   1.427   9.262  1.6163  0.8804 -1.5859
    4SAPS  C315  520   0.940   1.216   9.204  0.1929  0.0258  0.0678
    4SAPS  H15X  521   0.845   1.248   9.157 -0.9818  1.1707  3.0971
    4SAPS  H15Y  522   0.905   1.194   9.307  2.7868  0.0378  0.9819
    4SAPS  C316  523   0.998   1.094   9.134  0.5887 -0.6017 -0.5559
    4SAPS  H16X  524   1.082   1.077   9.204 -0.1028  2.4264  1.1089
    4SAPS  H16Y  525   1.033   1.110   9.030  2.6217 -0.1504  0.1732
    4SAPS  C317  526   0.906   0.969   9.133 -0.2562 -0.1541 -0.0395
    4SAPS  H17X  527   0.835   0.987   9.050 -1.4195  1.3612  1.2578
    4SAPS  H17Y  528   0.846   0.967   9.227 -1.2863 -0.9425 -0.7017
    4SAPS  C318  529   0.985   0.834   9.124 -0.9424  0.0815 -0.1968
    4SAPS  H18X  530   1.032   0.825   9.024 -1.3125  2.0467 -0.5580
    4SAPS  H18Y  531   0.912   0.751   9.140  0.5210 -1.2469 -0.2116
    4SAPS  H18Z  532   1.061   0.826   9.204  1.0607 -1.4840 -2.1831
    5SAPS     N  533   5.393   0.169  11.132 -0.2933 -0.0675 -0.3807
    5SAPS   HN1  534   5.441   0.103  11.196 -0.0452  0.1167 -0.3735
    5SAPS   HN2  535   5.289   0.172  11.140 -0.4332  0.1646 -2.0706
    5SAPS   HN3  536   5.415   0.134  11.036 -2.0482 -1.5951 -0.2563
    5SAPS   C12  537   5.452   0.313  11.135  0.5158  0.2597  0.1746
    5SAPS  H12A  538   5.407   0.373  11.058  0.1061 -0.4269 -0.1266
    5SAPS   C13  539   5.428   0.392  11.262 -0.0682  0.2157 -0.2143
    5SAPS  O13A  540   5.355   0.340  11.355  0.1202 -0.0327 -0.1750
    5SAPS  O13B  541   5.460   0.509  11.267  0.7405 -0.1737  0.5989
    5SAPS   C11  542   5.610   0.301  11.093  0.4979 -0.0313  0.4562
    5SAPS  H11A  543   5.665   0.260  11.181 -0.5322 -0.5639  0.8609
    5SAPS  H11B  544   5.657   0.402  11.093 -0.6033  0.5380 -3.5037
    5SAPS     P  545   5.666   0.298  10.845 -0.1303  0.3268  0.5236
    5SAPS   O13  546   5.731   0.201  10.750 -1.0046 -0.0790 -0.6509
    5SAPS   O14  547   5.538   0.355  10.805  0.4912 -0.6040  0.3655
    5SAPS   O12  548   5.628   0.228  10.975 -0.3494  0.0427  0.6164
    5SAPS   O11  549   5.756   0.414  10.887 -0.6554 -0.0030 -0.3367
    5SAPS    C1  550   5.761   0.548  10.838 -0.0610 -0.5374 -0.4794
    5SAPS    HA  551   5.656   0.583  10.822  0.2520  0.5112 -0.2703
    5SAPS    HB  552   5.811   0.625  10.899 -0.1566 -0.8589  0.0063
    5SAPS    C2  553   5.819   0.570  10.694 -1.3502  0.0060  0.3029
    5SAPS    HS  554   5.852   0.676  10.680 -0.4873 -0.3076 -0.0721
    5SAPS   O21  555   5.737   0.521  10.591  0.1093 -0.0829  0.3121
    5SAPS   C21  556   5.612   0.559  10.573 -0.1777 -0.0744 -0.4447
    5SAPS   O22  557   5.562   0.659  10.627 -0.0198 -0.4451 -0.2660
    5SAPS   C22  558   5.535   0.450  10.495 -0.5612  0.5028 -0.3748
    5SAPS   H2R  559   5.569   0.347  10.518 -1.3500  0.7442  2.0206
    5SAPS   H2S  560   5.433   0.454  10.540  0.1536 -1.9454  1.5797
    5SAPS    C3  561   5.954   0.492  10.685  0.3745  0.2027  0.3361
    5SAPS    HX  562   5.932   0.383  10.686 -0.7760  0.4328  0.2695
    5SAPS    HY  563   6.010   0.531  10.773 -0.4808  0.7159  0.6540
    5SAPS   O31  564   6.038   0.537  10.575  0.0948  0.3769  0.3323
    5SAPS   C31  565   5.996   0.481  10.460 -0.2998  0.1153  0.4022
    5SAPS   O32  566   5.935   0.376  10.441  0.3829  0.0174 -0.2978
    5SAPS   C32  567   6.037   0.585  10.355  0.0730 -0.6704  0.4392
    5SAPS   H2X  568   6.148   0.592  10.347 -0.0347  0.2591 -0.3387
    5SAPS   H2Y  569   5.999   0.684  10.388  1.1707  0.9270 -2.8387
    5SAPS   C23  570   5.527   0.471  10.347  0.7517 -0.4848 -0.9196
    5SAPS   H3R  571   5.626   0.475  10.296  0.0627 -2.9957 -2.5397
    5SAPS   H3S  572   5.484   0.571  10.327  1.4603  0.4279  1.8560
    5SAPS   C24  573   5.447   0.362  10.274 -0.2639  0.4390 -0.4259
    5SAPS   H4R  574   5.418   0.398  10.173 -1.1684 -1.8844 -1.0203
    5SAPS   H4S  575   5.346   0.343  10.316  0.5931 -1.5326  0.8626
    5SAPS   C25  576   5.509   0.232  10.278 -0.3786 -0.0810 -0.4127
    5SAPS   H5R  577   5.510   0.179  10.375 -0.0745 -0.4027 -0.5898
    5SAPS   C26  578   5.557   0.153  10.180  0.4893 -0.1898 -0.2129
    5SAPS   H6R  579   5.610   0.059  10.202  0.5622 -0.3745 -1.1557
    5SAPS   C27  580   5.560   0.197  10.035 -0.4853 -0.2213  0.0008
    5SAPS   H7R  581   5.636   0.277  10.021  0.8589 -1.7715 -1.7990
    5SAPS   H7S  582   5.468   0.257  10.016  0.6249  1.5992  0.2403
    5SAPS   C28  583   5.575   0.085   9.933 -0.0749 -0.0716  0.2978
    5SAPS   H8R  584   5.566  -0.019   9.968  2.5395  0.1054  1.5780
    5SAPS   C29  585   5.586   0.107   9.801 -0.7834  0.0106 -0.2098
    5SAPS   H9R  586   5.597   0.018   9.736 -2.3362  0.2779 -0.8702
    5SAPS  C210  587   5.578   0.237   9.726  0.0776 -0.0640  0.5911
    5SAPS  H10R  588   5.623   0.318   9.787 -2.6476  2.4273 -0.5877
    5SAPS  H10S  589   5.472   0.268   9.713  0.2207  1.3202  2.4722
    5SAPS  C211  590   5.647   0.227   9.587  0.2701 -0.9068  0.2633
    5SAPS  H11R  591   5.756   0.228   9.595  0.1147  0.8897  2.7131
    5SAPS  C212  592   5.596   0.219   9.461 -0.7599 -0.9008 -0.5759
    5SAPS  H12R  593   5.662   0.205   9.374  0.6765 -0.7097  0.4585
    5SAPS  C213  594   5.454   0.207   9.427  0.0559 -0.1757 -0.3411
    5SAPS  H13R  595   5.428   0.272   9.341 -0.1144  0.5879  0.2817
    5SAPS  H13S  596   5.387   0.241   9.510 -0.2492  0.3101 -0.7865
    5SAPS  C214  597   5.438   0.056   9.393  0.2896  0.1677 -0.4538
    5SAPS  H14R  598   5.451  -0.013   9.478 -1.0815  2.1434  1.4250
    5SAPS  C215  599   5.403   0.009   9.273 -0.1487 -0.4701 -0.4321
    5SAPS  H15R  600   5.403  -0.100   9.262  1.0889 -0.5720  0.4499
    5SAPS  C216  601   5.381   0.087   9.152  0.1848 -0.4777  0.7347
    5SAPS  H16R  602   5.438   0.183   9.159 -0.9394  0.1304  1.9649
    5SAPS  H16S  603   5.273   0.102   9.129  0.1470 -1.7834  0.0453
    5SAPS  C217  604   5.433   0.016   9.027 -0.1241 -0.7496  0.4629
    5SAPS  H17R  605   5.407  -0.092   9.032 -1.0733 -0.7672 -3.4318
    5SAPS  H17S  606   5.543   0.028   9.021 -0.1377 -1.6509 -2.0230
    5SAPS  C218  607   5.381   0.071   8.894  1.4572 -0.2131 -0.5787
    5SAPS  H18R  608   5.275   0.040   8.880  1.4266  0.2504 -1.4114
    5SAPS  H18S  609   5.375   0.181   8.905  1.0986 -0.5084  2.5856
    5SAPS  C219  610   5.461   0.014   8.773  0.5728  0.2176 -0.4772
    5SAPS  H19R  611   5.480  -0.092   8.800  0.6193  0.7010  1.5382
    5SAPS  H19S  612   5.562   0.061   8.779  0.7314 -0.0003 -1.4815
    5SAPS  C220  613   5.398   0.045   8.633  0.2948 -0.2880  0.1892
    5SAPS  H20R  614   5.475   0.060   8.554 -0.5758  0.1507 -0.5846
    5SAPS  H20S  615   5.337   0.137   8.635 -0.1558 -0.5678 -0.5392
    5SAPS  H20T  616   5.322  -0.031   8.606 -0.9457  0.8967  0.3227
    5SAPS   C33  617   5.969   0.562  10.218 -0.3006 -1.1712 -1.1624
    5SAPS   H3X  618   5.981   0.654  10.156 -0.1590  1.1060  2.1538
    5SAPS   H3Y  619   5.858   0.559  10.226 -0.1230 -1.1006  1.8031
    5SAPS   C34  620   6.017   0.441  10.158 -0.0050 -0.1367 -0.4366
    5SAPS   H4X  621   5.967   0.357  10.210  2.0731 -1.5057 -0.5857
    5SAPS   H4Y  622   6.126   0.419  10.168  0.0438  0.9169  1.7028
    5SAPS   C35  623   5.977   0.424  10.012  0.2831 -0.0113  0.2618
    5SAPS   H5X  624   5.868   0.441   9.998  0.1833 -1.2452 -0.5538
    5SAPS   H5Y  625   5.995   0.318   9.984  1.8657  0.6034 -1.0813
    5SAPS   C36  626   6.037   0.525   9.912 -0.2031  0.1275  0.4017
    5SAPS   H6X  627   6.141   0.489   9.902 -0.8834 -1.3699 -1.6557
    5SAPS   H6Y  628   6.041   0.630   9.947  2.7536 -0.2509  1.2728
    5SAPS   C37  629   5.965   0.513   9.773  0.0462 -0.5689 -0.4867
    5SAPS   H7X  630   5.882   0.587   9.773  0.6948  0.2140  2.5471
    5SAPS   H7Y  631   5.929   0.408   9.771 -0.1065 -0.5361  0.4255
    5SAPS   C38  632   6.041   0.553   9.646 -0.4558 -0.2000  0.1686
    5SAPS   H8X  633   6.134   0.492   9.646 -1.6760 -2.2233  3.5394
    5SAPS   H8Y  634   6.056   0.663   9.643  0.7817 -0.3567  0.2836
    5SAPS   C39  635   5.962   0.529   9.516 -0.3742 -0.5264 -0.3771
    5SAPS   H9X  636   5.999   0.583   9.427 -0.0273  1.5364  0.9939
    5SAPS   H9Y  637   5.857   0.558   9.541  0.7084  2.8081  0.5358
    5SAPS  C310  638   5.979   0.385   9.476 -0.0617 -1.1916  0.2496
    5SAPS  H10X  639   5.931   0.325   9.557 -2.3068  1.2958  0.8215
    5SAPS  H10Y  640   6.087   0.358   9.473 -0.2855 -2.0486 -0.5193
    5SAPS  C311  641   5.900   0.349   9.348  0.4598 -0.3607  0.2566
    5SAPS  H11X  642   5.807   0.404   9.322 -0.4323 -0.3951  3.1652
    5SAPS  H11Y  643   5.866   0.244   9.361 -3.4501  0.6937 -0.7645
    5SAPS  C312  644   5.980   0.360   9.221  0.4044 -0.5612  0.5794
    5SAPS  H12X  645   6.039   0.271   9.189  0.8599 -0.2875  0.6375
    5SAPS  H12Y  646   6.057   0.440   9.230 -0.6040  0.5087 -0.1677
    5SAPS  C313  647   5.888   0.392   9.098  0.1225  0.0830 -0.3519
    5SAPS  H13X  648   5.855   0.498   9.108  0.0831  0.0608 -0.2521
    5SAPS  H13Y  649   5.802   0.323   9.087  0.5972 -0.4481 -0.7624
    5SAPS  C314  650   5.975   0.384   8.966  0.4311 -0.2493  0.0397
    5SAPS  H14X  651   6.037   0.292   8.977 -0.8317 -1.1749 -0.5050
    5SAPS  H14Y  652   6.037   0.476   8.968 -0.2412  0.2499 -1.5312
    5SAPS  C315  653   5.905   0.374   8.836  0.1580 -0.0230  0.3536
    5SAPS  H15X  654   5.838   0.286   8.845  1.8433 -1.1717  2.1801
    5SAPS  H15Y  655   5.977   0.347   8.756  0.2519  1.4426 -0.0725
    5SAPS  C316  656   5.828   0.499   8.812  0.4672  0.1559  1.1071
    5SAPS  H16X  657   5.896   0.586   8.796 -2.3145  1.9439 -1.6295
    5SAPS  H16Y  658   5.777   0.524   8.907  0.8286 -0.5042  1.4790
    5SAPS  C317  659   5.733   0.487   8.693 -0.2216 -0.5308  0.6358
    5SAPS  H17X  660   5.665   0.401   8.713  0.8007 -1.3236  0.7983
    5SAPS  H17Y  661   5.794   0.464   8.603  0.3393  2.2146  0.2676
    5SAPS  C318  662   5.655   0.608   8.649 -0.3692 -0.3613 -0.0540
    5SAPS  H18X  663   5.565   0.604   8.714 -1.5812  0.3712 -1.6754
    5SAPS  H18Y  664   5.628   0.610   8.542  0.1511 -1.2170 -0.2021
    5SAPS  H18Z  665   5.715   0.698   8.677 -0.8809 -0.5766  1.8410
    6SAPS     N  666   5.356   6.147  10.821  0.5592  0.4146 -1.0313
    6SAPS   HN1  667   5.408   6.063  10.788 -1.3804 -1.3539  0.3331
    6SAPS   HN2  668   5.346   6.204  10.735 -2.8794  0.8113 -0.4222
    6SAPS   HN3  669   5.400   6.203  10.898 -0.3489 -0.0426 -0.1745
    6SAPS   C12  670   5.217   6.101  10.873 -0.3862 -1.3401 -0.4863
    6SAPS  H12A  671   5.177   6.050  10.786  0.5665  1.1541 -2.4370
    6SAPS   C13  672   5.190   6.021  11.000 -0.2196 -0.6927  0.3392
    6SAPS  O13A  673   5.289   5.984  11.070  0.1188  0.3128  0.4741
    6SAPS  O13B  674   5.071   5.986  11.033 -0.1860  0.5055  0.2761
    6SAPS   C11  675   5.155   6.240  10.891  0.0990 -0.3847  0.3969
    6SAPS  H11A  676   5.229   6.301  10.945 -1.3633 -0.1849  2.2264
    6SAPS  H11B  677   5.063   6.244  10.953  0.1879 -3.6901  0.8635
    6SAPS     P  678   4.991   6.355  10.718 -0.0979  0.0779 -0.1073
    6SAPS   O13  679   4.882   6.319  10.814  0.2002 -0.4643  0.2297
    6SAPS   O14  680   5.017   6.504  10.708 -0.0837 -0.0810 -0.4292
    6SAPS   O12  681   5.128   6.289  10.758 -0.1483  0.5846 -0.2198
    6SAPS   O11  682   4.964   6.300  10.574  0.0233  0.1881 -0.2822
    6SAPS    C1  683   4.991   6.154  10.542 -0.1876  0.0650  0.3862
    6SAPS    HA  684   5.096   6.161  10.506  0.0263 -1.0246  0.7939
    6SAPS    HB  685   5.005   6.085  10.627  2.2132  0.8404  0.6796
    6SAPS    C2  686   4.900   6.076  10.438 -0.4590 -0.3278  1.0112
    6SAPS    HS  687   4.962   5.999  10.389  2.1677  1.0841  1.9978
    6SAPS   O21  688   4.856   6.165  10.339  0.2267 -0.8116 -0.1067
    6SAPS   C21  689   4.947   6.225  10.267 -0.4877  0.0992 -0.2199
    6SAPS   O22  690   5.057   6.185  10.245  0.2093 -0.1065 -0.4964
    6SAPS   C22  691   4.878   6.345  10.197  0.4605  0.2235  0.4434
    6SAPS   H2R  692   4.790   6.301  10.144  1.1013 -1.2282  0.5627
    6SAPS   H2S  693   4.836   6.405  10.281  1.9102  1.3143  0.3964
    6SAPS    C3  694   4.767   6.016  10.505  0.0627  0.9168  0.4965
    6SAPS    HX  695   4.718   6.099  10.561 -0.1314 -0.5262  2.5289
    6SAPS    HY  696   4.807   5.940  10.575  0.9059  2.2109  1.4348
    6SAPS   O31  697   4.675   5.953  10.413 -0.1544  0.2896 -0.1960
    6SAPS   C31  698   4.577   5.889  10.472 -0.4034  0.3708 -0.6786
    6SAPS   O32  699   4.575   5.865  10.591 -0.0863  0.2900  0.1911
    6SAPS   C32  700   4.469   5.855  10.368  0.0375  0.1278 -0.4281
    6SAPS   H2X  701   4.513   5.836  10.269 -0.5005  0.8085 -0.8069
    6SAPS   H2Y  702   4.400   5.942  10.358 -0.5355  0.0719  2.5850
    6SAPS   C23  703   4.960   6.446  10.116  0.6299 -0.2067  0.0762
    6SAPS   H3R  704   5.043   6.475  10.184  0.3156  0.7236  0.0599
    6SAPS   H3S  705   4.896   6.535  10.106 -1.0527 -1.2055  1.7154
    6SAPS   C24  706   5.012   6.402   9.986 -0.8819  0.5912 -0.2829
    6SAPS   H4R  707   5.086   6.320   9.998 -2.8963 -1.4850 -1.5254
    6SAPS   H4S  708   5.065   6.486   9.938 -0.4233 -0.1257 -1.0399
    6SAPS   C25  709   4.903   6.362   9.890  0.5775 -0.1927 -0.0694
    6SAPS   H5R  710   4.868   6.260   9.911  1.5269 -1.1062 -2.6986
    6SAPS   C26  711   4.860   6.438   9.790 -1.1045 -0.4204 -0.8128
    6SAPS   H6R  712   4.781   6.403   9.722 -0.1855  0.4237 -2.3538
    6SAPS   C27  713   4.916   6.571   9.743  0.1281 -0.8692  0.1807
    6SAPS   H7R  714   4.956   6.640   9.820  0.0044  1.7241 -2.0250
    6SAPS   H7S  715   4.836   6.628   9.692  1.5728  2.3127  1.3811
    6SAPS   C28  716   5.032   6.542   9.650 -0.3994  0.6107  0.4458
    6SAPS   H8R  717   5.090   6.453   9.681 -0.9569  0.5133  1.2222
    6SAPS   C29  718   5.059   6.593   9.532  0.7851  0.0060  0.4949
    6SAPS   H9R  719   5.139   6.556   9.467 -0.4059 -1.2195 -0.2964
    6SAPS  C210  720   4.964   6.691   9.466 -0.2955 -0.2633 -0.2821
    6SAPS  H10R  721   5.023   6.776   9.425 -0.8892  0.1069 -0.3650
    6SAPS  H10S  722   4.905   6.743   9.544 -1.8059  0.9543 -2.1975
    6SAPS  C211  723   4.861   6.632   9.368 -0.1354  0.0445 -1.0685
    6SAPS  H11R  724   4.811   6.539   9.400 -1.4280  1.1759  0.2467
    6SAPS  C212  725   4.837   6.660   9.245  0.3274  0.4405  0.1247
    6SAPS  H12R  726   4.785   6.581   9.189  3.7304 -0.5015 -1.8875
    6SAPS  C213  727   4.905   6.756   9.155 -0.7803 -0.3201 -0.2463
    6SAPS  H13R  728   4.936   6.683   9.076 -0.1070  1.4690 -1.6689
    6SAPS  H13S  729   4.999   6.796   9.198 -0.4012 -0.0346 -1.3285
    6SAPS  C214  730   4.823   6.860   9.090 -0.8741 -0.4011  1.1390
    6SAPS  H14R  731   4.725   6.887   9.132 -1.0296  1.4142 -0.3042
    6SAPS  C215  732   4.865   6.934   8.989  0.1407  0.5750 -0.1761
    6SAPS  H15R  733   4.806   7.022   8.959  0.6869  0.4077 -1.7975
    6SAPS  C216  734   4.992   6.925   8.911 -0.6549 -0.1285  0.4155
    6SAPS  H16R  735   5.057   6.844   8.949 -1.3216 -0.5158  0.7364
    6SAPS  H16S  736   5.041   7.024   8.925  0.5573 -0.5388 -0.7831
    6SAPS  C217  737   4.970   6.899   8.755 -0.5601 -1.0481  0.1810
    6SAPS  H17R  738   4.918   6.804   8.733  0.6202 -1.1788 -2.1645
    6SAPS  H17S  739   5.071   6.883   8.711 -0.3674 -0.7615  0.5165
    6SAPS  C218  740   4.885   7.007   8.687 -0.2796 -0.5217  0.0927
    6SAPS  H18R  741   4.900   7.101   8.743  0.6247 -0.5189 -0.1584
    6SAPS  H18S  742   4.777   6.981   8.686 -0.6454  0.8196  2.3416
    6SAPS  C219  743   4.916   7.032   8.538  0.1819  0.2008 -0.3941
    6SAPS  H19R  744   4.926   6.939   8.478 -2.2663 -0.3827  0.0799
    6SAPS  H19S  745   5.021   7.067   8.548  1.0706 -1.9014 -2.0431
    6SAPS  C220  746   4.827   7.140   8.473  0.0415 -0.5480 -0.2425
    6SAPS  H20R  747   4.819   7.224   8.545  3.8740  0.0145 -0.3317
    6SAPS  H20S  748   4.731   7.095   8.440 -1.2725  3.3049 -2.0444
    6SAPS  H20T  749   4.875   7.186   8.383 -0.2748 -1.4124 -0.8591
    6SAPS   C33  750   4.375   5.745  10.409 -0.3591  0.4652 -0.3456
    6SAPS   H3X  751   4.300   5.741  10.327 -1.6088  1.6253  0.7261
    6SAPS   H3Y  752   4.315   5.764  10.500  1.3010 -1.2400  1.1461
    6SAPS   C34  753   4.441   5.604  10.412 -0.0859 -0.5222  0.0021
    6SAPS   H4X  754   4.375   5.537  10.472  0.9545 -0.8056  0.8341
    6SAPS   H4Y  755   4.542   5.599  10.457 -0.1915 -2.6449  0.0789
    6SAPS   C35  756   4.425   5.541  10.268 -0.3168 -0.4268  0.0801
    6SAPS   H5X  757   4.323   5.569  10.234 -1.8275 -3.2057  2.0364
    6SAPS   H5Y  758   4.413   5.432  10.286  0.5321 -0.2441  1.9042
    6SAPS   C36  759   4.542   5.560  10.180 -0.1063 -0.5096  0.0359
    6SAPS   H6X  760   4.627   5.493  10.206 -0.6396 -2.3633 -2.7859
    6SAPS   H6Y  761   4.579   5.664  10.186 -1.8980  0.2768 -2.0080
    6SAPS   C37  762   4.506   5.526  10.038  0.1816  0.0380  0.3315
    6SAPS   H7X  763   4.418   5.591  10.019  0.0569 -0.5465 -1.0817
    6SAPS   H7Y  764   4.482   5.419  10.022 -1.8646  0.3603  1.1185
    6SAPS   C38  765   4.627   5.557   9.950  0.1930  0.1049  0.5195
    6SAPS   H8X  766   4.710   5.484   9.958  1.8031  1.2670 -3.8949
    6SAPS   H8Y  767   4.658   5.660   9.981  1.2108 -0.0974  0.1870
    6SAPS   C39  768   4.585   5.564   9.802  1.0631 -0.6117 -0.3910
    6SAPS   H9X  769   4.496   5.624   9.775 -1.4088 -3.4036  1.2137
    6SAPS   H9Y  770   4.571   5.456   9.784  0.8353 -0.2338 -2.5448
    6SAPS  C310  771   4.700   5.608   9.705  0.1600 -0.6582  0.6441
    6SAPS  H10X  772   4.799   5.569   9.737  0.4858 -1.4017 -1.1802
    6SAPS  H10Y  773   4.695   5.718   9.712 -0.6823 -0.7989  2.6721
    6SAPS  C311  774   4.669   5.563   9.561 -0.0848  0.6693 -0.2196
    6SAPS  H11X  775   4.562   5.584   9.543 -0.9416 -2.7661  0.4115
    6SAPS  H11Y  776   4.666   5.452   9.555  1.5674  0.6756 -1.6953
    6SAPS  C312  777   4.766   5.625   9.453 -0.3244  0.1933 -0.1938
    6SAPS  H12X  778   4.856   5.563   9.477 -0.2010  0.5473  0.2562
    6SAPS  H12Y  779   4.778   5.730   9.484 -1.3279 -0.1262  1.2853
    6SAPS  C313  780   4.717   5.617   9.308  0.1399  0.0042  0.5170
    6SAPS  H13X  781   4.616   5.664   9.307 -0.5547 -1.4652 -0.4903
    6SAPS  H13Y  782   4.690   5.510   9.292  1.3542 -0.1444 -0.6188
    6SAPS  C314  783   4.813   5.661   9.195  0.3497  0.9524  0.4883
    6SAPS  H14X  784   4.903   5.600   9.170 -3.1381 -3.0852 -3.0837
    6SAPS  H14Y  785   4.855   5.758   9.228  0.2991  1.2280 -0.2456
    6SAPS  C315  786   4.739   5.669   9.057  1.3789 -0.3057  0.0529
    6SAPS  H15X  787   4.666   5.585   9.055  0.2609  0.6547 -0.7040
    6SAPS  H15Y  788   4.811   5.657   8.973  0.7235 -0.5195 -0.4877
    6SAPS  C316  789   4.668   5.804   9.051  0.2640  0.7260 -0.4776
    6SAPS  H16X  790   4.729   5.894   9.072  1.6812 -0.7132  1.6987
    6SAPS  H16Y  791   4.592   5.800   9.132  0.7354 -1.1725 -0.0861
    6SAPS  C317  792   4.612   5.829   8.910  0.4091 -0.3584 -0.1640
    6SAPS  H17X  793   4.536   5.908   8.923  2.5155  1.7969 -0.6798
    6SAPS  H17Y  794   4.558   5.740   8.870  0.2044 -0.8242  1.1125
    6SAPS  C318  795   4.722   5.867   8.806  0.4575  0.6572 -1.0630
    6SAPS  H18X  796   4.778   5.776   8.775  0.9608 -0.0919  1.9505
    6SAPS  H18Y  797   4.801   5.933   8.848  1.9089 -0.8953 -1.3172
    6SAPS  H18Z  798   4.673   5.922   8.722 -1.2992 -0.1418 -0.5831
    7SAPS     N  799   6.798   1.414  10.856 -0.3209 -0.1668 -0.0156
    7SAPS   HN1  800   6.717   1.450  10.801 -0.4232 -2.1921 -1.2599
    7SAPS   HN2  801   6.850   1.354  10.789 -2.2478 -2.4731  0.4701
    7SAPS   HN3  802   6.773   1.360  10.941 -0.5353 -0.3518 -0.1962
    7SAPS   C12  803   6.890   1.524  10.905 -0.5962  0.0450 -0.7406
    7SAPS  H12A  804   6.887   1.604  10.832  0.4507  0.6056 -0.1752
    7SAPS   C13  805   6.874   1.592  11.043  0.0311  0.3223  1.1229
    7SAPS  O13A  806   6.778   1.557  11.108 -0.3523  0.3301 -0.2458
    7SAPS  O13B  807   6.967   1.663  11.082 -0.1588 -0.3921 -0.0338
    7SAPS   C11  808   7.032   1.465  10.898  0.5244 -0.3931 -0.5484
    7SAPS  H11A  809   7.053   1.372  10.955  1.6188 -0.7301 -1.4735
    7SAPS  H11B  810   7.106   1.542  10.929  1.7775 -1.3606 -1.0724
    7SAPS     P  811   7.153   1.485  10.666  0.1760  0.0438  0.3721
    7SAPS   O13  812   7.101   1.615  10.629 -0.0337  0.0916  0.1861
    7SAPS   O14  813   7.287   1.473  10.727 -0.4269 -0.3650  0.1858
    7SAPS   O12  814   7.054   1.414  10.769  0.1076  0.1134  0.0999
    7SAPS   O11  815   7.151   1.393  10.543  0.1378  0.5634 -0.1715
    7SAPS    C1  816   7.032   1.342  10.478 -0.2123  0.1249  0.0534
    7SAPS    HA  817   7.042   1.232  10.477 -1.1950  0.0370 -1.0114
    7SAPS    HB  818   6.942   1.364  10.539  0.0891 -1.1394  0.9698
    7SAPS    C2  819   7.012   1.385  10.333 -0.7866  0.6168  1.3687
    7SAPS    HS  820   7.100   1.346  10.277 -2.0220 -0.4119  0.1223
    7SAPS   O21  821   7.010   1.529  10.329 -0.1969 -0.0699 -0.2287
    7SAPS   C21  822   7.123   1.600  10.313 -0.0642 -0.3279  0.5433
    7SAPS   O22  823   7.233   1.548  10.288  0.1500 -0.6732  0.1807
    7SAPS   C22  824   7.096   1.755  10.322 -0.1007 -0.6363  0.1963
    7SAPS   H2R  825   7.040   1.774  10.416 -0.5353  0.8151 -0.3586
    7SAPS   H2S  826   7.199   1.795  10.335  0.6289 -2.3160 -0.1318
    7SAPS    C3  827   6.890   1.312  10.268  0.1615 -0.2756  0.0929
    7SAPS    HX  828   6.882   1.329  10.159 -0.7950 -0.8278  0.0685
    7SAPS    HY  829   6.802   1.352  10.324  1.1503  0.9920  0.7646
    7SAPS   O31  830   6.914   1.168  10.281  0.0345  0.2663  0.7525
    7SAPS   C31  831   6.822   1.097  10.349 -0.1063 -0.9127  0.4300
    7SAPS   O32  832   6.737   1.142  10.419 -0.0439  0.4107 -0.6354
    7SAPS   C32  833   6.848   0.947  10.323 -0.1624  0.7013  0.6102
    7SAPS   H2X  834   6.771   0.889  10.379 -0.5942 -0.4701 -1.1288
    7SAPS   H2Y  835   6.947   0.917  10.362 -0.1030 -1.8227 -1.3842
    7SAPS   C23  836   7.026   1.821  10.206  0.7272 -0.1401 -0.5434
    7SAPS   H3R  837   6.997   1.918  10.251  2.3141  0.2361 -0.2809
    7SAPS   H3S  838   6.935   1.764  10.178 -0.2117  0.1232  1.8064
    7SAPS   C24  839   7.129   1.855  10.090  0.0674  0.8034  0.0544
    7SAPS   H4R  840   7.228   1.878  10.134 -0.0733  2.3073 -0.4129
    7SAPS   H4S  841   7.099   1.947  10.035 -0.2275 -0.8531 -2.6581
    7SAPS   C25  842   7.134   1.738   9.985 -0.9762  0.5362 -0.0743
    7SAPS   H5R  843   7.185   1.647  10.019 -3.6566 -1.0186 -0.1077
    7SAPS   C26  844   7.080   1.743   9.865  0.4484 -0.7784 -0.1622
    7SAPS   H6R  845   7.083   1.659   9.795  1.3625 -1.4634  0.6775
    7SAPS   C27  846   6.999   1.859   9.819  0.3934 -0.3706 -0.0330
    7SAPS   H7R  847   7.057   1.924   9.750 -0.3969  0.3925  0.0032
    7SAPS   H7S  848   6.973   1.923   9.907  1.6208  1.4165 -0.9498
    7SAPS   C28  849   6.870   1.811   9.761 -0.9065  0.5751  1.0207
    7SAPS   H8R  850   6.782   1.804   9.827 -0.8434  0.3834  1.0838
    7SAPS   C29  851   6.854   1.787   9.628  0.1784 -0.8031 -0.0447
    7SAPS   H9R  852   6.756   1.752   9.594  1.7547 -3.8152 -1.7383
    7SAPS  C210  853   6.964   1.796   9.519 -0.4359  0.1883 -0.5493
    7SAPS  H10R  854   6.953   1.704   9.458  1.7579  0.6090 -1.6396
    7SAPS  H10S  855   7.068   1.793   9.558 -0.6087  1.8915  0.0663
    7SAPS  C211  856   6.965   1.917   9.432  0.3125 -0.1264  0.1258
    7SAPS  H11R  857   6.936   2.013   9.477  0.1209  0.5787 -1.4488
    7SAPS  C212  858   7.013   1.928   9.305  0.5991 -0.4388 -0.3475
    7SAPS  H12R  859   7.018   2.026   9.255  0.0684 -0.8298 -1.1813
    7SAPS  C213  860   7.082   1.827   9.211 -0.8534 -0.4341  0.5292
    7SAPS  H13R  861   7.116   1.731   9.255 -0.6237 -0.5117  0.1926
    7SAPS  H13S  862   7.185   1.863   9.188 -0.4647 -0.6937  1.8319
    7SAPS  C214  863   7.005   1.811   9.082 -0.2238  0.2052  0.3289
    7SAPS  H14R  864   6.926   1.881   9.052  0.0799  0.7255  0.7244
    7SAPS  C215  865   7.016   1.703   9.001  0.4757 -0.2967  0.2721
    7SAPS  H15R  866   6.949   1.692   8.915  0.4865  1.9447 -0.0531
    7SAPS  C216  867   7.086   1.567   9.025  0.1918  0.0758 -0.2674
    7SAPS  H16R  868   7.163   1.569   9.106 -0.1749  1.7871  0.0660
    7SAPS  H16S  869   7.140   1.532   8.935  0.6707 -0.7838  0.3434
    7SAPS  C217  870   6.993   1.454   9.069 -0.2633  0.3490 -0.1325
    7SAPS  H17R  871   6.949   1.464   9.170  0.1861  0.4634  0.0540
    7SAPS  H17S  872   7.030   1.351   9.054 -1.1873  0.0985 -0.7539
    7SAPS  C218  873   6.871   1.444   8.968 -0.5897  0.5933 -0.4970
    7SAPS  H18R  874   6.915   1.399   8.876 -0.4009 -0.9614  0.3426
    7SAPS  H18S  875   6.826   1.542   8.944 -0.1038  1.1213  0.7046
    7SAPS  C219  876   6.759   1.344   9.003  0.2660  1.4694  0.2874
    7SAPS  H19R  877   6.716   1.357   9.105 -0.6478 -0.5283  0.1804
    7SAPS  H19S  878   6.815   1.249   8.997  0.1318  1.3777  0.4868
    7SAPS  C220  879   6.647   1.340   8.907  0.1343  0.7379 -0.8390
    7SAPS  H20R  880   6.578   1.259   8.936  2.9005 -1.5893 -0.5587
    7SAPS  H20S  881   6.683   1.312   8.806  1.4078 -0.4415 -0.0672
    7SAPS  H20T  882   6.591   1.435   8.893  0.9802  1.3195 -0.3394
    7SAPS   C33  883   6.831   0.913  10.167 -0.4385  0.3872 -0.0566
    7SAPS   H3X  884   6.738   0.962  10.131 -0.5360  0.1659 -0.1116
    7SAPS   H3Y  885   6.810   0.804  10.167  0.7501  0.1576  0.8548
    7SAPS   C34  886   6.956   0.944  10.085  0.6977  0.1899 -0.2660
    7SAPS   H4X  887   7.036   0.888  10.137 -1.6345 -3.5993 -0.4846
    7SAPS   H4Y  888   6.981   1.052  10.092 -2.1271  0.9657 -1.3293
    7SAPS   C35  889   6.948   0.899   9.933  0.6997 -0.2482 -0.4773
    7SAPS   H5X  890   6.878   0.954   9.866 -0.8063 -0.6489  0.7569
    7SAPS   H5Y  891   6.911   0.795   9.925 -0.0997  0.0987 -1.5057
    7SAPS   C36  892   7.092   0.905   9.877  0.7296 -0.3486  0.2770
    7SAPS   H6X  893   7.166   0.829   9.907  1.8435  0.8598  0.6267
    7SAPS   H6Y  894   7.143   0.995   9.917 -0.0900 -0.0371  0.6472
    7SAPS   C37  895   7.084   0.932   9.725 -0.3648  0.5428 -0.1127
    7SAPS   H7X  896   7.184   0.941   9.677 -0.5423 -0.4118 -0.6733
    7SAPS   H7Y  897   7.015   1.018   9.713 -0.3988  0.6285  0.7129
    7SAPS   C38  898   7.014   0.806   9.653  0.0732  0.9702 -0.1149
    7SAPS   H8X  899   6.910   0.785   9.687 -1.0824  1.0088 -3.4486
    7SAPS   H8Y  900   7.079   0.718   9.676 -0.1058  0.6412 -0.8688
    7SAPS   C39  901   7.007   0.816   9.498  0.3161 -0.4413  0.3464
    7SAPS   H9X  902   6.978   0.714   9.463 -0.0333 -0.4604  0.6800
    7SAPS   H9Y  903   7.110   0.833   9.462  0.7566 -1.2972  1.1930
    7SAPS  C310  904   6.919   0.924   9.442 -0.5400 -0.2324 -0.6894
    7SAPS  H10X  905   6.971   1.017   9.475 -1.3716  0.1576 -0.4477
    7SAPS  H10Y  906   6.816   0.935   9.482  1.0718 -0.4113  3.7785
    7SAPS  C311  907   6.895   0.910   9.290  0.4657  0.6213 -0.1187
    7SAPS  H11X  908   6.986   0.872   9.238  0.0115 -0.6857  0.0146
    7SAPS  H11Y  909   6.871   1.003   9.233  0.5507 -0.5254 -2.0894
    7SAPS  C312  910   6.780   0.819   9.256  0.1798 -0.2649 -0.2667
    7SAPS  H12X  911   6.682   0.848   9.299 -0.2755 -2.4746  0.2567
    7SAPS  H12Y  912   6.788   0.723   9.310  2.4981 -0.5901 -1.1543
    7SAPS  C313  913   6.779   0.788   9.108  0.0555  0.2585  0.5366
    7SAPS  H13X  914   6.728   0.692   9.087 -1.2042  1.4467 -1.9915
    7SAPS  H13Y  915   6.884   0.770   9.076  0.6126  3.4265  0.4447
    7SAPS  C314  916   6.715   0.904   9.023  0.9325  0.3221 -0.6661
    7SAPS  H14X  917   6.752   1.002   9.059  0.9641 -1.2024  3.7134
    7SAPS  H14Y  918   6.606   0.913   9.041  1.0606 -0.5941  0.6328
    7SAPS  C315  919   6.735   0.873   8.879  0.1280  0.5163  1.2265
    7SAPS  H15X  920   6.696   0.771   8.859  2.9066  0.0254 -2.1243
    7SAPS  H15Y  921   6.842   0.883   8.852  0.3692  0.8642  2.2696
    7SAPS  C316  922   6.662   0.976   8.787 -0.8562  0.1566 -0.7795
    7SAPS  H16X  923   6.697   1.079   8.810  1.1065 -1.0476  2.0281
    7SAPS  H16Y  924   6.558   0.984   8.825 -0.6012  0.5563 -0.1430
    7SAPS  C317  925   6.687   0.948   8.637 -0.0102 -0.7148  0.0687
    7SAPS  H17X  926   6.648   0.849   8.605  1.0906 -1.1309 -0.0283
    7SAPS  H17Y  927   6.796   0.953   8.614 -0.6272  2.2081 -2.4659
    7SAPS  C318  928   6.604   1.039   8.546 -0.0722 -0.8498  0.3529
    7SAPS  H18X  929   6.608   0.996   8.444  0.9300  1.4429 -0.6220
    7SAPS  H18Y  930   6.652   1.139   8.540  1.6464 -1.7239 -1.0128
    7SAPS  H18Z  931   6.502   1.046   8.589 -0.0312  0.1179  0.3227
    8SAPS     N  932   4.346   2.369  11.182  0.6500  0.0608 -0.7577
    8SAPS   HN1  933   4.357   2.385  11.285  2.0024  1.3247 -1.0770
    8SAPS   HN2  934   4.268   2.420  11.137 -0.6895 -0.1222  1.2829
    8SAPS   HN3  935   4.320   2.269  11.171  0.1497  0.1197 -0.1851
    8SAPS   C12  936   4.467   2.394  11.107 -0.5669  0.5625  0.0999
    8SAPS  H12A  937   4.442   2.385  11.002 -2.7660  2.1597  0.4596
    8SAPS   C13  938   4.517   2.540  11.127 -0.1878  0.3637 -0.3270
    8SAPS  O13A  939   4.459   2.622  11.200  0.2811 -0.2094 -0.3825
    8SAPS  O13B  940   4.632   2.573  11.078  0.5969  0.0331 -0.6617
    8SAPS   C11  941   4.573   2.292  11.157  0.3171 -0.0843  1.1457
    8SAPS  H11A  942   4.616   2.329  11.252 -0.9038  2.7803  0.6342
    8SAPS  H11B  943   4.654   2.296  11.081 -0.5537 -0.8805  0.1617
    8SAPS     P  944   4.577   2.030  11.123 -0.0279  0.3584  0.2152
    8SAPS   O13  945   4.725   2.062  11.112  0.0173  0.2358  0.2661
    8SAPS   O14  946   4.531   1.923  11.216 -0.3403 -0.1459  0.0077
    8SAPS   O12  947   4.515   2.163  11.171  0.5014 -0.2436  0.3376
    8SAPS   O11  948   4.527   1.997  10.983 -0.1359  0.3039  0.0685
    8SAPS    C1  949   4.441   2.085  10.913  0.1087  0.4520  0.2214
    8SAPS    HA  950   4.393   2.164  10.975 -1.7299  0.2238 -0.8594
    8SAPS    HB  951   4.503   2.134  10.835 -0.0916  0.2028 -0.0987
    8SAPS    C2  952   4.323   2.005  10.848  0.9393  0.0503  0.5085
    8SAPS    HS  953   4.264   1.967  10.934  0.8814  0.3344  0.5941
    8SAPS   O21  954   4.370   1.893  10.787  0.2892  0.5587  0.0028
    8SAPS   C21  955   4.280   1.807  10.740 -0.5108 -0.0715 -0.2681
    8SAPS   O22  956   4.162   1.805  10.767  0.1841  0.0218 -0.1492
    8SAPS   C22  957   4.354   1.706  10.657  0.1625 -0.3724  0.2418
    8SAPS   H2R  958   4.442   1.755  10.610 -0.0196 -0.1606  0.1211
    8SAPS   H2S  959   4.396   1.622  10.717 -3.1499 -1.2018  1.5370
    8SAPS    C3  960   4.242   2.101  10.745 -0.7928  0.0154 -0.1138
    8SAPS    HX  961   4.198   2.174  10.816  2.2249 -0.6567  2.5457
    8SAPS    HY  962   4.152   2.044  10.712  0.4471 -2.5286  0.7364
    8SAPS   O31  963   4.333   2.157  10.655 -0.4801  0.1420  0.3791
    8SAPS   C31  964   4.328   2.113  10.534  0.4325  0.3191  0.2926
    8SAPS   O32  965   4.247   2.033  10.490 -0.9041  1.0983  0.2407
    8SAPS   C32  966   4.406   2.200  10.433 -0.0847 -0.1073 -0.7960
    8SAPS   H2X  967   4.515   2.197  10.452 -0.3248 -1.3678  0.4322
    8SAPS   H2Y  968   4.365   2.299  10.461 -1.4138 -0.7695 -0.3487
    8SAPS   C23  969   4.253   1.633  10.555 -0.1058 -0.4235  0.4818
    8SAPS   H3R  970   4.151   1.678  10.555 -0.0282 -0.2363  1.2497
    8SAPS   H3S  971   4.241   1.527  10.587 -3.1441 -0.1849  0.2963
    8SAPS   C24  972   4.316   1.633  10.411  0.2680  0.3261  0.0825
    8SAPS   H4R  973   4.380   1.724  10.405  0.5346  0.2180  1.2610
    8SAPS   H4S  974   4.228   1.652  10.346  0.8335 -0.4293 -0.9194
    8SAPS   C25  975   4.383   1.502  10.360  0.1957  0.3991 -0.5282
    8SAPS   H5R  976   4.400   1.428  10.440  2.3862  1.0024 -0.3950
    8SAPS   C26  977   4.414   1.469  10.233 -0.0105  0.3903 -0.4873
    8SAPS   H6R  978   4.431   1.362  10.212  0.5100  0.4756 -0.5085
    8SAPS   C27  979   4.392   1.560  10.115 -0.9047  0.4920  0.4229
    8SAPS   H7R  980   4.371   1.664  10.148 -0.1631  0.9124 -0.4125
    8SAPS   H7S  981   4.302   1.527  10.058 -0.8982  0.6861  0.2977
    8SAPS   C28  982   4.505   1.564  10.018  0.0826 -0.4123 -0.2196
    8SAPS   H8R  983   4.596   1.522  10.061  0.2363  0.7174  0.5757
    8SAPS   C29  984   4.501   1.608   9.889 -0.2602  0.5461 -0.3239
    8SAPS   H9R  985   4.584   1.591   9.818 -1.5055 -1.1541 -1.4064
    8SAPS  C210  986   4.381   1.655   9.808 -0.2768 -0.5788 -0.5415
    8SAPS  H10R  987   4.286   1.622   9.854  0.1999 -0.5217  0.4822
    8SAPS  H10S  988   4.387   1.612   9.706  0.5152  1.5102 -1.4124
    8SAPS  C211  989   4.386   1.808   9.797  0.1538 -0.2937 -0.1251
    8SAPS  H11R  990   4.371   1.867   9.888  1.5909 -1.8934  1.1751
    8SAPS  C212  991   4.406   1.877   9.684 -0.9106 -0.0070  0.0951
    8SAPS  H12R  992   4.394   1.986   9.673  0.0725  0.1751  0.7840
    8SAPS  C213  993   4.420   1.811   9.548 -0.2350  0.0083 -0.7806
    8SAPS  H13R  994   4.326   1.805   9.489 -2.2187  1.1824  2.1384
    8SAPS  H13S  995   4.448   1.704   9.551  1.7230  0.4890 -1.2262
    8SAPS  C214  996   4.524   1.880   9.468  0.2163 -0.5739 -0.1759
    8SAPS  H14R  997   4.603   1.932   9.524 -0.6616 -0.9433  1.4185
    8SAPS  C215  998   4.520   1.892   9.330 -0.0318  0.4059  0.4650
    8SAPS  H15R  999   4.600   1.946   9.276 -0.1775 -0.8907 -1.0951
    8SAPS  C216 1000   4.411   1.852   9.238 -0.2268 -0.1925 -0.5595
    8SAPS  H16R 1001   4.353   1.942   9.209  0.1093  0.5584  1.0048
    8SAPS  H16S 1002   4.334   1.785   9.281 -1.0418  0.9384 -0.2451
    8SAPS  C217 1003   4.473   1.773   9.124 -0.1933  0.0215  0.5719
    8SAPS  H17R 1004   4.527   1.686   9.166 -0.7464 -0.2226  0.7827
    8SAPS  H17S 1005   4.547   1.821   9.056 -1.0138  0.0334 -0.3353
    8SAPS  C218 1006   4.350   1.720   9.040  0.5717 -0.1712  0.6523
    8SAPS  H18R 1007   4.342   1.783   8.948  0.9773  0.4074  1.0054
    8SAPS  H18S 1008   4.263   1.726   9.108 -0.2153  0.2011 -0.3757
    8SAPS  C219 1009   4.353   1.577   8.999  0.4919 -0.2509  0.1768
    8SAPS  H19R 1010   4.344   1.523   9.096 -1.2703 -0.9635 -0.3648
    8SAPS  H19S 1011   4.456   1.550   8.967  0.4393 -0.9943  0.6076
    8SAPS  C220 1012   4.243   1.531   8.902  0.0285  0.3220 -0.5793
    8SAPS  H20R 1013   4.275   1.432   8.865  0.4098 -0.0238  0.6567
    8SAPS  H20S 1014   4.224   1.603   8.819  2.8044  0.0258 -1.5182
    8SAPS  H20T 1015   4.152   1.505   8.960 -2.2026  1.2697 -3.5065
    8SAPS   C33 1016   4.365   2.179  10.281 -0.0571  0.7396  0.1346
    8SAPS   H3X 1017   4.255   2.192  10.270  0.2386  3.0517 -0.4188
    8SAPS   H3Y 1018   4.406   2.082  10.246 -4.0597 -0.4922 -1.4733
    8SAPS   C34 1019   4.412   2.293  10.188 -0.6099 -0.1607  0.1646
    8SAPS   H4X 1020   4.522   2.296  10.195 -0.6997 -0.6108  2.5195
    8SAPS   H4Y 1021   4.365   2.386  10.228 -1.0815 -1.4147  2.6780
    8SAPS   C35 1022   4.374   2.277  10.044 -0.5069 -0.2719  0.0595
    8SAPS   H5X 1023   4.263   2.285  10.039 -0.4715  0.8216  0.7636
    8SAPS   H5Y 1024   4.403   2.183   9.993 -1.5884 -0.5160 -0.1147
    8SAPS   C36 1025   4.441   2.400   9.968  0.1811  0.5501 -0.2782
    8SAPS   H6X 1026   4.551   2.388   9.953  0.5572  1.8513  1.2428
    8SAPS   H6Y 1027   4.432   2.484  10.040 -1.0061 -0.4460  0.7570
    8SAPS   C37 1028   4.362   2.452   9.844  0.2407  0.2966  0.2194
    8SAPS   H7X 1029   4.397   2.557   9.836 -1.0839  0.6549 -1.0210
    8SAPS   H7Y 1030   4.253   2.445   9.865  0.3914  0.0434  0.9391
    8SAPS   C38 1031   4.382   2.363   9.719  0.5861 -0.2000 -0.5178
    8SAPS   H8X 1032   4.316   2.279   9.747  1.4644 -0.5390  0.5895
    8SAPS   H8Y 1033   4.482   2.316   9.728 -0.5558 -2.3700  1.2607
    8SAPS   C39 1034   4.346   2.433   9.588 -0.3455  0.1837 -0.6902
    8SAPS   H9X 1035   4.409   2.524   9.575 -0.4027  0.7259  2.4257
    8SAPS   H9Y 1036   4.237   2.453   9.597 -0.2337 -0.1842  1.8373
    8SAPS  C310 1037   4.377   2.339   9.469  0.0024 -0.3391 -0.1933
    8SAPS  H10X 1038   4.306   2.254   9.478 -0.9711  0.1903 -2.7201
    8SAPS  H10Y 1039   4.472   2.287   9.494 -1.2051 -1.7129  1.7046
    8SAPS  C311 1040   4.366   2.412   9.337 -0.2220  1.1649 -0.3486
    8SAPS  H11X 1041   4.444   2.489   9.316 -0.0991  0.9260 -0.7734
    8SAPS  H11Y 1042   4.263   2.454   9.332 -0.6106  0.2397 -0.1272
    8SAPS  C312 1043   4.391   2.322   9.213 -0.0536 -0.2437 -0.3720
    8SAPS  H12X 1044   4.448   2.230   9.239 -0.9274 -0.6473  0.1626
    8SAPS  H12Y 1045   4.450   2.369   9.132  2.0610 -1.2739  0.5270
    8SAPS  C313 1046   4.253   2.271   9.140  0.7362 -0.2911  0.3281
    8SAPS  H13X 1047   4.189   2.361   9.134 -0.6824 -1.3383 -0.7218
    8SAPS  H13Y 1048   4.198   2.198   9.203 -2.1746  0.7467 -0.9376
    8SAPS  C314 1049   4.274   2.224   8.994 -0.3188  0.1926  0.7256
    8SAPS  H14X 1050   4.324   2.124   8.994 -0.9855 -0.1481 -0.2667
    8SAPS  H14Y 1051   4.343   2.294   8.943 -1.1100  0.9317  0.6580
    8SAPS  C315 1052   4.151   2.227   8.899  0.4660 -0.1951  0.2102
    8SAPS  H15X 1053   4.117   2.333   8.896  1.3085  0.0348 -1.5232
    8SAPS  H15Y 1054   4.074   2.159   8.943 -0.3165  0.3240 -0.3456
    8SAPS  C316 1055   4.191   2.185   8.751  0.0394 -0.1619  0.7980
    8SAPS  H16X 1056   4.279   2.236   8.706  0.7255 -2.9306 -1.1784
    8SAPS  H16Y 1057   4.103   2.215   8.689  1.5155  0.4643 -1.0564
    8SAPS  C317 1058   4.221   2.030   8.736  0.5650 -0.3106  0.1455
    8SAPS  H17X 1059   4.301   2.004   8.809  0.6094 -1.9228 -0.4482
    8SAPS  H17Y 1060   4.261   2.017   8.634 -0.3321 -0.5571 -0.1829
    8SAPS  C318 1061   4.108   1.929   8.753 -0.5644 -0.2273  0.2005
    8SAPS  H18X 1062   4.069   1.936   8.856  0.4849  0.4041  0.5688
    8SAPS  H18Y 1063   4.127   1.825   8.720 -0.1300 -0.4877  1.2665
    8SAPS  H18Z 1064   4.031   1.967   8.682 -1.1989  1.0945  1.5837
    9SAPS     N 1065   1.391   4.993   6.424  0.4193  0.0856  0.5496
    9SAPS   HN1 1066   1.394   4.984   6.528 -0.8630 -2.9533  0.3675
    9SAPS   HN2 1067   1.418   4.900   6.388 -3.9064 -1.4188  0.9428
    9SAPS   HN3 1068   1.455   5.066   6.387 -1.1511  0.4085 -1.6508
    9SAPS   C12 1069   1.252   5.030   6.399 -0.4596  0.2621  0.5751
    9SAPS  H12A 1070   1.242   5.028   6.291  3.5576  1.7982  0.0931
    9SAPS   C13 1071   1.154   4.920   6.456 -0.1996 -0.2470 -0.7713
    9SAPS  O13A 1072   1.205   4.822   6.515 -0.0770 -0.0309  0.3094
    9SAPS  O13B 1073   1.032   4.937   6.436 -0.1445  0.9477 -0.3110
    9SAPS   C11 1074   1.214   5.170   6.459 -0.1098  1.0414 -0.0122
    9SAPS  H11A 1075   1.205   5.153   6.568 -0.7434  1.0488 -0.0592
    9SAPS  H11B 1076   1.115   5.196   6.416 -0.4614 -1.4298 -0.7507
    9SAPS     P 1077   1.300   5.418   6.443 -0.1670 -0.3034 -0.2257
    9SAPS   O13 1078   1.431   5.479   6.414 -0.2134 -0.0281 -0.6773
    9SAPS   O14 1079   1.183   5.460   6.365  0.1252  0.2958 -0.1592
    9SAPS   O12 1080   1.316   5.264   6.430  0.2830 -0.3081  0.0862
    9SAPS   O11 1081   1.260   5.439   6.598 -0.3132  0.0105 -0.3012
    9SAPS    C1 1082   1.121   5.445   6.634  0.0828 -0.7844 -0.9742
    9SAPS    HA 1083   1.079   5.548   6.631  1.6566  0.0265  2.2895
    9SAPS    HB 1084   1.061   5.371   6.577  0.4464 -0.7863 -1.3561
    9SAPS    C2 1085   1.100   5.401   6.790 -0.1542 -0.5623 -0.1756
    9SAPS    HS 1086   1.000   5.440   6.819 -0.1434  0.8691 -1.9320
    9SAPS   O21 1087   1.212   5.448   6.871  0.2338 -0.5196 -0.0609
    9SAPS   C21 1088   1.217   5.580   6.882  0.3399 -0.8447 -0.2836
    9SAPS   O22 1089   1.138   5.656   6.828 -0.5929  0.5694  0.6467
    9SAPS   C22 1090   1.333   5.631   6.965  0.0786 -0.9076  0.0249
    9SAPS   H2R 1091   1.344   5.581   7.064  1.6194 -2.8393 -1.0826
    9SAPS   H2S 1092   1.432   5.624   6.915  0.2550  3.1842 -0.3936
    9SAPS    C3 1093   1.089   5.246   6.810 -0.6355 -0.1367 -0.6164
    9SAPS    HX 1094   1.176   5.199   6.759  0.3893 -0.4639  1.3689
    9SAPS    HY 1095   1.008   5.215   6.740 -0.4449  1.2250 -1.4766
    9SAPS   O31 1096   1.066   5.202   6.942  0.1171  0.1227  0.1651
    9SAPS   C31 1097   1.173   5.153   7.009 -0.2683  0.0970  0.2978
    9SAPS   O32 1098   1.285   5.145   6.957 -0.1340 -0.3921 -0.1232
    9SAPS   C32 1099   1.135   5.108   7.156 -0.1000 -0.2108 -0.1471
    9SAPS   H2X 1100   1.025   5.091   7.155 -0.2682  0.2554  3.5803
    9SAPS   H2Y 1101   1.154   5.201   7.215  0.4885  0.2357 -1.0247
    9SAPS   C23 1102   1.303   5.783   6.998 -0.4947  0.0539 -0.1087
    9SAPS   H3R 1103   1.229   5.789   7.080  0.8313 -1.7346  1.2607
    9SAPS   H3S 1104   1.268   5.847   6.914 -0.5497 -1.3019 -1.1400
    9SAPS   C24 1105   1.431   5.843   7.051  0.1793 -0.1389  0.4645
    9SAPS   H4R 1106   1.408   5.951   7.064  0.2573  0.0027 -0.5406
    9SAPS   H4S 1107   1.493   5.846   6.959 -1.3033 -1.6590 -0.6206
    9SAPS   C25 1108   1.499   5.775   7.176  0.0725 -0.2688 -0.3141
    9SAPS   H5R 1109   1.575   5.703   7.141  0.4559  0.4316 -0.9232
    9SAPS   C26 1110   1.485   5.792   7.304  0.0540  0.3174 -0.0673
    9SAPS   H6R 1111   1.542   5.736   7.379 -1.1497 -0.7643  0.0639
    9SAPS   C27 1112   1.380   5.889   7.356 -0.2525 -1.0590  0.4226
    9SAPS   H7R 1113   1.305   5.935   7.288 -0.3959 -0.2770  1.1094
    9SAPS   H7S 1114   1.444   5.972   7.392 -0.2728 -0.9843  0.2869
    9SAPS   C28 1115   1.306   5.835   7.471 -0.1896  0.7602  0.0086
    9SAPS   H8R 1116   1.218   5.782   7.432  1.0166  0.2394 -2.1051
    9SAPS   C29 1117   1.341   5.835   7.604  0.2651 -0.6345 -0.2270
    9SAPS   H9R 1118   1.277   5.799   7.686  0.8362  0.9704  0.9412
    9SAPS  C210 1119   1.465   5.909   7.659 -0.1007  0.9183  0.2258
    9SAPS  H10R 1120   1.543   5.909   7.580  2.0642  0.3306  2.2909
    9SAPS  H10S 1121   1.504   5.843   7.740 -1.0331 -0.2515 -0.2732
    9SAPS  C211 1122   1.458   6.055   7.711 -0.1466 -0.1416 -0.6584
    9SAPS  H11R 1123   1.402   6.130   7.653 -0.3464  0.0216 -0.2606
    9SAPS  C212 1124   1.536   6.094   7.812  0.4703 -0.5284 -0.9145
    9SAPS  H12R 1125   1.517   6.196   7.850 -0.9830 -0.8210 -0.8175
    9SAPS  C213 1126   1.631   6.011   7.899  0.0517 -0.3911  0.3689
    9SAPS  H13R 1127   1.696   5.953   7.830 -1.7968 -0.7526 -1.0975
    9SAPS  H13S 1128   1.574   5.947   7.969 -0.4794 -1.0762 -0.6797
    9SAPS  C214 1129   1.715   6.093   8.000  0.2981 -0.2570  0.5310
    9SAPS  H14R 1130   1.687   6.199   8.000 -2.0200 -0.8285  2.7158
    9SAPS  C215 1131   1.801   6.042   8.095 -0.6834  0.1841  0.0095
    9SAPS  H15R 1132   1.839   6.122   8.159  0.9810  1.8257 -2.9017
    9SAPS  C216 1133   1.838   5.896   8.119 -0.5508  0.8392  0.1374
    9SAPS  H16R 1134   1.945   5.877   8.141 -1.1127 -2.1330  0.5098
    9SAPS  H16S 1135   1.806   5.832   8.034 -2.2319 -0.8323  1.9658
    9SAPS  C217 1136   1.757   5.848   8.240  0.6668  0.4627 -0.1193
    9SAPS  H17R 1137   1.646   5.860   8.239  0.8910  2.6072  0.0082
    9SAPS  H17S 1138   1.791   5.905   8.329  2.5452 -0.2676 -0.3517
    9SAPS  C218 1139   1.776   5.697   8.261 -0.6142 -0.0787 -0.0012
    9SAPS  H18R 1140   1.735   5.677   8.362 -0.0160 -1.2613  0.0117
    9SAPS  H18S 1141   1.886   5.680   8.268 -0.6237 -1.2277 -2.1037
    9SAPS  C219 1142   1.722   5.603   8.155  0.1250 -0.6871 -0.4007
    9SAPS  H19R 1143   1.799   5.605   8.075  0.3855  1.4814 -0.1147
    9SAPS  H19S 1144   1.624   5.642   8.119  0.6142  0.2249 -0.7571
    9SAPS  C220 1145   1.688   5.459   8.195  0.0103  0.2807  0.1479
    9SAPS  H20R 1146   1.638   5.398   8.117 -1.5177 -0.8188  1.9737
    9SAPS  H20S 1147   1.629   5.459   8.288 -0.1305  4.4838  0.1578
    9SAPS  H20T 1148   1.786   5.414   8.222  0.7856  1.9226  0.1609
    9SAPS   C33 1149   1.207   4.985   7.205  0.1997  0.6250  0.3397
    9SAPS   H3X 1150   1.318   4.990   7.206  0.2517 -0.2163 -0.3707
    9SAPS   H3Y 1151   1.195   4.900   7.134 -0.3896 -0.2620  1.4803
    9SAPS   C34 1152   1.155   4.942   7.343  0.3142  0.4388  0.4884
    9SAPS   H4X 1153   1.044   4.952   7.344  0.4815  2.3064  1.0582
    9SAPS   H4Y 1154   1.203   5.005   7.420  1.0490  1.4738 -0.8037
    9SAPS   C35 1155   1.194   4.794   7.360  0.7650  0.4887 -0.7770
    9SAPS   H5X 1156   1.304   4.783   7.373  0.2364 -1.3189  2.5730
    9SAPS   H5Y 1157   1.178   4.726   7.272 -0.3219 -1.5254  0.9259
    9SAPS   C36 1158   1.132   4.721   7.477 -0.3325  0.3301 -0.1666
    9SAPS   H6X 1159   1.143   4.611   7.464  0.0472  0.6839 -3.3261
    9SAPS   H6Y 1160   1.026   4.750   7.485 -0.0093  1.5787 -0.2549
    9SAPS   C37 1161   1.203   4.758   7.606 -0.3584 -0.3899  0.3951
    9SAPS   H7X 1162   1.165   4.857   7.637  0.8523  0.2495 -0.1345
    9SAPS   H7Y 1163   1.314   4.762   7.601 -0.4680  2.9582 -0.3729
    9SAPS   C38 1164   1.176   4.655   7.716  0.3123  0.5534 -0.0671
    9SAPS   H8X 1165   1.255   4.576   7.715 -0.7980 -0.5760  0.2212
    9SAPS   H8Y 1166   1.076   4.611   7.696 -0.6104  2.4419  0.3197
    9SAPS   C39 1167   1.191   4.710   7.862  0.1337  0.1332 -0.3875
    9SAPS   H9X 1168   1.099   4.772   7.874 -0.2884 -0.6052  0.2538
    9SAPS   H9Y 1169   1.284   4.770   7.869  1.3792 -1.9107  1.6066
    9SAPS  C310 1170   1.181   4.605   7.976 -0.6370 -0.4787  0.1703
    9SAPS  H10X 1171   1.265   4.534   7.959 -0.7030 -0.5037 -0.0462
    9SAPS  H10Y 1172   1.085   4.549   7.979 -0.3076 -1.0347  0.4348
    9SAPS  C311 1173   1.207   4.670   8.114  0.4884 -0.6576  0.0984
    9SAPS  H11X 1174   1.311   4.709   8.107  0.1377  0.4309  0.6852
    9SAPS  H11Y 1175   1.201   4.588   8.189  0.3309 -0.7650 -0.0305
    9SAPS  C312 1176   1.109   4.788   8.153  0.5490 -0.2405 -0.1113
    9SAPS  H12X 1177   1.003   4.754   8.145  0.8399 -1.3800  0.8616
    9SAPS  H12Y 1178   1.124   4.866   8.075  0.6137  0.2318  0.3719
    9SAPS  C313 1179   1.121   4.844   8.295  0.1358  0.1828 -0.2404
    9SAPS  H13X 1180   1.161   4.765   8.361 -1.3382  0.0414  0.4906
    9SAPS  H13Y 1181   1.018   4.870   8.327  0.2740  1.1652 -0.5633
    9SAPS  C314 1182   1.202   4.971   8.305  0.9181 -0.0234  0.1051
    9SAPS  H14X 1183   1.184   5.009   8.408  2.2870  1.1489 -0.0733
    9SAPS  H14Y 1184   1.146   5.035   8.233  0.0145 -1.1998 -0.2451
    9SAPS  C315 1185   1.349   4.950   8.288  0.2955  0.0174 -0.0787
    9SAPS  H15X 1186   1.383   4.927   8.185 -1.1381  3.0556 -1.2819
    9SAPS  H15Y 1187   1.380   4.865   8.353  1.2834  0.4846  0.0658
    9SAPS  C316 1188   1.436   5.068   8.339 -0.3553  0.1582 -0.2530
    9SAPS  H16X 1189   1.417   5.156   8.275  1.4641 -1.4481 -3.1529
    9SAPS  H16Y 1190   1.544   5.041   8.335 -0.8193 -1.6427 -1.1204
    9SAPS  C317 1191   1.412   5.110   8.482  0.7462  0.6195  0.5010
    9SAPS  H17X 1192   1.316   5.166   8.479  1.7112  2.2693 -0.3862
    9SAPS  H17Y 1193   1.492   5.180   8.515  1.5803 -0.4167  0.6717
    9SAPS  C318 1194   1.399   5.001   8.592 -0.4903  0.4596  0.1989
    9SAPS  H18X 1195   1.308   4.941   8.569 -1.0686  2.0566 -1.8387
    9SAPS  H18Y 1196   1.392   5.042   8.695  0.7167 -2.1300  1.3596
    9SAPS  H18Z 1197   1.473   4.919   8.592 -1.8770 -0.8686  3.1522
   10SAPS     N 1198   1.160   3.585   6.276 -0.1660  0.2592  0.1382
   10SAPS   HN1 1199   1.220   3.502   6.294  0.5895  1.1205  1.6169
   10SAPS   HN2 1200   1.103   3.614   6.358  0.9306 -0.1522  1.0614
   10SAPS   HN3 1201   1.103   3.555   6.193 -0.8873  2.1464 -0.0879
   10SAPS   C12 1202   1.237   3.703   6.248  0.6601 -0.5438 -0.0935
   10SAPS  H12A 1203   1.307   3.721   6.328 -0.5839  2.8682  0.2996
   10SAPS   C13 1204   1.309   3.690   6.108 -0.1137 -0.0538  0.5816
   10SAPS  O13A 1205   1.248   3.622   6.018  0.0799  0.2030 -0.1094
   10SAPS  O13B 1206   1.368   3.796   6.070 -0.1984 -0.0794  0.6857
   10SAPS   C11 1207   1.142   3.828   6.240 -0.3861  0.2354  0.2868
   10SAPS  H11A 1208   1.077   3.817   6.150  0.9513 -1.0605 -0.5327
   10SAPS  H11B 1209   1.187   3.925   6.210 -2.3086  0.9412 -0.4360
   10SAPS     P 1210   1.120   3.934   6.476  0.3721  0.2925  0.5492
   10SAPS   O13 1211   1.259   3.895   6.516  0.3292  0.7693  0.0485
   10SAPS   O14 1212   1.106   4.071   6.431 -0.2527  0.1082 -0.1558
   10SAPS   O12 1213   1.069   3.842   6.362  0.2602 -0.2010 -0.3567
   10SAPS   O11 1214   1.004   3.896   6.585 -0.1103  0.0477 -0.6552
   10SAPS    C1 1215   0.981   4.000   6.680  0.0929 -0.5150 -0.2834
   10SAPS    HA 1216   0.949   4.100   6.644  0.7550 -0.6334 -1.2131
   10SAPS    HB 1217   0.907   3.964   6.754  1.6960 -2.5073  0.3938
   10SAPS    C2 1218   1.108   4.045   6.762  0.3506  0.3302  0.7364
   10SAPS    HS 1219   1.168   4.093   6.682  0.3545 -1.7410 -0.5530
   10SAPS   O21 1220   1.169   3.933   6.827 -0.3711  0.4028  0.3277
   10SAPS   C21 1221   1.299   3.942   6.828 -0.2449  0.4839 -0.2383
   10SAPS   O22 1222   1.365   4.038   6.790  0.3384  0.1632  0.5215
   10SAPS   C22 1223   1.361   3.824   6.903  0.5887  0.7829 -0.1357
   10SAPS   H2R 1224   1.372   3.727   6.852  1.5700  0.3037  0.9589
   10SAPS   H2S 1225   1.467   3.856   6.919  0.8802 -0.7274  1.0724
   10SAPS    C3 1226   1.068   4.160   6.849 -0.5173  0.0754 -1.2805
   10SAPS    HX 1227   0.986   4.133   6.920  0.1398  3.5438  0.9087
   10SAPS    HY 1228   1.018   4.238   6.789 -1.6818  1.8167  1.8140
   10SAPS   O31 1229   1.181   4.223   6.914  0.0846  0.7521 -0.2613
   10SAPS   C31 1230   1.227   4.339   6.871  0.0640  0.6736  0.6154
   10SAPS   O32 1231   1.185   4.400   6.770 -0.8507 -0.3254  0.1866
   10SAPS   C32 1232   1.333   4.391   6.968 -0.9969  0.0148  0.2660
   10SAPS   H2X 1233   1.318   4.361   7.074  0.1843 -0.9845  0.1669
   10SAPS   H2Y 1234   1.332   4.502   6.956  1.1122  0.0382  0.1403
   10SAPS   C23 1235   1.292   3.799   7.039  0.0682  0.5590 -0.5578
   10SAPS   H3R 1236   1.355   3.725   7.092 -1.0558 -0.1346 -0.1776
   10SAPS   H3S 1237   1.190   3.759   7.020 -0.5772  1.5408  0.7411
   10SAPS   C24 1238   1.279   3.920   7.129 -0.1186 -0.2227  0.2718
   10SAPS   H4R 1239   1.226   3.873   7.215 -2.8888  2.8871  0.3864
   10SAPS   H4S 1240   1.220   4.009   7.097 -0.2386 -0.9684 -1.6291
   10SAPS   C25 1241   1.417   3.985   7.158 -0.6700 -0.4790  0.7195
   10SAPS   H5R 1242   1.449   4.062   7.086  1.7516 -0.1463  2.1051
   10SAPS   C26 1243   1.495   3.973   7.265  0.3575  0.5881  0.5025
   10SAPS   H6R 1244   1.592   4.026   7.266  0.3799  0.5524  0.2437
   10SAPS   C27 1245   1.460   3.875   7.383 -0.4286  0.6740 -0.3026
   10SAPS   H7R 1246   1.376   3.804   7.368  0.8402 -1.2170  1.3425
   10SAPS   H7S 1247   1.444   3.934   7.476 -3.8674  0.3520 -0.6367
   10SAPS   C28 1248   1.590   3.798   7.401 -0.2927  0.2988 -0.5517
   10SAPS   H8R 1249   1.608   3.743   7.308 -0.0178  0.3729 -0.5417
   10SAPS   C29 1250   1.675   3.774   7.507 -0.0112 -0.2445 -1.3457
   10SAPS   H9R 1251   1.767   3.712   7.500 -0.8715 -1.5216 -1.5699
   10SAPS  C210 1252   1.653   3.827   7.650  0.1587 -0.5868 -0.3167
   10SAPS  H10R 1253   1.664   3.742   7.722 -3.6502 -1.9759 -1.2748
   10SAPS  H10S 1254   1.550   3.858   7.677  0.9249  0.2105  1.8128
   10SAPS  C211 1255   1.733   3.941   7.694 -0.8786 -0.9367  0.0357
   10SAPS  H11R 1256   1.759   4.014   7.616 -1.1708 -1.3382 -0.4498
   10SAPS  C212 1257   1.777   3.965   7.815  0.8690 -0.0515  0.0161
   10SAPS  H12R 1258   1.831   4.058   7.837  1.5774 -0.1421 -1.2895
   10SAPS  C213 1259   1.744   3.874   7.935 -0.6759  0.1082 -0.4567
   10SAPS  H13R 1260   1.826   3.799   7.936  0.2721  1.0912 -2.0241
   10SAPS  H13S 1261   1.648   3.818   7.928 -0.3670 -0.8940  2.7037
   10SAPS  C214 1262   1.753   3.958   8.065 -0.2272 -0.2067 -0.0712
   10SAPS  H14R 1263   1.830   4.037   8.066 -0.9886  0.6746 -3.1609
   10SAPS  C215 1264   1.668   3.942   8.169 -0.3965 -0.4960 -0.0266
   10SAPS  H15R 1265   1.671   4.021   8.245  0.6871  0.6639 -1.2572
   10SAPS  C216 1266   1.562   3.843   8.176  0.5683  0.9479  0.3960
   10SAPS  H16R 1267   1.585   3.751   8.117 -1.4925 -0.8844  2.3480
   10SAPS  H16S 1268   1.479   3.898   8.128  0.2260  0.9537  0.9864
   10SAPS  C217 1269   1.537   3.791   8.314 -0.6615 -0.7546  0.3384
   10SAPS  H17R 1270   1.520   3.884   8.372  1.0240  0.2227 -0.6788
   10SAPS  H17S 1271   1.629   3.741   8.352  2.0546  2.6079 -1.4746
   10SAPS  C218 1272   1.404   3.714   8.315 -0.2309 -0.0277 -0.1558
   10SAPS  H18R 1273   1.424   3.608   8.287  2.0465  0.6128 -1.0588
   10SAPS  H18S 1274   1.337   3.748   8.232 -0.3800  0.1110  0.0219
   10SAPS  C219 1275   1.339   3.713   8.455  0.7637 -1.1461 -0.5024
   10SAPS  H19R 1276   1.257   3.639   8.455  1.6827 -2.2127  1.6299
   10SAPS  H19S 1277   1.298   3.814   8.479 -0.9905 -1.5517 -1.7301
   10SAPS  C220 1278   1.436   3.671   8.568  0.2074  0.0752  0.2590
   10SAPS  H20R 1279   1.392   3.686   8.669 -1.1899 -0.9648 -0.1824
   10SAPS  H20S 1280   1.540   3.710   8.565  1.1817 -2.3960  0.9080
   10SAPS  H20T 1281   1.442   3.560   8.564 -1.6859 -0.0783  1.1659
   10SAPS   C33 1282   1.469   4.350   6.915 -0.8646 -0.1824 -1.5037
   10SAPS   H3X 1283   1.479   4.388   6.811 -0.2185  0.2554 -1.2894
   10SAPS   H3Y 1284   1.477   4.239   6.914 -0.7018 -0.2216  1.2114
   10SAPS   C34 1285   1.593   4.413   6.997 -0.8424  0.2409  0.4395
   10SAPS   H4X 1286   1.587   4.524   6.999  0.8258  0.3545  0.2664
   10SAPS   H4Y 1287   1.685   4.378   6.945 -1.6782 -1.7501  0.2806
   10SAPS   C35 1288   1.598   4.357   7.145  0.4735  0.2228  0.3181
   10SAPS   H5X 1289   1.583   4.248   7.132  0.7036  0.2672 -0.3320
   10SAPS   H5Y 1290   1.520   4.398   7.212  1.1495 -1.5596  2.2545
   10SAPS   C36 1291   1.733   4.372   7.212 -0.2409 -0.1570 -0.3034
   10SAPS   H6X 1292   1.757   4.480   7.223 -0.5871 -0.2709  1.7601
   10SAPS   H6Y 1293   1.796   4.308   7.146 -0.1404  1.0714 -1.4248
   10SAPS   C37 1294   1.737   4.301   7.349 -0.5159  0.0157  0.6155
   10SAPS   H7X 1295   1.841   4.261   7.351 -1.0429 -1.4041  0.3765
   10SAPS   H7Y 1296   1.678   4.208   7.334  1.6038 -1.1642 -0.6320
   10SAPS   C38 1297   1.703   4.381   7.472 -0.2287  0.5462 -0.3199
   10SAPS   H8X 1298   1.596   4.404   7.490  0.1620  1.9681  0.2817
   10SAPS   H8Y 1299   1.736   4.485   7.452 -0.4541  0.5879 -0.4824
   10SAPS   C39 1300   1.759   4.330   7.602 -0.2892 -0.2530  0.1155
   10SAPS   H9X 1301   1.867   4.317   7.581  0.1745  1.0210  1.6063
   10SAPS   H9Y 1302   1.721   4.230   7.630 -1.6274 -0.0264 -0.7927
   10SAPS  C310 1303   1.738   4.427   7.717  0.0617  0.3105  0.4855
   10SAPS  H10X 1304   1.627   4.434   7.712  0.0686 -1.0246 -3.6571
   10SAPS  H10Y 1305   1.789   4.524   7.702  2.3857 -0.9637 -0.1053
   10SAPS  C311 1306   1.769   4.359   7.857 -0.2959 -0.2200 -0.2613
   10SAPS  H11X 1307   1.878   4.353   7.875 -0.1104  2.1992 -0.4557
   10SAPS  H11Y 1308   1.719   4.260   7.841 -1.1839  0.2750 -0.6001
   10SAPS  C312 1309   1.701   4.441   7.971 -0.2901  0.5603  0.2445
   10SAPS  H12X 1310   1.591   4.424   7.973  0.0983 -3.3078 -3.7097
   10SAPS  H12Y 1311   1.717   4.550   7.955  0.6618  0.6095  1.4692
   10SAPS  C313 1312   1.762   4.410   8.106 -0.4363  0.3700  0.4451
   10SAPS  H13X 1313   1.851   4.474   8.124  0.3423 -0.7017  0.4504
   10SAPS  H13Y 1314   1.789   4.303   8.106  0.8489  0.6710 -0.4661
   10SAPS  C314 1315   1.662   4.433   8.222 -0.3848 -0.4526  0.4895
   10SAPS  H14X 1316   1.690   4.368   8.308  1.3465  0.0085  0.2827
   10SAPS  H14Y 1317   1.558   4.411   8.190  0.1955 -0.3967 -1.5314
   10SAPS  C315 1318   1.658   4.576   8.273  0.0063  0.3564  0.0675
   10SAPS  H15X 1319   1.651   4.640   8.182 -1.3250  0.3327  0.1496
   10SAPS  H15Y 1320   1.754   4.605   8.322 -0.2472 -1.0218  1.4122
   10SAPS  C316 1321   1.541   4.601   8.369 -0.2769  0.0959  0.2839
   10SAPS  H16X 1322   1.442   4.563   8.336  0.4052 -1.4327 -0.0714
   10SAPS  H16Y 1323   1.518   4.710   8.371  0.9899  0.3863 -0.3519
   10SAPS  C317 1324   1.570   4.571   8.517 -0.0803 -0.6027 -0.3233
   10SAPS  H17X 1325   1.589   4.462   8.528 -0.2841 -0.9583 -3.0717
   10SAPS  H17Y 1326   1.484   4.602   8.580 -0.3785 -0.0534 -0.9950
   10SAPS  C318 1327   1.692   4.645   8.577 -0.2118  0.3953 -0.5108
   10SAPS  H18X 1328   1.696   4.650   8.688  0.9263 -1.0811 -0.4752
   10SAPS  H18Y 1329   1.688   4.750   8.541  0.7790  1.6515  2.8943
   10SAPS  H18Z 1330   1.787   4.595   8.546 -1.1048 -2.4985  1.2461
   11SAPS     N 1331   3.215   0.467   5.715 -0.4557  0.6099 -0.6153
   11SAPS   HN1 1332   3.260   0.450   5.623  2.1058  1.6159  0.4270
   11SAPS   HN2 1333   3.189   0.565   5.739  0.2255  0.4101  0.9721
   11SAPS   HN3 1334   3.295   0.447   5.778  0.3322 -0.2100 -1.8267
   11SAPS   C12 1335   3.098   0.383   5.735  0.2106 -1.3225 -0.3756
   11SAPS  H12A 1336   3.033   0.423   5.659 -0.3138  1.3834  1.4370
   11SAPS   C13 1337   3.123   0.233   5.720 -0.6289 -0.2820  0.2720
   11SAPS  O13A 1338   3.220   0.196   5.649 -0.6506  0.2361 -0.5633
   11SAPS  O13B 1339   3.028   0.158   5.752  0.4154 -0.3849  0.0943
   11SAPS   C11 1340   3.018   0.424   5.867 -0.5419 -0.3568  0.0539
   11SAPS  H11A 1341   3.089   0.403   5.950  0.0489  3.1318  0.5156
   11SAPS  H11B 1342   2.931   0.355   5.872 -0.3283 -0.7219 -0.9430
   11SAPS     P 1343   2.852   0.599   5.961 -0.1941 -0.0194  0.3501
   11SAPS   O13 1344   2.815   0.729   5.907  0.1771 -0.0071  0.0945
   11SAPS   O14 1345   2.750   0.493   5.970  0.7103  0.3249 -0.5590
   11SAPS   O12 1346   2.975   0.558   5.874  0.5178  0.2405 -0.4670
   11SAPS   O11 1347   2.926   0.610   6.099  0.5359 -0.2091 -0.1156
   11SAPS    C1 1348   3.062   0.660   6.103 -0.1829  0.4578  0.2189
   11SAPS    HA 1349   3.132   0.578   6.076  1.2213  1.8870 -0.5117
   11SAPS    HB 1350   3.088   0.739   6.029  2.5394 -0.5926  0.0122
   11SAPS    C2 1351   3.101   0.733   6.237  0.1912 -0.4245 -0.0606
   11SAPS    HS 1352   3.205   0.769   6.222  0.4463 -1.3531 -0.5536
   11SAPS   O21 1353   3.065   0.664   6.356 -0.7037 -0.1125  0.1760
   11SAPS   C21 1354   3.145   0.555   6.368  0.0287 -0.4666 -0.1161
   11SAPS   O22 1355   3.249   0.530   6.304 -0.2168 -0.2026  0.2649
   11SAPS   C22 1356   3.095   0.486   6.493  0.7062 -0.0040  0.3298
   11SAPS   H2R 1357   3.002   0.531   6.532  1.6455  1.5709  0.8064
   11SAPS   H2S 1358   3.069   0.380   6.475 -1.0940  0.4812 -0.0397
   11SAPS    C3 1359   3.018   0.863   6.240  0.7616 -0.3244  0.0849
   11SAPS    HX 1360   2.909   0.843   6.234  0.9811 -1.3609 -0.5952
   11SAPS    HY 1361   3.032   0.917   6.144 -0.1976 -1.3960 -0.6757
   11SAPS   O31 1362   3.061   0.937   6.356  0.0956 -0.2113 -0.2691
   11SAPS   C31 1363   2.996   0.921   6.468  0.0695 -0.3766 -0.2124
   11SAPS   O32 1364   2.890   0.859   6.472 -0.3186  0.1189 -0.1629
   11SAPS   C32 1365   3.074   0.987   6.582  0.0644  0.0149 -0.4037
   11SAPS   H2X 1366   3.001   1.037   6.649 -0.9738 -2.0095  0.0055
   11SAPS   H2Y 1367   3.147   1.064   6.548 -0.0078  1.1081  1.7872
   11SAPS   C23 1368   3.206   0.497   6.598  0.9543  0.0227  0.1080
   11SAPS   H3R 1369   3.224   0.605   6.618 -0.3321  0.4483 -1.0115
   11SAPS   H3S 1370   3.300   0.445   6.568 -0.3293 -1.7554 -0.8995
   11SAPS   C24 1371   3.161   0.432   6.732  0.0513 -0.1790  0.3009
   11SAPS   H4R 1372   3.257   0.431   6.788  0.0407 -0.1088  0.3187
   11SAPS   H4S 1373   3.139   0.324   6.716  1.8717 -0.7015  1.0942
   11SAPS   C25 1374   3.052   0.509   6.802  0.2120 -0.1786  0.5260
   11SAPS   H5R 1375   2.951   0.504   6.759  0.1994 -1.7665  0.7193
   11SAPS   C26 1376   3.070   0.581   6.914 -0.1541 -0.6740  0.6167
   11SAPS   H6R 1377   2.981   0.627   6.959 -0.8160  1.2613 -2.5647
   11SAPS   C27 1378   3.208   0.594   6.969  0.6236  0.0628 -0.6511
   11SAPS   H7R 1379   3.290   0.617   6.898  2.7300 -2.0130  1.0380
   11SAPS   H7S 1380   3.245   0.503   7.020  0.9983 -0.5299 -1.9715
   11SAPS   C28 1381   3.216   0.716   7.065  0.3747 -0.0184 -0.5884
   11SAPS   H8R 1382   3.208   0.813   7.014 -1.7475 -0.3333 -0.9208
   11SAPS   C29 1383   3.223   0.711   7.200  0.1468  0.5542  0.6156
   11SAPS   H9R 1384   3.234   0.811   7.245 -1.8187  0.8689  0.4276
   11SAPS  C210 1385   3.224   0.592   7.293 -0.1899  0.0695 -0.2838
   11SAPS  H10R 1386   3.317   0.532   7.297 -0.9009 -1.1663 -1.8426
   11SAPS  H10S 1387   3.147   0.517   7.264 -0.3062  0.2517 -0.4487
   11SAPS  C211 1388   3.196   0.628   7.432 -0.0941  0.0141  0.6964
   11SAPS  H11R 1389   3.098   0.600   7.474 -0.7725  1.0705 -0.1688
   11SAPS  C212 1390   3.276   0.685   7.520  0.6044  0.1418  0.3471
   11SAPS  H12R 1391   3.241   0.702   7.623  1.2718 -0.4986  0.6899
   11SAPS  C213 1392   3.413   0.728   7.498 -0.2497 -0.3510  0.7317
   11SAPS  H13R 1393   3.437   0.737   7.390 -1.2763  2.7880  0.7180
   11SAPS  H13S 1394   3.476   0.644   7.534 -0.7243 -1.2676 -0.5155
   11SAPS  C214 1395   3.454   0.854   7.569  0.0165  0.3103  0.2890
   11SAPS  H14R 1396   3.482   0.939   7.505  0.5671  0.2986  0.5176
   11SAPS  C215 1397   3.462   0.878   7.701  0.2539  0.5634 -0.3098
   11SAPS  H15R 1398   3.513   0.965   7.746  0.7899 -1.2548  2.7108
   11SAPS  C216 1399   3.425   0.773   7.803 -0.0022 -0.0761 -0.2416
   11SAPS  H16R 1400   3.515   0.755   7.866 -0.1276  1.2125  0.3375
   11SAPS  H16S 1401   3.408   0.675   7.754  1.4462 -0.1252 -0.6489
   11SAPS  C217 1402   3.307   0.816   7.896  0.1057 -0.4727 -0.1323
   11SAPS  H17R 1403   3.219   0.843   7.833 -0.7787 -2.0076  0.3932
   11SAPS  H17S 1404   3.328   0.897   7.967  1.7355 -0.2030 -0.9029
   11SAPS  C218 1405   3.260   0.700   7.983 -0.2350  0.3301 -0.0865
   11SAPS  H18R 1406   3.214   0.624   7.916  0.8733  0.6847 -1.2873
   11SAPS  H18S 1407   3.175   0.734   8.045 -1.3574  0.4336 -1.6448
   11SAPS  C219 1408   3.380   0.632   8.061  0.3732  0.6295 -0.1108
   11SAPS  H19R 1409   3.449   0.713   8.093  1.2040 -0.2481  0.3310
   11SAPS  H19S 1410   3.439   0.568   7.993 -0.4585  1.1196 -1.3011
   11SAPS  C220 1411   3.318   0.538   8.165 -0.2432 -0.1005 -0.3342
   11SAPS  H20R 1412   3.219   0.504   8.130  0.3960 -0.2235 -2.0497
   11SAPS  H20S 1413   3.291   0.594   8.257  1.2191 -0.2204  0.1878
   11SAPS  H20T 1414   3.379   0.450   8.198  0.2513  0.3083 -0.1491
   11SAPS   C33 1415   3.149   0.886   6.665  0.3998 -0.4992  0.1174
   11SAPS   H3X 1416   3.205   0.812   6.604  1.0210 -1.8952  2.3350
   11SAPS   H3Y 1417   3.077   0.826   6.724 -1.3654  1.3598 -0.1157
   11SAPS   C34 1418   3.242   0.959   6.771 -0.2142  0.2498 -1.0461
   11SAPS   H4X 1419   3.307   1.026   6.711 -0.4330  0.6544 -0.8294
   11SAPS   H4Y 1420   3.305   0.887   6.828  0.0256  0.3918 -1.1330
   11SAPS   C35 1421   3.162   1.033   6.884 -0.3613 -0.2394  0.3487
   11SAPS   H5X 1422   3.081   0.969   6.924  2.1618 -1.4219  3.9015
   11SAPS   H5Y 1423   3.131   1.130   6.841  2.2247  0.2044 -0.6119
   11SAPS   C36 1424   3.250   1.066   7.010  0.1628  0.3003  0.1577
   11SAPS   H6X 1425   3.328   1.143   6.992  0.8225 -0.4278 -0.1152
   11SAPS   H6Y 1426   3.307   0.979   7.049  0.9053  0.2234 -1.1068
   11SAPS   C37 1427   3.162   1.121   7.123 -0.1856 -0.0582  0.0151
   11SAPS   H7X 1428   3.074   1.058   7.145  1.0324 -2.3991 -1.5989
   11SAPS   H7Y 1429   3.130   1.225   7.101 -0.1133  0.2343  1.2177
   11SAPS   C38 1430   3.237   1.133   7.256 -0.5325 -0.7942  0.3561
   11SAPS   H8X 1431   3.326   1.199   7.243 -0.6823 -0.8429 -1.0632
   11SAPS   H8Y 1432   3.264   1.028   7.278 -0.2013 -1.0358 -1.1621
   11SAPS   C39 1433   3.158   1.181   7.376 -0.1582  0.3729  0.2679
   11SAPS   H9X 1434   3.061   1.126   7.370  0.3135 -0.4784  0.3039
   11SAPS   H9Y 1435   3.130   1.288   7.364  1.2303  0.9125  1.7401
   11SAPS  C310 1436   3.227   1.165   7.509 -0.1678 -0.6373 -0.6626
   11SAPS  H10X 1437   3.328   1.210   7.509 -0.9986  1.3106  0.8917
   11SAPS  H10Y 1438   3.238   1.054   7.510  1.4192 -0.4899 -0.7614
   11SAPS  C311 1439   3.140   1.213   7.632 -0.5654  0.4233 -0.5010
   11SAPS  H11X 1440   3.051   1.147   7.623 -1.3186  1.4692 -0.8895
   11SAPS  H11Y 1441   3.111   1.319   7.611  3.3410  2.2010  2.3241
   11SAPS  C312 1442   3.217   1.218   7.774  0.0887  0.0168 -0.6294
   11SAPS  H12X 1443   3.281   1.308   7.783 -1.8357  1.0901  3.1264
   11SAPS  H12Y 1444   3.280   1.128   7.791 -0.4112 -0.5817 -1.8966
   11SAPS  C313 1445   3.109   1.229   7.887  0.0035 -0.5765 -0.2377
   11SAPS  H13X 1446   3.033   1.152   7.865 -1.0342  0.2471  0.4203
   11SAPS  H13Y 1447   3.064   1.330   7.876  0.9799 -0.0458  0.4303
   11SAPS  C314 1448   3.170   1.208   8.026  0.7555  0.0175  0.0806
   11SAPS  H14X 1449   3.245   1.288   8.041  1.2296  0.0458 -2.2522
   11SAPS  H14Y 1450   3.220   1.109   8.037 -3.1145 -2.1335 -0.7810
   11SAPS  C315 1451   3.062   1.210   8.132 -1.2473 -0.1395 -0.4543
   11SAPS  H15X 1452   2.987   1.139   8.093 -1.4966 -0.8491  1.2525
   11SAPS  H15Y 1453   3.023   1.314   8.139 -0.8819  0.1477 -2.5900
   11SAPS  C316 1454   3.105   1.168   8.270  0.2368 -0.2701 -0.5667
   11SAPS  H16X 1455   3.164   1.074   8.258  1.8368  0.7840 -1.0901
   11SAPS  H16Y 1456   3.010   1.144   8.323  0.4169  0.7076  0.1980
   11SAPS  C317 1457   3.190   1.264   8.338  0.1804 -0.2028  0.1456
   11SAPS  H17X 1458   3.147   1.366   8.343  1.3110  0.5276 -3.4488
   11SAPS  H17Y 1459   3.285   1.277   8.281 -0.3984 -0.6360 -0.9226
   11SAPS  C318 1460   3.233   1.226   8.481 -0.8670  0.1268  0.2262
   11SAPS  H18X 1461   3.306   1.300   8.520 -0.8116  0.7240 -0.9811
   11SAPS  H18Y 1462   3.283   1.127   8.489 -1.9883 -0.5282 -0.7975
   11SAPS  H18Z 1463   3.145   1.213   8.547 -1.0944 -1.0094 -0.2905
   12SAPS     N 1464   3.376   1.726   6.048  0.8421  0.3954  0.0614
   12SAPS   HN1 1465   3.353   1.634   6.005  1.1501  0.2430  0.2208
   12SAPS   HN2 1466   3.478   1.742   6.052  0.8869  0.5510 -1.5224
   12SAPS   HN3 1467   3.325   1.728   6.138  1.6754 -1.3698  0.6015
   12SAPS   C12 1468   3.304   1.833   5.969  0.0987  0.0256 -0.6671
   12SAPS  H12A 1469   3.373   1.864   5.892 -0.4579 -0.7244 -1.4867
   12SAPS   C13 1470   3.173   1.795   5.905  0.1683 -0.3690 -0.5434
   12SAPS  O13A 1471   3.140   1.673   5.887  0.2816  0.2501  0.5681
   12SAPS  O13B 1472   3.124   1.895   5.847 -0.2017 -0.1353 -0.0679
   12SAPS   C11 1473   3.281   1.957   6.066  0.6579 -0.2906  0.3701
   12SAPS  H11A 1474   3.237   2.047   6.018  1.6801  0.7556  1.3906
   12SAPS  H11B 1475   3.381   2.002   6.086 -0.2519  2.3261 -0.8194
   12SAPS     P 1476   3.191   2.058   6.290  0.0951 -0.2845 -0.3051
   12SAPS   O13 1477   3.283   2.162   6.250 -0.0194 -0.1593 -0.4525
   12SAPS   O14 1478   3.054   2.102   6.307  0.7170  0.7236 -0.6538
   12SAPS   O12 1479   3.213   1.929   6.191  0.8118 -0.0003  0.2576
   12SAPS   O11 1480   3.246   1.998   6.432 -0.0216  0.2731 -0.0666
   12SAPS    C1 1481   3.348   1.900   6.435  0.2702 -0.3621 -0.0278
   12SAPS    HA 1482   3.316   1.804   6.389 -1.0674  0.5915 -1.1329
   12SAPS    HB 1483   3.428   1.948   6.375  0.7811 -0.4100  0.6089
   12SAPS    C2 1484   3.387   1.862   6.579 -0.1369  0.0378 -0.2247
   12SAPS    HS 1485   3.436   1.762   6.574  2.4597  1.2400  0.4890
   12SAPS   O21 1486   3.275   1.855   6.674 -0.0763  0.7332  0.6389
   12SAPS   C21 1487   3.169   1.783   6.643  1.1033  0.5463  0.0933
   12SAPS   O22 1488   3.156   1.696   6.558  0.0703 -0.2938 -0.5272
   12SAPS   C22 1489   3.057   1.821   6.741  0.1810  0.1998 -0.1146
   12SAPS   H2R 1490   3.050   1.739   6.815  0.0788  1.2547  1.0716
   12SAPS   H2S 1491   3.067   1.919   6.792 -0.7841  0.7339 -0.9338
   12SAPS    C3 1492   3.502   1.954   6.625 -0.0863  1.2479 -0.4333
   12SAPS    HX 1493   3.444   2.048   6.625 -0.7668  0.8299 -0.5393
   12SAPS    HY 1494   3.585   1.946   6.552  0.3484 -1.3105  0.2898
   12SAPS   O31 1495   3.539   1.901   6.752  0.2935 -0.1697  0.1156
   12SAPS   C31 1496   3.572   1.988   6.847  0.0636 -0.0950 -0.5590
   12SAPS   O32 1497   3.580   2.110   6.833 -0.4734 -0.5622  0.2211
   12SAPS   C32 1498   3.605   1.918   6.984  0.4001  0.5675  0.3569
   12SAPS   H2X 1499   3.714   1.897   6.986  0.2256 -1.1052 -3.2418
   12SAPS   H2Y 1500   3.561   1.816   6.986  0.9816  0.3401  2.5447
   12SAPS   C23 1501   2.912   1.827   6.688 -0.5455 -0.5629  0.4279
   12SAPS   H3R 1502   2.862   1.728   6.680 -0.0016 -0.8928  1.0568
   12SAPS   H3S 1503   2.917   1.874   6.587  2.1016 -1.7714 -0.0477
   12SAPS   C24 1504   2.812   1.901   6.786 -0.4047  0.2842 -0.3389
   12SAPS   H4R 1505   2.717   1.910   6.729 -0.2599  0.3757 -0.5661
   12SAPS   H4S 1506   2.842   2.006   6.806 -2.0099  0.8369 -0.7569
   12SAPS   C25 1507   2.791   1.838   6.920 -0.1043 -0.7051  0.5232
   12SAPS   H5R 1508   2.767   1.731   6.911  0.3040 -0.6637 -1.2700
   12SAPS   C26 1509   2.803   1.900   7.039 -0.0063  1.0072 -0.1043
   12SAPS   H6R 1510   2.796   1.833   7.126  1.8315 -0.4423 -1.0544
   12SAPS   C27 1511   2.855   2.037   7.074  0.5363 -0.5575 -0.2980
   12SAPS   H7R 1512   2.847   2.101   6.984 -2.0849  1.8550  1.5595
   12SAPS   H7S 1513   2.963   2.029   7.096  0.3451 -0.5581  0.6651
   12SAPS   C28 1514   2.780   2.100   7.194 -0.1079 -0.7183  0.3877
   12SAPS   H8R 1515   2.686   2.156   7.178  0.5996  0.8890  1.7601
   12SAPS   C29 1516   2.817   2.088   7.325  0.9179 -0.1707  0.8554
   12SAPS   H9R 1517   2.760   2.149   7.397  1.2573  1.9296 -0.6196
   12SAPS  C210 1518   2.927   2.011   7.380  0.7527 -0.1746  0.2168
   12SAPS  H10R 1519   2.956   2.047   7.481  2.4167 -0.8604  0.0031
   12SAPS  H10S 1520   3.022   2.015   7.323  0.5960  1.2888  0.0461
   12SAPS  C211 1521   2.886   1.864   7.395 -0.6103 -0.2925  0.5262
   12SAPS  H11R 1522   2.852   1.813   7.303  2.1777 -1.2268 -0.0436
   12SAPS  C212 1523   2.909   1.787   7.506  0.1787  1.2782 -0.9014
   12SAPS  H12R 1524   2.871   1.684   7.500 -0.5297  1.1942  3.1433
   12SAPS  C213 1525   2.977   1.824   7.640 -0.2076  0.3720  0.2176
   12SAPS  H13R 1526   3.012   1.929   7.650  2.0799 -0.3846  0.5753
   12SAPS  H13S 1527   3.075   1.773   7.653 -0.3046  0.2203  0.3494
   12SAPS  C214 1528   2.885   1.792   7.756 -0.0490 -0.5548 -0.0713
   12SAPS  H14R 1529   2.794   1.854   7.755  2.1197  2.7712 -0.3707
   12SAPS  C215 1530   2.906   1.697   7.845  0.9074  0.2954 -0.4492
   12SAPS  H15R 1531   2.840   1.683   7.933 -1.3787 -0.0978 -2.1764
   12SAPS  C216 1532   3.012   1.602   7.849  0.1051  0.3960 -0.1726
   12SAPS  H16R 1533   3.029   1.544   7.756 -0.1099 -2.1218  1.3146
   12SAPS  H16S 1534   2.980   1.528   7.925  0.8441 -1.5294 -1.6983
   12SAPS  C217 1535   3.139   1.669   7.898 -0.1968  0.1759  0.0209
   12SAPS  H17R 1536   3.158   1.766   7.849 -0.4459  0.8339  1.2082
   12SAPS  H17S 1537   3.221   1.605   7.860 -0.4057 -0.3320  0.4167
   12SAPS  C218 1538   3.155   1.692   8.051  0.0480  0.1732  0.5102
   12SAPS  H18R 1539   3.086   1.621   8.103  0.4147 -0.7788 -0.2928
   12SAPS  H18S 1540   3.111   1.793   8.067  0.5534  0.9863 -3.0248
   12SAPS  C219 1541   3.300   1.694   8.109  0.2687 -0.1079  0.4060
   12SAPS  H19R 1542   3.350   1.743   8.023 -1.1218 -0.8263 -0.8657
   12SAPS  H19S 1543   3.345   1.593   8.124  0.5100 -0.4546 -2.4097
   12SAPS  C220 1544   3.304   1.776   8.237  0.1158  0.0462  0.6011
   12SAPS  H20R 1545   3.405   1.782   8.283  1.5996  0.8744 -2.6684
   12SAPS  H20S 1546   3.248   1.720   8.315 -2.3084 -0.4587 -1.4187
   12SAPS  H20T 1547   3.266   1.879   8.223  0.5382  0.0800 -0.3178
   12SAPS   C33 1548   3.548   2.000   7.103  0.3629 -0.3250  0.4540
   12SAPS   H3X 1549   3.448   2.046   7.087 -0.7690 -3.0701 -0.4847
   12SAPS   H3Y 1550   3.619   2.081   7.134  1.2999 -0.1009 -2.1212
   12SAPS   C34 1551   3.507   1.915   7.229 -0.2983  0.3944 -0.1636
   12SAPS   H4X 1552   3.588   1.840   7.234 -1.1046 -0.4535  0.3003
   12SAPS   H4Y 1553   3.413   1.866   7.196 -0.5861  1.2926 -0.7085
   12SAPS   C35 1554   3.497   1.992   7.357  0.2449  0.0928 -0.0329
   12SAPS   H5X 1555   3.418   2.069   7.344 -0.6171 -0.4486  1.9095
   12SAPS   H5Y 1556   3.593   2.040   7.386  1.0226 -2.1019  1.1276
   12SAPS   C36 1557   3.461   1.900   7.470  0.2866  0.2783  0.4511
   12SAPS   H6X 1558   3.535   1.817   7.456  0.0899  0.1559  0.1442
   12SAPS   H6Y 1559   3.359   1.858   7.458  1.0996 -1.8485  0.6222
   12SAPS   C37 1560   3.488   1.957   7.608 -0.3137  0.1228  0.1542
   12SAPS   H7X 1561   3.417   2.042   7.618 -1.0881 -0.0116 -3.3677
   12SAPS   H7Y 1562   3.589   2.002   7.613  0.2286 -1.2858  2.5146
   12SAPS   C38 1563   3.473   1.857   7.723 -0.2719 -0.4030  0.6213
   12SAPS   H8X 1564   3.368   1.822   7.714 -0.6244  1.1347 -1.5093
   12SAPS   H8Y 1565   3.480   1.915   7.818 -0.7689  1.2586 -0.3531
   12SAPS   C39 1566   3.580   1.749   7.720 -0.3274 -0.4313 -0.5747
   12SAPS   H9X 1567   3.674   1.806   7.733 -1.1650  1.0918 -1.0815
   12SAPS   H9Y 1568   3.571   1.692   7.625  0.5640  0.8469 -1.4348
   12SAPS  C310 1569   3.568   1.650   7.844  0.1109 -0.3287  0.7736
   12SAPS  H10X 1570   3.482   1.582   7.824  1.3009 -1.0264 -2.3162
   12SAPS  H10Y 1571   3.556   1.708   7.938 -1.6319 -1.5944  1.3542
   12SAPS  C311 1572   3.690   1.555   7.860 -0.7974 -0.4415 -0.3127
   12SAPS  H11X 1573   3.784   1.612   7.874  1.2468 -3.6206 -0.4578
   12SAPS  H11Y 1574   3.708   1.502   7.764  0.2031  0.4416 -0.6181
   12SAPS  C312 1575   3.675   1.466   7.980  0.8760 -0.7088  0.3975
   12SAPS  H12X 1576   3.648   1.521   8.072 -0.7982 -0.7769 -0.0423
   12SAPS  H12Y 1577   3.779   1.432   8.000  0.3402 -1.8840  1.2599
   12SAPS  C313 1578   3.581   1.350   7.955  0.3878  0.5554 -0.2092
   12SAPS  H13X 1579   3.565   1.315   7.851 -3.3614  1.1584  0.0760
   12SAPS  H13Y 1580   3.479   1.384   7.983 -0.1068 -0.5283 -0.6553
   12SAPS  C314 1581   3.585   1.237   8.060 -0.3329  0.3425 -0.4493
   12SAPS  H14X 1582   3.494   1.175   8.044 -0.8571  1.3428 -1.4190
   12SAPS  H14Y 1583   3.565   1.268   8.165 -2.2574  2.0608 -1.2995
   12SAPS  C315 1584   3.720   1.157   8.058  0.3574 -0.3934  0.2514
   12SAPS  H15X 1585   3.808   1.224   8.052 -0.6471  0.9524 -0.0037
   12SAPS  H15Y 1586   3.724   1.097   7.965  0.3288  1.8336 -1.2374
   12SAPS  C316 1587   3.747   1.078   8.179 -0.5914 -0.0958 -0.3251
   12SAPS  H16X 1588   3.712   1.131   8.270  0.9805 -0.0433  0.2559
   12SAPS  H16Y 1589   3.855   1.055   8.193 -0.2621  0.9639 -1.0884
   12SAPS  C317 1590   3.660   0.958   8.174 -0.1574 -0.1273 -0.2230
   12SAPS  H17X 1591   3.567   0.965   8.113 -0.2558 -0.4250 -0.1072
   12SAPS  H17Y 1592   3.625   0.928   8.275  0.6200 -2.1796 -0.5469
   12SAPS  C318 1593   3.730   0.841   8.101 -0.1397 -0.2979 -0.8428
   12SAPS  H18X 1594   3.828   0.821   8.150 -1.2403 -0.5910  1.2997
   12SAPS  H18Y 1595   3.744   0.851   7.991 -1.3813 -0.1722 -0.9926
   12SAPS  H18Z 1596   3.668   0.753   8.126 -0.3647  0.0398 -0.1992
   13SAPS     N 1597   2.508   6.118   6.057  0.7420 -0.2060 -0.0919
   13SAPS   HN1 1598   2.492   6.201   5.998  0.6736 -0.5709 -0.5853
   13SAPS   HN2 1599   2.428   6.101   6.122  0.0849  0.3418 -0.7564
   13SAPS   HN3 1600   2.586   6.151   6.117 -0.9014  2.5110  0.6294
   13SAPS   C12 1601   2.540   5.999   5.970  0.3094  0.4451 -0.5847
   13SAPS  H12A 1602   2.447   5.976   5.920 -0.6467  2.7789  0.0595
   13SAPS   C13 1603   2.638   6.040   5.850 -0.1404 -1.3966  0.0586
   13SAPS  O13A 1604   2.671   6.159   5.835  0.2748  0.4922 -0.7080
   13SAPS  O13B 1605   2.675   5.947   5.770 -0.5103 -0.0222  0.1345
   13SAPS   C11 1606   2.603   5.886   6.054 -0.5905  0.2849  0.3164
   13SAPS  H11A 1607   2.704   5.923   6.082  0.3016 -1.5522 -0.4308
   13SAPS  H11B 1608   2.621   5.793   5.997 -0.8747 -1.1945  2.5820
   13SAPS     P 1609   2.564   5.753   6.270 -0.2233  0.1478  0.0849
   13SAPS   O13 1610   2.442   5.704   6.342  0.0157 -0.3763 -0.2284
   13SAPS   O14 1611   2.637   5.648   6.202 -0.2949  0.0122  0.0708
   13SAPS   O12 1612   2.518   5.857   6.161 -0.3857 -0.3762 -0.5022
   13SAPS   O11 1613   2.659   5.839   6.362  0.1794 -0.0777 -0.0183
   13SAPS    C1 1614   2.607   5.926   6.468  0.2069  0.6335 -0.6919
   13SAPS    HA 1615   2.681   5.995   6.513 -0.9314  0.2557  1.7909
   13SAPS    HB 1616   2.517   5.981   6.433 -1.8459 -1.2923  1.4046
   13SAPS    C2 1617   2.574   5.841   6.593 -0.4250 -0.4831  0.8015
   13SAPS    HS 1618   2.500   5.763   6.565  0.4176 -1.9817  2.7032
   13SAPS   O21 1619   2.529   5.925   6.704  0.1357  0.1160  0.3631
   13SAPS   C21 1620   2.408   5.970   6.702  0.3396  0.4052  0.2644
   13SAPS   O22 1621   2.316   5.925   6.635 -0.2212 -0.5673 -0.3645
   13SAPS   C22 1622   2.388   6.075   6.806  0.0843  1.0466  0.4279
   13SAPS   H2R 1623   2.435   6.036   6.899  1.7308  2.0382  0.0374
   13SAPS   H2S 1624   2.448   6.163   6.774  2.1965 -0.1874  0.8774
   13SAPS    C3 1625   2.696   5.753   6.632 -0.1859 -0.4136 -0.0376
   13SAPS    HX 1626   2.790   5.812   6.634  0.1527 -0.8825 -1.4329
   13SAPS    HY 1627   2.713   5.678   6.552 -2.0205 -0.1582 -0.7141
   13SAPS   O31 1628   2.672   5.679   6.753 -0.0931 -0.1243 -0.2069
   13SAPS   C31 1629   2.764   5.588   6.786  0.7158 -0.2905  0.2087
   13SAPS   O32 1630   2.868   5.565   6.725 -1.0438  0.4105  0.1968
   13SAPS   C32 1631   2.723   5.512   6.904 -0.5649  0.0347  0.4164
   13SAPS   H2X 1632   2.655   5.429   6.874  0.0379  0.3560 -1.8964
   13SAPS   H2Y 1633   2.670   5.568   6.983 -1.3756  0.1096 -0.1763
   13SAPS   C23 1634   2.235   6.105   6.830  0.0917  0.1597  0.0013
   13SAPS   H3R 1635   2.184   6.018   6.877 -0.1995  0.7688  0.8338
   13SAPS   H3S 1636   2.183   6.120   6.733 -0.9045 -3.1729 -0.0305
   13SAPS   C24 1637   2.212   6.225   6.931  0.4143  0.1190  0.0742
   13SAPS   H4R 1638   2.280   6.310   6.907 -0.9707  1.0217 -0.7259
   13SAPS   H4S 1639   2.240   6.191   7.033 -0.7196  0.9540  0.6775
   13SAPS   C25 1640   2.062   6.269   6.918  0.1260  0.4449  0.0036
   13SAPS   H5R 1641   2.045   6.337   6.833  2.9579 -0.3790 -1.2656
   13SAPS   C26 1642   1.951   6.245   6.999  0.4206 -0.1088  0.0139
   13SAPS   H6R 1643   1.849   6.278   6.975  0.8808  0.8934 -0.6254
   13SAPS   C27 1644   1.951   6.161   7.122  0.0609 -0.3266  0.1867
   13SAPS   H7R 1645   1.977   6.234   7.202 -1.2633  0.0077  0.3213
   13SAPS   H7S 1646   2.030   6.084   7.113  0.1415 -0.1346 -0.7544
   13SAPS   C28 1647   1.817   6.105   7.169 -0.4255 -0.7614 -0.1007
   13SAPS   H8R 1648   1.735   6.156   7.115 -0.2448  0.4536  0.7382
   13SAPS   C29 1649   1.792   6.008   7.263 -0.6893  0.0020 -0.5128
   13SAPS   H9R 1650   1.690   5.991   7.300 -0.6835 -1.1273 -1.0063
   13SAPS  C210 1651   1.898   5.930   7.334 -0.3251 -0.3487 -0.1021
   13SAPS  H10R 1652   1.915   5.988   7.427 -3.8018 -1.0602  1.0589
   13SAPS  H10S 1653   1.998   5.937   7.287 -0.4747 -2.0582 -0.7277
   13SAPS  C211 1654   1.866   5.782   7.353  0.2819 -0.2733 -0.2814
   13SAPS  H11R 1655   1.875   5.723   7.261  1.4270  0.0173 -0.3669
   13SAPS  C212 1656   1.835   5.718   7.471  0.0510 -0.7471 -0.9278
   13SAPS  H12R 1657   1.826   5.608   7.476 -0.2622 -0.6986 -0.3771
   13SAPS  C213 1658   1.825   5.782   7.605  0.7760  0.4714 -0.9326
   13SAPS  H13R 1659   1.728   5.750   7.647  1.8560 -1.5220  0.0968
   13SAPS  H13S 1660   1.834   5.892   7.594 -1.2027  0.5678 -1.8387
   13SAPS  C214 1661   1.926   5.741   7.704  0.1122 -0.5790 -0.1740
   13SAPS  H14R 1662   2.002   5.817   7.727 -1.7652  0.8257  1.6180
   13SAPS  C215 1663   1.927   5.634   7.781 -0.5783 -0.2256 -0.5147
   13SAPS  H15R 1664   1.992   5.633   7.870  0.7694 -0.2581 -1.4944
   13SAPS  C216 1665   1.825   5.522   7.777  0.8494 -0.1593 -0.4328
   13SAPS  H16R 1666   1.799   5.491   7.674  1.4551  0.4249 -0.7659
   13SAPS  H16S 1667   1.735   5.541   7.840  1.7020  0.1967  0.7039
   13SAPS  C217 1668   1.877   5.394   7.845  0.0948 -0.5453  0.4295
   13SAPS  H17R 1669   1.798   5.316   7.838 -1.3832  1.0639 -1.1901
   13SAPS  H17S 1670   1.895   5.410   7.953 -0.0382  0.4306  0.3084
   13SAPS  C218 1671   2.012   5.353   7.778  0.3758  0.8516 -0.6098
   13SAPS  H18R 1672   2.054   5.276   7.847 -1.2236  1.9334  1.6663
   13SAPS  H18S 1673   2.083   5.439   7.781 -0.1131  1.2230  2.3413
   13SAPS  C219 1674   1.991   5.288   7.640  0.1037 -0.1241  0.1462
   13SAPS  H19R 1675   1.977   5.363   7.559  0.3617 -0.1937  0.0385
   13SAPS  H19S 1676   1.901   5.222   7.637  0.3667 -0.5459  1.1539
   13SAPS  C220 1677   2.122   5.212   7.595 -0.1350  0.0269  0.8444
   13SAPS  H20R 1678   2.118   5.112   7.642 -0.2995  1.2033  3.3916
   13SAPS  H20S 1679   2.213   5.265   7.631  0.1559  0.3864 -0.3709
   13SAPS  H20T 1680   2.118   5.206   7.484 -0.6233  2.1815  0.7214
   13SAPS   C33 1681   2.834   5.438   6.983  0.8158  0.0666 -0.0600
   13SAPS   H3X 1682   2.902   5.388   6.911  0.5186 -0.2019 -0.1557
   13SAPS   H3Y 1683   2.784   5.364   7.049  0.0093  0.6243 -0.0429
   13SAPS   C34 1684   2.913   5.536   7.079 -0.1487  0.0741 -0.5848
   13SAPS   H4X 1685   2.844   5.589   7.147  1.2602 -0.9395  1.6798
   13SAPS   H4Y 1686   2.975   5.612   7.027 -1.0247  0.9038 -0.4436
   13SAPS   C35 1687   3.001   5.446   7.168 -0.0674  0.5210 -0.2503
   13SAPS   H5X 1688   3.073   5.389   7.106 -1.9992 -3.0229  0.6564
   13SAPS   H5Y 1689   2.936   5.374   7.221  1.6732  0.4203  1.8213
   13SAPS   C36 1690   3.077   5.535   7.259  0.0452 -0.2406 -0.3323
   13SAPS   H6X 1691   3.006   5.579   7.332  0.6502  2.2550 -1.2157
   13SAPS   H6Y 1692   3.118   5.622   7.203 -0.3917 -1.0823 -2.0090
   13SAPS   C37 1693   3.188   5.468   7.338 -0.7279 -0.0633 -0.3574
   13SAPS   H7X 1694   3.281   5.509   7.294  0.2904 -0.6331  1.1933
   13SAPS   H7Y 1695   3.199   5.360   7.316 -2.2115  0.0975 -1.9444
   13SAPS   C38 1696   3.181   5.508   7.491  0.4606  0.0476 -0.1606
   13SAPS   H8X 1697   3.086   5.476   7.539 -0.0264  0.5660 -0.7690
   13SAPS   H8Y 1698   3.192   5.619   7.492 -0.4279  0.1360  0.3148
   13SAPS   C39 1699   3.286   5.442   7.580 -0.5519 -0.1470  0.8217
   13SAPS   H9X 1700   3.389   5.449   7.540 -0.1635 -0.5324  1.7305
   13SAPS   H9Y 1701   3.269   5.333   7.591  0.8863 -0.3096  1.5185
   13SAPS  C310 1702   3.287   5.510   7.723 -0.1695  0.3315 -0.3566
   13SAPS  H10X 1703   3.252   5.615   7.714  0.5004  0.4661 -1.4789
   13SAPS  H10Y 1704   3.388   5.497   7.765 -0.5677 -2.4150 -0.1358
   13SAPS  C311 1705   3.212   5.422   7.831 -0.0972  0.2099 -0.1255
   13SAPS  H11X 1706   3.253   5.318   7.838 -2.1246 -0.4420  3.2022
   13SAPS  H11Y 1707   3.111   5.397   7.792  0.7568 -1.0244 -1.6367
   13SAPS  C312 1708   3.211   5.483   7.973  0.0517  0.2087 -0.5131
   13SAPS  H12X 1709   3.150   5.415   8.035 -0.3955  1.2542  0.2187
   13SAPS  H12Y 1710   3.160   5.582   7.975  0.3173  0.3324  0.0388
   13SAPS  C313 1711   3.354   5.498   8.031 -0.2996  0.2639  0.0852
   13SAPS  H13X 1712   3.386   5.593   7.982 -0.9265 -0.5901 -2.0624
   13SAPS  H13Y 1713   3.415   5.414   7.991 -0.2707  0.4438 -0.2492
   13SAPS  C314 1714   3.371   5.513   8.183  0.4045 -0.1876  0.4992
   13SAPS  H14X 1715   3.280   5.564   8.220 -0.6036 -0.1708 -1.9197
   13SAPS  H14Y 1716   3.458   5.581   8.191  0.2633 -0.0908  1.2956
   13SAPS  C315 1717   3.393   5.384   8.259  0.1838 -0.0589  0.3499
   13SAPS  H15X 1718   3.433   5.411   8.359 -1.3196 -2.6970  1.7293
   13SAPS  H15Y 1719   3.482   5.332   8.217  2.5498  2.0128  2.6079
   13SAPS  C316 1720   3.269   5.295   8.289  0.5722 -0.3796  0.0994
   13SAPS  H16X 1721   3.308   5.210   8.348  1.5484 -0.7012 -0.9802
   13SAPS  H16Y 1722   3.228   5.260   8.192 -3.0893  0.5343  1.2428
   13SAPS  C317 1723   3.165   5.361   8.380  0.2054 -0.1175  0.4768
   13SAPS  H17X 1724   3.126   5.463   8.358  3.0128  1.2383  1.5339
   13SAPS  H17Y 1725   3.233   5.377   8.466 -0.0637 -1.0359  0.8595
   13SAPS  C318 1726   3.053   5.266   8.429 -0.4633  0.0973 -0.0362
   13SAPS  H18X 1727   3.087   5.160   8.425 -1.2364 -0.2429  1.8770
   13SAPS  H18Y 1728   2.961   5.271   8.367  0.4686 -0.2483 -1.4711
   13SAPS  H18Z 1729   3.023   5.280   8.535 -1.0792 -0.7802 -0.0858
   14SAPS     N 1730   2.961   0.889   5.751 -0.2611  0.6777  0.4318
   14SAPS   HN1 1731   2.905   0.817   5.801  0.2260  1.0027  1.4495
   14SAPS   HN2 1732   2.973   0.966   5.820 -1.4493 -1.3062  2.9215
   14SAPS   HN3 1733   2.898   0.925   5.676 -0.7355 -0.5219  0.2472
   14SAPS   C12 1734   3.089   0.845   5.687  0.1667  0.2966  0.7475
   14SAPS  H12A 1735   3.147   0.795   5.763  2.3023  0.5450 -0.6872
   14SAPS   C13 1736   3.072   0.734   5.576  0.8923  0.1221  0.4536
   14SAPS  O13A 1737   2.960   0.670   5.570 -0.0422 -0.0299  0.0619
   14SAPS  O13B 1738   3.173   0.696   5.520 -0.1581  0.1381 -0.8038
   14SAPS   C11 1739   3.176   0.967   5.646  0.0115  0.2583 -0.0138
   14SAPS  H11A 1740   3.111   1.029   5.580  0.1384  1.3378  0.8724
   14SAPS  H11B 1741   3.262   0.928   5.587 -0.3688 -1.0735  0.2974
   14SAPS     P 1742   3.353   1.105   5.780  0.1477  0.1778  0.1960
   14SAPS   O13 1743   3.439   0.995   5.828 -0.6856 -0.3292 -0.5390
   14SAPS   O14 1744   3.403   1.172   5.659  0.1556  0.2540 -0.6578
   14SAPS   O12 1745   3.218   1.034   5.759 -0.6526 -0.3788 -0.0730
   14SAPS   O11 1746   3.319   1.219   5.883 -0.3565 -0.1319 -0.9158
   14SAPS    C1 1747   3.199   1.217   5.954 -0.5328 -0.5486  0.7754
   14SAPS    HA 1748   3.150   1.307   5.913 -0.1030 -1.1881 -1.2277
   14SAPS    HB 1749   3.145   1.120   5.943  0.9038 -1.6138  2.8420
   14SAPS    C2 1750   3.218   1.234   6.103  0.1904 -0.9705 -1.2059
   14SAPS    HS 1751   3.275   1.328   6.117  0.0922 -1.4777  3.1117
   14SAPS   O21 1752   3.296   1.126   6.156 -0.0699 -0.4799  0.3840
   14SAPS   C21 1753   3.428   1.152   6.156  0.2551  0.2982 -0.1960
   14SAPS   O22 1754   3.482   1.248   6.110  0.0999 -0.0654 -0.1330
   14SAPS   C22 1755   3.498   1.035   6.219  0.2051  0.5155  0.4989
   14SAPS   H2R 1756   3.496   0.945   6.153 -2.5627  0.8582  0.0510
   14SAPS   H2S 1757   3.602   1.067   6.238  0.0535 -0.1772  2.6403
   14SAPS    C3 1758   3.081   1.244   6.191 -0.1344  0.2227  0.3110
   14SAPS    HX 1759   3.043   1.140   6.190 -3.2083  1.2903 -0.2689
   14SAPS    HY 1760   3.007   1.310   6.141 -1.8055 -0.6165  1.6062
   14SAPS   O31 1761   3.112   1.298   6.321  0.3363 -0.0745  0.3860
   14SAPS   C31 1762   3.015   1.306   6.407  0.0735  0.3680  0.3954
   14SAPS   O32 1763   2.898   1.277   6.383  0.0203  0.6590  0.0078
   14SAPS   C32 1764   3.071   1.358   6.543  0.8826 -0.6935 -0.4593
   14SAPS   H2X 1765   3.111   1.461   6.530  1.4759 -1.1906 -2.9507
   14SAPS   H2Y 1766   3.162   1.294   6.554  1.6007  0.3430 -0.2849
   14SAPS   C23 1767   3.426   0.997   6.352  0.0245 -0.5701  0.0518
   14SAPS   H3R 1768   3.317   0.977   6.349 -0.2183  0.5815  1.0270
   14SAPS   H3S 1769   3.432   1.083   6.421 -3.0008 -1.8014  1.9599
   14SAPS   C24 1770   3.505   0.880   6.427  0.0768  0.0150 -1.2614
   14SAPS   H4R 1771   3.507   0.801   6.348 -2.9324 -2.7037  1.1816
   14SAPS   H4S 1772   3.452   0.843   6.517  0.6294  1.7759 -0.1960
   14SAPS   C25 1773   3.642   0.904   6.470 -0.2521  0.7196 -0.1940
   14SAPS   H5R 1774   3.715   0.904   6.388  1.0852  0.4353  0.9941
   14SAPS   C26 1775   3.698   0.938   6.586 -0.0226 -0.1686 -0.0507
   14SAPS   H6R 1776   3.808   0.941   6.583  0.1150 -3.1170  0.9447
   14SAPS   C27 1777   3.612   0.969   6.710 -0.5051  0.1773  0.7048
   14SAPS   H7R 1778   3.514   1.015   6.684 -0.0099  0.8235 -0.0679
   14SAPS   H7S 1779   3.661   1.044   6.774 -0.5290 -0.6322  1.6824
   14SAPS   C28 1780   3.573   0.839   6.778 -0.3168  0.2880 -0.7136
   14SAPS   H8R 1781   3.557   0.747   6.720  1.3694 -0.1423 -0.5077
   14SAPS   C29 1782   3.559   0.828   6.914 -0.4033  0.2535 -0.0404
   14SAPS   H9R 1783   3.554   0.725   6.952  0.3010 -0.9042 -2.9353
   14SAPS  C210 1784   3.581   0.936   7.010  0.0366  0.4281 -0.2123
   14SAPS  H10R 1785   3.529   0.914   7.106 -0.9496 -0.0698 -0.8522
   14SAPS  H10S 1786   3.540   1.030   6.967 -0.6894  0.1935 -0.0343
   14SAPS  C211 1787   3.725   0.958   7.043 -0.2972 -0.0053  0.7222
   14SAPS  H11R 1788   3.798   0.894   6.992 -0.9522 -0.4886  0.3793
   14SAPS  C212 1789   3.773   1.061   7.123 -0.2446  0.7299  0.1279
   14SAPS  H12R 1790   3.881   1.078   7.138 -0.1066  0.3782 -0.4655
   14SAPS  C213 1791   3.692   1.167   7.184 -0.7517  0.7637  0.3303
   14SAPS  H13R 1792   3.631   1.214   7.104  2.9001 -0.0846 -3.1210
   14SAPS  H13S 1793   3.760   1.253   7.201 -0.0236  0.6763 -1.9725
   14SAPS  C214 1794   3.617   1.132   7.311 -0.5328 -0.3154 -0.1637
   14SAPS  H14R 1795   3.584   1.027   7.321 -2.6768  0.0707 -2.5881
   14SAPS  C215 1796   3.592   1.211   7.418 -0.6112  0.6067  0.4493
   14SAPS  H15R 1797   3.548   1.173   7.511 -1.3780  2.0531  0.7024
   14SAPS  C216 1798   3.629   1.355   7.426  0.0993 -0.6159  0.4447
   14SAPS  H16R 1799   3.696   1.383   7.342 -1.1472 -1.3560 -0.8248
   14SAPS  H16S 1800   3.688   1.368   7.520  0.0587 -1.2077  0.5535
   14SAPS  C217 1801   3.507   1.457   7.433 -0.4603  0.0504  0.4470
   14SAPS  H17R 1802   3.543   1.549   7.483 -2.4769  0.0531  1.9729
   14SAPS  H17S 1803   3.431   1.408   7.497 -2.0552  2.7671  0.7347
   14SAPS  C218 1804   3.459   1.492   7.295  0.1830  0.1971  0.4246
   14SAPS  H18R 1805   3.448   1.399   7.236 -2.6957  1.1732 -0.7135
   14SAPS  H18S 1806   3.536   1.544   7.233 -0.2382 -0.9743 -1.0946
   14SAPS  C219 1807   3.319   1.577   7.295 -0.2763  0.5381  0.1043
   14SAPS  H19R 1808   3.348   1.682   7.320 -2.0588  0.8421  1.0016
   14SAPS  H19S 1809   3.266   1.517   7.372 -0.3656  0.4428 -0.0329
   14SAPS  C220 1810   3.250   1.582   7.166 -0.9046 -0.3641  0.4284
   14SAPS  H20R 1811   3.263   1.489   7.106  0.8156  0.8653 -1.1655
   14SAPS  H20S 1812   3.297   1.650   7.093 -0.0879 -0.6999  0.6402
   14SAPS  H20T 1813   3.143   1.610   7.158 -1.1879 -1.1825  1.2355
   14SAPS   C33 1814   2.964   1.357   6.655  0.3693  0.0917 -0.0329
   14SAPS   H3X 1815   2.917   1.256   6.660 -0.3759  0.5064  1.6395
   14SAPS   H3Y 1816   2.882   1.421   6.615  0.4446 -1.2807 -2.4684
   14SAPS   C34 1817   3.013   1.428   6.776  0.4319 -0.0411  0.1130
   14SAPS   H4X 1818   3.058   1.525   6.746  2.2742 -0.5523  1.1487
   14SAPS   H4Y 1819   3.106   1.376   6.805  0.1697 -0.9492 -0.6791
   14SAPS   C35 1820   2.905   1.446   6.888 -0.2824 -0.4147 -0.0921
   14SAPS   H5X 1821   2.821   1.498   6.836 -0.7796 -1.6156 -0.5046
   14SAPS   H5Y 1822   2.948   1.505   6.972  0.8220 -0.0352 -0.9164
   14SAPS   C36 1823   2.862   1.310   6.945 -0.0544  0.5243  0.8191
   14SAPS   H6X 1824   2.951   1.244   6.955 -0.4061  0.0704  1.0186
   14SAPS   H6Y 1825   2.793   1.257   6.875  0.2946 -1.4283  1.8954
   14SAPS   C37 1826   2.772   1.317   7.076 -0.0171  0.4141  0.3226
   14SAPS   H7X 1827   2.695   1.236   7.076 -0.0653  0.4005 -2.3224
   14SAPS   H7Y 1828   2.719   1.413   7.062  0.0379  0.3643 -0.2594
   14SAPS   C38 1829   2.853   1.329   7.206 -0.0962 -0.1283 -0.0452
   14SAPS   H8X 1830   2.945   1.387   7.182 -0.0633 -0.2052 -0.1032
   14SAPS   H8Y 1831   2.888   1.229   7.237 -0.8973 -1.1991 -2.5275
   14SAPS   C39 1832   2.778   1.401   7.317  0.2438 -0.0270 -0.5912
   14SAPS   H9X 1833   2.696   1.465   7.279  0.1300 -0.4261 -1.0228
   14SAPS   H9Y 1834   2.856   1.473   7.349  0.4433 -0.3193 -0.4209
   14SAPS  C310 1835   2.742   1.304   7.429  0.5777 -0.7183  0.2985
   14SAPS  H10X 1836   2.817   1.225   7.450  0.8561 -0.6515 -0.4288
   14SAPS  H10Y 1837   2.649   1.255   7.394 -0.0507  0.2645  0.5863
   14SAPS  C311 1838   2.705   1.371   7.566  0.0123  0.4947  0.0467
   14SAPS  H11X 1839   2.628   1.450   7.548 -0.1107  0.3563 -0.0357
   14SAPS  H11Y 1840   2.798   1.417   7.605 -0.9562  2.8787 -0.3727
   14SAPS  C312 1841   2.658   1.264   7.668  0.2391  0.5823  0.0039
   14SAPS  H12X 1842   2.715   1.168   7.668 -1.8344 -0.6903  1.7923
   14SAPS  H12Y 1843   2.550   1.238   7.656 -0.0391  0.6045  2.1978
   14SAPS  C313 1844   2.682   1.310   7.813 -0.1116  0.7693  0.2463
   14SAPS  H13X 1845   2.779   1.363   7.803  0.6447 -0.5037  0.8266
   14SAPS  H13Y 1846   2.702   1.227   7.884 -1.1518 -0.3241 -0.7161
   14SAPS  C314 1847   2.574   1.402   7.854  0.0495  0.2739 -0.4316
   14SAPS  H14X 1848   2.486   1.336   7.867 -0.0973  1.0873  3.2596
   14SAPS  H14Y 1849   2.560   1.473   7.770 -0.0236  2.0796  1.0740
   14SAPS  C315 1850   2.611   1.473   7.987 -0.1929  0.4411 -0.8215
   14SAPS  H15X 1851   2.540   1.559   7.988 -0.9509 -0.1762  1.5433
   14SAPS  H15Y 1852   2.706   1.529   7.999  0.0541 -0.6174  2.7265
   14SAPS  C316 1853   2.583   1.395   8.115 -0.2940  0.4058  0.2554
   14SAPS  H16X 1854   2.645   1.303   8.118 -0.8716  0.0145  0.2587
   14SAPS  H16Y 1855   2.476   1.364   8.122 -1.2842  3.4597 -0.4734
   14SAPS  C317 1856   2.613   1.476   8.237  0.0907 -0.2857 -0.5660
   14SAPS  H17X 1857   2.706   1.536   8.228  0.5919 -0.8896  0.5625
   14SAPS  H17Y 1858   2.631   1.393   8.308  1.4089  0.9920  0.6429
   14SAPS  C318 1859   2.499   1.568   8.293 -0.0507  0.2152  0.2786
   14SAPS  H18X 1860   2.424   1.504   8.343 -0.4979  1.6426  1.4824
   14SAPS  H18Y 1861   2.455   1.632   8.213 -1.0794 -0.7490  0.0624
   14SAPS  H18Z 1862   2.560   1.639   8.353  0.4096  1.4482 -1.5753
   15SAPS     N 1863   3.854   0.753   5.618  0.8345 -0.4122  0.4329
   15SAPS   HN1 1864   3.780   0.794   5.558  1.0303  0.1756  0.5889
   15SAPS   HN2 1865   3.852   0.765   5.722  1.1194  1.2426  0.2676
   15SAPS   HN3 1866   3.931   0.817   5.591 -0.0706  0.7711  0.6155
   15SAPS   C12 1867   3.888   0.605   5.582  0.9365 -0.8351 -0.0153
   15SAPS  H12A 1868   3.796   0.558   5.551  0.0506  0.9500 -0.1821
   15SAPS   C13 1869   3.974   0.590   5.457  0.6504  0.4949  0.1724
   15SAPS  O13A 1870   3.991   0.691   5.381  0.5416 -0.0601 -0.2717
   15SAPS  O13B 1871   4.013   0.472   5.425  0.0259  0.0823  0.4459
   15SAPS   C11 1872   3.965   0.537   5.698 -1.0133 -0.2309  0.6829
   15SAPS  H11A 1873   4.063   0.588   5.710 -0.9582  0.0580 -0.8804
   15SAPS  H11B 1874   4.003   0.435   5.678  1.2619  0.5049  1.0956
   15SAPS     P 1875   3.786   0.436   5.855 -0.0393 -0.1134 -0.3965
   15SAPS   O13 1876   3.662   0.472   5.776 -0.4013  0.2342  0.0573
   15SAPS   O14 1877   3.832   0.300   5.825  0.0788 -0.4214 -0.2228
   15SAPS   O12 1878   3.901   0.542   5.832 -0.2196 -0.4180  0.6381
   15SAPS   O11 1879   3.754   0.456   6.012  0.1384 -0.2625 -0.6052
   15SAPS    C1 1880   3.738   0.594   6.054 -0.3518  0.2962 -0.1132
   15SAPS    HA 1881   3.823   0.659   6.024 -1.6598  0.7708 -2.9341
   15SAPS    HB 1882   3.641   0.633   6.016 -0.0415  1.9715  0.7573
   15SAPS    C2 1883   3.743   0.595   6.210  0.7216  0.8435 -0.0956
   15SAPS    HS 1884   3.725   0.700   6.241  0.6254  0.5236  0.9297
   15SAPS   O21 1885   3.874   0.550   6.260 -0.1602  0.3489  0.2052
   15SAPS   C21 1886   3.971   0.636   6.264 -0.6699 -0.0286 -0.0469
   15SAPS   O22 1887   3.958   0.751   6.234 -0.3722  0.0705 -0.5838
   15SAPS   C22 1888   4.096   0.559   6.315 -0.2746 -0.4936 -0.8270
   15SAPS   H2R 1889   4.065   0.453   6.323  1.7695 -0.9560  1.7294
   15SAPS   H2S 1890   4.171   0.571   6.234 -1.1475  0.9399 -1.4534
   15SAPS    C3 1891   3.632   0.515   6.278 -0.4932 -0.2418  0.5219
   15SAPS    HX 1892   3.638   0.408   6.247  3.3032  0.0425  0.0989
   15SAPS    HY 1893   3.540   0.545   6.223 -1.1587 -1.1588  1.1105
   15SAPS   O31 1894   3.621   0.533   6.420 -0.0899  0.6637 -0.0159
   15SAPS   C31 1895   3.693   0.455   6.501 -1.1745  0.4847  0.7287
   15SAPS   O32 1896   3.757   0.357   6.464 -0.1813 -0.4194  0.6460
   15SAPS   C32 1897   3.676   0.505   6.645 -0.1036  0.1720 -0.2246
   15SAPS   H2X 1898   3.569   0.531   6.659  0.0140  0.9323 -0.6804
   15SAPS   H2Y 1899   3.741   0.592   6.668 -0.1284  0.6881 -2.0350
   15SAPS   C23 1900   4.148   0.627   6.450 -0.2995 -0.2119  0.0232
   15SAPS   H3R 1901   4.134   0.737   6.439 -1.5570 -0.3082  0.5626
   15SAPS   H3S 1902   4.256   0.601   6.462 -0.7594 -1.5731  1.4362
   15SAPS   C24 1903   4.070   0.608   6.585 -0.6725  0.5967  0.1759
   15SAPS   H4R 1904   4.146   0.581   6.662 -0.6853  2.0376  0.7111
   15SAPS   H4S 1905   4.017   0.511   6.571  0.3197  0.2008 -0.8903
   15SAPS   C25 1906   3.991   0.725   6.635  0.0749  0.0169  0.0535
   15SAPS   H5R 1907   3.927   0.769   6.558  1.6998  2.3907  0.0113
   15SAPS   C26 1908   3.996   0.778   6.759 -0.2691  0.1382 -0.2748
   15SAPS   H6R 1909   3.934   0.867   6.776  2.1181  1.4494  2.0132
   15SAPS   C27 1910   4.086   0.735   6.880 -0.4998  0.5697 -0.4968
   15SAPS   H7R 1911   4.145   0.820   6.922 -1.4650  0.2586  1.5364
   15SAPS   H7S 1912   4.161   0.661   6.845 -0.8177  0.8589 -1.8214
   15SAPS   C28 1913   3.997   0.664   6.977  0.3089  0.0471 -0.0821
   15SAPS   H8R 1914   3.928   0.589   6.936  1.4027  0.0168 -1.9401
   15SAPS   C29 1915   3.997   0.675   7.104 -0.4613 -0.2598 -0.3107
   15SAPS   H9R 1916   3.947   0.594   7.158  1.2760 -1.1741 -0.0361
   15SAPS  C210 1917   4.082   0.771   7.189 -0.7694  0.3086 -0.8855
   15SAPS  H10R 1918   4.147   0.834   7.125  0.8447  1.3861  1.7037
   15SAPS  H10S 1919   4.154   0.712   7.251 -0.3560  1.4285 -0.2769
   15SAPS  C211 1920   3.998   0.853   7.285 -0.0148 -0.3580 -0.3066
   15SAPS  H11R 1921   3.898   0.880   7.249  0.4627  0.0573 -1.3335
   15SAPS  C212 1922   4.047   0.901   7.402 -0.3274  0.6818  0.6765
   15SAPS  H12R 1923   3.977   0.960   7.463 -2.1710  1.9861 -2.5736
   15SAPS  C213 1924   4.177   0.854   7.466  1.2156 -0.8055 -0.0915
   15SAPS  H13R 1925   4.195   0.911   7.560  0.6590  2.9702 -2.1672
   15SAPS  H13S 1926   4.253   0.886   7.391 -1.1415  0.6332 -1.9428
   15SAPS  C214 1927   4.185   0.708   7.510  0.1127 -0.4336 -0.3653
   15SAPS  H14R 1928   4.123   0.642   7.449  1.1216 -1.4678 -0.2806
   15SAPS  C215 1929   4.252   0.669   7.624  0.4694 -0.3142  0.0716
   15SAPS  H15R 1930   4.249   0.562   7.649 -2.3740  0.1971  2.1215
   15SAPS  C216 1931   4.345   0.754   7.711  0.1425  0.4238  0.2690
   15SAPS  H16R 1932   4.276   0.802   7.784 -2.7421 -1.4218 -1.1494
   15SAPS  H16S 1933   4.385   0.840   7.653  1.1366  0.3039  0.7761
   15SAPS  C217 1934   4.459   0.676   7.769 -0.7069 -0.4011 -0.1182
   15SAPS  H17R 1935   4.507   0.623   7.685 -2.7034  0.0451 -1.5867
   15SAPS  H17S 1936   4.414   0.596   7.832 -0.2146 -1.6219 -1.3045
   15SAPS  C218 1937   4.563   0.761   7.847  0.2332  0.5750  0.9267
   15SAPS  H18R 1938   4.511   0.785   7.942 -0.6489  3.3275 -0.1957
   15SAPS  H18S 1939   4.596   0.859   7.807  0.9266  0.7485  1.9237
   15SAPS  C219 1940   4.681   0.672   7.895 -0.0914  0.0169  0.9930
   15SAPS  H19R 1941   4.757   0.731   7.952 -1.3533  0.3855  2.3437
   15SAPS  H19S 1942   4.713   0.612   7.808 -0.2340  2.4880 -0.8244
   15SAPS  C220 1943   4.630   0.566   7.998 -0.6455 -0.5732 -0.2072
   15SAPS  H20R 1944   4.556   0.500   7.948  0.1050  0.2004 -2.4132
   15SAPS  H20S 1945   4.575   0.619   8.079  1.8384 -0.1912  1.2743
   15SAPS  H20T 1946   4.717   0.514   8.043 -0.8793 -1.3538 -0.6640
   15SAPS   C33 1947   3.715   0.391   6.748  0.7643 -0.2331 -0.0629
   15SAPS   H3X 1948   3.824   0.370   6.745  0.9573  0.9075 -1.7576
   15SAPS   H3Y 1949   3.661   0.296   6.727  2.1754 -1.1419  0.2900
   15SAPS   C34 1950   3.692   0.444   6.889  1.0239  0.0680 -0.1713
   15SAPS   H4X 1951   3.584   0.463   6.906  1.0974  0.6943 -0.4009
   15SAPS   H4Y 1952   3.753   0.534   6.912  3.5549 -2.1150  2.0220
   15SAPS   C35 1953   3.746   0.349   6.998 -0.0095 -0.8257  0.3870
   15SAPS   H5X 1954   3.854   0.335   6.976 -0.3331 -1.4272 -0.8299
   15SAPS   H5Y 1955   3.695   0.251   6.993 -0.3658 -0.6255  0.0645
   15SAPS   C36 1956   3.710   0.401   7.139  0.0717 -0.4331 -0.1152
   15SAPS   H6X 1957   3.605   0.373   7.159  0.6710 -1.2763  1.9821
   15SAPS   H6Y 1958   3.713   0.512   7.145 -1.1128 -0.2161 -2.8438
   15SAPS   C37 1959   3.794   0.336   7.246  0.3788  0.5759  0.6787
   15SAPS   H7X 1960   3.900   0.350   7.214  0.3836  3.9686  1.9918
   15SAPS   H7Y 1961   3.781   0.226   7.238 -0.4762  0.7334 -0.2074
   15SAPS   C38 1962   3.772   0.379   7.395  0.4156  0.1661  0.1667
   15SAPS   H8X 1963   3.849   0.338   7.464  0.3457 -0.8366 -0.3480
   15SAPS   H8Y 1964   3.689   0.329   7.448  1.1786  0.6281  1.8674
   15SAPS   C39 1965   3.785   0.527   7.416  0.5301 -0.5712 -0.3167
   15SAPS   H9X 1966   3.703   0.584   7.368  0.4945 -0.7375 -0.4545
   15SAPS   H9Y 1967   3.880   0.569   7.375 -0.2383  2.4001  0.8470
   15SAPS  C310 1968   3.781   0.587   7.560 -0.0059 -0.5144  0.2341
   15SAPS  H10X 1969   3.676   0.604   7.593 -0.0289  0.7035 -0.4376
   15SAPS  H10Y 1970   3.822   0.689   7.550 -1.3653  0.2552  2.2968
   15SAPS  C311 1971   3.871   0.522   7.670  0.7490  0.0451  0.1980
   15SAPS  H11X 1972   3.964   0.488   7.620 -0.6794 -1.8059 -1.2685
   15SAPS  H11Y 1973   3.818   0.436   7.717 -0.6316  0.4344 -0.6223
   15SAPS  C312 1974   3.901   0.614   7.788 -0.2232 -0.4924 -0.2584
   15SAPS  H12X 1975   3.806   0.630   7.844 -1.2470 -0.9653 -1.8468
   15SAPS  H12Y 1976   3.936   0.714   7.753 -0.3642  0.2138  1.5183
   15SAPS  C313 1977   4.005   0.544   7.871 -0.4375  0.1135  0.3627
   15SAPS  H13X 1978   4.094   0.522   7.807  0.3483  2.4877  0.5651
   15SAPS  H13Y 1979   3.952   0.460   7.919  1.4759 -1.6391 -0.4882
   15SAPS  C314 1980   4.051   0.636   7.985  0.2218  0.6723 -0.0183
   15SAPS  H14X 1981   3.966   0.653   8.056  1.1434  3.0076  0.5486
   15SAPS  H14Y 1982   4.076   0.736   7.946  1.0886  0.8656  0.9929
   15SAPS  C315 1983   4.178   0.591   8.056 -0.8497  0.2486 -0.4767
   15SAPS  H15X 1984   4.257   0.597   7.979 -0.6650 -0.1399 -0.3174
   15SAPS  H15Y 1985   4.160   0.486   8.087  0.4886  0.4423  1.0255
   15SAPS  C316 1986   4.220   0.681   8.174  0.2467 -0.3672  0.1692
   15SAPS  H16X 1987   4.318   0.637   8.201  0.3033  0.7136  1.8478
   15SAPS  H16Y 1988   4.150   0.690   8.261  1.3286 -2.2364  1.2471
   15SAPS  C317 1989   4.252   0.828   8.130 -0.5735  0.1752  0.1331
   15SAPS  H17X 1990   4.171   0.864   8.063 -0.3964  0.0163 -0.1726
   15SAPS  H17Y 1991   4.345   0.819   8.069  0.2822 -0.0542  1.4444
   15SAPS  C318 1992   4.284   0.935   8.233 -0.2925  0.0387  0.7166
   15SAPS  H18X 1993   4.197   0.958   8.298  1.1529 -0.5880  2.9297
   15SAPS  H18Y 1994   4.309   1.032   8.185  0.0435 -0.6527 -0.5286
   15SAPS  H18Z 1995   4.375   0.910   8.292 -0.1444 -1.3958 -0.0939
   16SAPS     N 1996   5.432   2.419   6.609  0.1736  0.2865  0.4834
   16SAPS   HN1 1997   5.416   2.317   6.600  0.0176  0.3188  0.4038
   16SAPS   HN2 1998   5.516   2.437   6.667  0.4787 -2.9813  1.1802
   16SAPS   HN3 1999   5.348   2.461   6.653 -0.9201  0.0330 -1.3013
   16SAPS   C12 2000   5.467   2.482   6.475 -0.0024  0.3482 -0.4097
   16SAPS  H12A 2001   5.532   2.420   6.415  2.3194  0.2192  2.1934
   16SAPS   C13 2002   5.356   2.507   6.380 -0.3707 -0.3380  0.3856
   16SAPS  O13A 2003   5.236   2.470   6.397 -0.5486 -0.0488  0.5840
   16SAPS  O13B 2004   5.384   2.579   6.279 -0.3219  0.5726  0.0242
   16SAPS   C11 2005   5.537   2.612   6.496  0.4917 -0.6649 -0.1962
   16SAPS  H11A 2006   5.564   2.659   6.399  2.4726  0.6700  0.9658
   16SAPS  H11B 2007   5.635   2.600   6.546 -0.0485 -0.2437  0.9844
   16SAPS     P 2008   5.485   2.856   6.598  0.1202  0.0983 -0.0661
   16SAPS   O13 2009   5.580   2.913   6.500 -0.5458 -0.1375  0.3217
   16SAPS   O14 2010   5.356   2.928   6.612 -0.6091 -0.2794  0.2313
   16SAPS   O12 2011   5.457   2.698   6.571  0.1685 -0.7607  0.0593
   16SAPS   O11 2012   5.567   2.850   6.739  0.4691 -0.2997  0.7060
   16SAPS    C1 2013   5.576   2.737   6.826  0.3440  0.2816 -0.0345
   16SAPS    HA 2014   5.537   2.759   6.928 -1.1035  2.5514 -1.0494
   16SAPS    HB 2015   5.506   2.655   6.798 -0.6854  1.6570 -1.6421
   16SAPS    C2 2016   5.720   2.699   6.858  1.0161 -0.0328 -0.3876
   16SAPS    HS 2017   5.774   2.675   6.763  1.5497  0.8936 -0.3303
   16SAPS   O21 2018   5.732   2.581   6.939 -0.5806 -0.0843  0.1924
   16SAPS   C21 2019   5.689   2.469   6.888 -0.2768  0.4302  0.3683
   16SAPS   O22 2020   5.642   2.456   6.775 -0.3392  0.1520 -0.3593
   16SAPS   C22 2021   5.715   2.350   6.987 -0.2849  0.5595  0.3470
   16SAPS   H2R 2022   5.813   2.366   7.037  0.3936 -1.4142 -0.2928
   16SAPS   H2S 2023   5.638   2.359   7.066  1.4268 -3.6797  2.6567
   16SAPS    C3 2024   5.798   2.815   6.934 -0.4483  0.2260 -0.3940
   16SAPS    HX 2025   5.795   2.908   6.873 -2.4324  0.2357 -0.2946
   16SAPS    HY 2026   5.907   2.792   6.934 -0.0145  2.1344  0.2049
   16SAPS   O31 2027   5.766   2.842   7.073 -0.1719 -0.3233 -0.4513
   16SAPS   C31 2028   5.821   2.950   7.125 -0.0856  0.0923 -0.5652
   16SAPS   O32 2029   5.903   3.025   7.073 -0.0270  0.1285 -0.1024
   16SAPS   C32 2030   5.764   2.965   7.261  0.5047  0.8786 -0.3026
   16SAPS   H2X 2031   5.789   2.870   7.313  2.3316  1.5616  0.1034
   16SAPS   H2Y 2032   5.654   2.956   7.256  0.5333 -2.4719  2.9267
   16SAPS   C23 2033   5.714   2.207   6.917  0.4791 -0.5324 -0.1838
   16SAPS   H3R 2034   5.779   2.193   6.829 -2.8574 -1.9219 -2.5125
   16SAPS   H3S 2035   5.615   2.176   6.879  0.6752  0.0809 -1.2141
   16SAPS   C24 2036   5.745   2.090   7.010  0.1010  1.1250  0.4382
   16SAPS   H4R 2037   5.758   1.993   6.958 -0.5421  1.5703 -0.5506
   16SAPS   H4S 2038   5.660   2.075   7.080  0.7808 -3.4168  0.4083
   16SAPS   C25 2039   5.871   2.108   7.086 -0.3315 -0.4207 -0.4298
   16SAPS   H5R 2040   5.965   2.106   7.029  0.4446  3.2710  0.6003
   16SAPS   C26 2041   5.879   2.120   7.223 -0.1468  0.7214 -0.5686
   16SAPS   H6R 2042   5.978   2.128   7.271 -0.1546 -2.9367  0.1452
   16SAPS   C27 2043   5.763   2.109   7.318 -0.5942 -0.1863 -0.0110
   16SAPS   H7R 2044   5.792   2.064   7.415  0.2133  0.8438  0.2251
   16SAPS   H7S 2045   5.683   2.039   7.285 -1.3339  0.2913  0.7160
   16SAPS   C28 2046   5.707   2.246   7.347  0.2556  0.7720 -0.3087
   16SAPS   H8R 2047   5.650   2.298   7.268  0.7768 -0.6201 -1.6303
   16SAPS   C29 2048   5.725   2.312   7.466  0.2302  0.1739  0.3405
   16SAPS   H9R 2049   5.663   2.402   7.482  1.2183  0.7412  0.9763
   16SAPS  C210 2050   5.795   2.246   7.586 -0.1900 -0.1042 -0.0787
   16SAPS  H10R 2051   5.885   2.193   7.547 -0.0388  1.5962 -2.1521
   16SAPS  H10S 2052   5.732   2.179   7.649 -0.5437  0.0278 -0.2912
   16SAPS  C211 2053   5.847   2.350   7.682 -0.0068  0.6759  0.1805
   16SAPS  H11R 2054   5.951   2.383   7.672 -0.0857  1.4711  1.7786
   16SAPS  C212 2055   5.775   2.403   7.783  0.5468  0.0196  0.8484
   16SAPS  H12R 2056   5.830   2.471   7.850  1.1632  0.3585  0.0008
   16SAPS  C213 2057   5.629   2.371   7.820  0.1324 -0.4045  0.0149
   16SAPS  H13R 2058   5.563   2.362   7.731 -0.5104 -1.3024  0.5729
   16SAPS  H13S 2059   5.581   2.461   7.862 -0.5628 -1.6306  1.8856
   16SAPS  C214 2060   5.605   2.254   7.901  0.8273  1.4798  0.4953
   16SAPS  H14R 2061   5.622   2.157   7.850 -1.8667  0.9045  0.5834
   16SAPS  C215 2062   5.558   2.254   8.030 -0.0006 -0.5605 -0.7138
   16SAPS  H15R 2063   5.532   2.155   8.070 -0.7383  0.1331  0.5570
   16SAPS  C216 2064   5.501   2.380   8.100  0.0271  0.5697  0.0112
   16SAPS  H16R 2065   5.413   2.403   8.036  1.1982  1.3056 -1.3886
   16SAPS  H16S 2066   5.573   2.465   8.098  0.6548  0.0266 -1.6982
   16SAPS  C217 2067   5.454   2.360   8.243 -0.2980 -0.1566 -0.3514
   16SAPS  H17R 2068   5.411   2.461   8.265  0.2842 -0.2894  1.4736
   16SAPS  H17S 2069   5.547   2.350   8.302  1.2551 -0.8323 -2.8717
   16SAPS  C218 2070   5.363   2.242   8.283  0.3396 -0.0813 -0.0438
   16SAPS  H18R 2071   5.430   2.154   8.288 -0.9650 -1.1456 -1.1824
   16SAPS  H18S 2072   5.285   2.212   8.211 -0.5688  0.2921  0.7796
   16SAPS  C219 2073   5.306   2.266   8.421 -0.9447  0.9259  0.0223
   16SAPS  H19R 2074   5.235   2.187   8.452  1.7914 -1.3465  0.6345
   16SAPS  H19S 2075   5.237   2.354   8.418 -1.8172  0.3482  2.0001
   16SAPS  C220 2076   5.411   2.294   8.536  0.3722 -0.2484 -0.4679
   16SAPS  H20R 2077   5.471   2.201   8.532 -1.3811 -1.3670 -2.0572
   16SAPS  H20S 2078   5.377   2.302   8.641  2.4107 -0.2469  0.2051
   16SAPS  H20T 2079   5.488   2.372   8.517  0.7601 -0.2062  1.2348
   16SAPS   C33 2080   5.821   3.082   7.348 -0.2972  0.5476 -0.1204
   16SAPS   H3X 2081   5.800   3.176   7.292  1.4833  0.6992 -0.5739
   16SAPS   H3Y 2082   5.931   3.064   7.351 -0.1835  0.5953 -2.5423
   16SAPS   C34 2083   5.765   3.079   7.496  0.0215  0.2335  0.1160
   16SAPS   H4X 2084   5.799   2.987   7.549 -1.0267  1.4337  2.8997
   16SAPS   H4Y 2085   5.655   3.074   7.500  0.0449  0.8295  1.6660
   16SAPS   C35 2086   5.839   3.172   7.592  0.5140 -0.6233 -0.3348
   16SAPS   H5X 2087   5.823   3.280   7.571 -0.7388 -0.2742  2.2419
   16SAPS   H5Y 2088   5.947   3.154   7.575  0.9750 -1.6311  3.1904
   16SAPS   C36 2089   5.802   3.148   7.740  0.4481  0.5736 -0.3672
   16SAPS   H6X 2090   5.851   3.060   7.787 -1.2518  0.7535  1.8424
   16SAPS   H6Y 2091   5.692   3.132   7.745  0.3997  1.3793  1.8883
   16SAPS   C37 2092   5.846   3.256   7.840 -0.0241 -1.1152  0.2723
   16SAPS   H7X 2093   5.828   3.352   7.787 -2.3224 -1.2740  0.7100
   16SAPS   H7Y 2094   5.957   3.250   7.840  0.2170  1.9342 -0.8526
   16SAPS   C38 2095   5.796   3.261   7.988 -0.5458  0.2462  0.4178
   16SAPS   H8X 2096   5.685   3.255   7.998 -0.5048  0.0046  0.7105
   16SAPS   H8Y 2097   5.826   3.357   8.035  2.8551 -0.3420 -0.4599
   16SAPS   C39 2098   5.855   3.150   8.072 -0.4345  0.1028  0.5185
   16SAPS   H9X 2099   5.965   3.152   8.064 -0.2972  0.6072  2.4448
   16SAPS   H9Y 2100   5.812   3.051   8.044 -0.5091  0.4914 -0.8155
   16SAPS  C310 2101   5.823   3.189   8.219 -0.0503 -0.1159 -0.6733
   16SAPS  H10X 2102   5.714   3.200   8.239 -0.1227  0.6625 -1.4658
   16SAPS  H10Y 2103   5.867   3.291   8.231  0.6463 -0.4691 -0.1776
   16SAPS  C311 2104   5.904   3.103   8.324  0.3339 -0.8788 -0.2924
   16SAPS  H11X 2105   6.007   3.123   8.287 -0.0393  2.3069  0.2459
   16SAPS  H11Y 2106   5.880   2.996   8.302 -0.8118 -0.5587 -0.6206
   16SAPS  C312 2107   5.910   3.141   8.470  0.1463 -0.7130  0.2438
   16SAPS  H12X 2108   5.976   3.231   8.470  0.6121 -1.0130 -2.2318
   16SAPS  H12Y 2109   5.959   3.058   8.524  0.2621 -0.8769 -0.1132
   16SAPS  C313 2110   5.765   3.160   8.528 -0.1582 -0.2569  0.1806
   16SAPS  H13X 2111   5.714   3.061   8.527 -1.5878  0.4552 -0.9320
   16SAPS  H13Y 2112   5.712   3.241   8.474  3.0667  1.8245  0.0581
   16SAPS  C314 2113   5.762   3.196   8.672  0.4655  0.7664  1.2066
   16SAPS  H14X 2114   5.794   3.302   8.679 -1.1216  1.4684 -1.5991
   16SAPS  H14Y 2115   5.827   3.131   8.735  2.4010  0.3545 -1.1410
   16SAPS  C315 2116   5.619   3.188   8.743 -0.0151 -0.0216 -0.1124
   16SAPS  H15X 2117   5.576   3.087   8.732 -0.5520  0.1377  0.5049
   16SAPS  H15Y 2118   5.553   3.241   8.672  1.0628  1.3168 -0.1437
   16SAPS  C316 2119   5.616   3.243   8.882  0.6304 -0.6314 -0.4038
   16SAPS  H16X 2120   5.696   3.206   8.950 -1.5152 -2.0430  1.3894
   16SAPS  H16Y 2121   5.522   3.204   8.925  0.8158 -2.4017 -1.5400
   16SAPS  C317 2122   5.615   3.400   8.894  0.3006  0.2267 -0.0346
   16SAPS  H17X 2123   5.709   3.438   8.849  0.3939  0.2997  0.2199
   16SAPS  H17Y 2124   5.613   3.425   9.003 -1.3121  2.3461 -0.5265
   16SAPS  C318 2125   5.495   3.474   8.829  0.0841 -1.2676 -1.3076
   16SAPS  H18X 2126   5.523   3.581   8.824  0.1278 -1.2408 -0.5762
   16SAPS  H18Y 2127   5.400   3.465   8.886  1.1327  0.7177  0.8290
   16SAPS  H18Z 2128   5.486   3.442   8.723  1.3209  0.3751 -1.9323
   17SAPC     N 2129   3.007   6.194  10.639  0.3326  0.4447 -0.0492
   17SAPC   C12 2130   3.010   6.158  10.490  0.6928 -0.9297 -0.0715
   17SAPC  H12A 2131   3.091   6.087  10.476  1.6772  0.1932 -0.1918
   17SAPC  H12B 2132   3.039   6.247  10.436  1.0254  1.1568  3.4678
   17SAPC   C13 2133   3.141   6.251  10.664  0.5420 -0.0916 -0.1387
   17SAPC  H13A 2134   3.208   6.167  10.673 -1.1660 -1.2837  2.1224
   17SAPC  H13B 2135   3.173   6.320  10.587 -0.4606 -1.3767 -1.7250
   17SAPC  H13C 2136   3.148   6.311  10.754  0.2525  0.7937 -0.6959
   17SAPC   C14 2137   2.898   6.295  10.675  0.4632  0.3239  0.3313
   17SAPC  H14A 2138   2.903   6.392  10.626  1.2686  0.5584  0.8666
   17SAPC  H14B 2139   2.801   6.250  10.659  1.6315 -1.8835 -0.8886
   17SAPC  H14C 2140   2.912   6.320  10.779 -0.6916 -0.1469  0.6035
   17SAPC   C15 2141   2.985   6.075  10.727 -0.2465  0.2305  0.3068
   17SAPC  H15A 2142   3.063   6.000  10.716  0.1881  1.1074 -3.0987
   17SAPC  H15B 2143   2.981   6.095  10.833 -1.1813  2.0019 -0.0537
   17SAPC  H15C 2144   2.899   6.016  10.701  0.3264  0.1773 -1.5459
   17SAPC   C11 2145   2.879   6.105  10.440  0.6537 -0.0362 -0.0183
   17SAPC  H11A 2146   2.846   6.026  10.511  2.8256  0.2756  1.3906
   17SAPC  H11B 2147   2.881   6.047  10.345  0.1719  1.3966 -0.9107
   17SAPC     P 2148   2.763   6.316  10.328  0.0312  0.0234  0.4656
   17SAPC   O13 2149   2.621   6.357  10.330 -0.2655 -1.0054 -0.0117
   17SAPC   O14 2150   2.869   6.420  10.345  0.0001  0.0325 -0.3044
   17SAPC   O12 2151   2.778   6.205  10.430  0.0621  0.2164  0.0514
   17SAPC   O11 2152   2.799   6.245  10.193  0.0156  0.1026 -0.1241
   17SAPC    C1 2153   2.695   6.186  10.108 -0.0973  0.5763 -0.1250
   17SAPC    HA 2154   2.601   6.244  10.102 -0.8233 -0.5188  0.5474
   17SAPC    HB 2155   2.730   6.170  10.003 -0.4038  0.6984 -0.2469
   17SAPC    C2 2156   2.659   6.039  10.152  0.1583 -0.2772  0.5313
   17SAPC    HS 2157   2.639   6.039  10.261 -0.4350 -1.9515  0.4361
   17SAPC   O21 2158   2.770   5.952  10.111 -0.2953 -0.5318 -0.5162
   17SAPC   C21 2159   2.760   5.830  10.144  0.0592  0.3471  0.1832
   17SAPC   O22 2160   2.690   5.780  10.232  0.3652  0.2562  0.0644
   17SAPC   C22 2161   2.858   5.755  10.051  0.6469  0.0619 -0.8957
   17SAPC   H2R 2162   2.859   5.805   9.951 -0.9910  3.0608  0.5166
   17SAPC   H2S 2163   2.957   5.766  10.101  1.4532 -1.2001 -2.1726
   17SAPC    C3 2164   2.535   5.993  10.064 -0.2124  0.5225  0.8270
   17SAPC    HX 2165   2.445   6.050  10.092 -0.7566 -1.0765  2.4734
   17SAPC    HY 2166   2.499   5.892  10.094 -0.9276 -0.0531 -1.8572
   17SAPC   O31 2167   2.532   6.028   9.921 -0.0440 -0.3042 -0.7493
   17SAPC   C31 2168   2.525   5.918   9.834  0.6214 -0.5696  0.2704
   17SAPC   O32 2169   2.553   5.802   9.869 -0.0973  0.3972  0.2026
   17SAPC   C32 2170   2.499   5.968   9.699 -0.3492  0.8260  0.5175
   17SAPC   H2X 2171   2.581   6.041   9.682 -1.1270  1.7626  0.7496
   17SAPC   H2Y 2172   2.404   6.025   9.697 -1.0413 -0.2905  0.8990
   17SAPC   C23 2173   2.842   5.597  10.031  0.0858 -0.4107  0.6657
   17SAPC   H3R 2174   2.736   5.566  10.041 -0.3283  0.7110 -0.1582
   17SAPC   H3S 2175   2.889   5.554  10.122 -1.3181 -1.0322  1.1217
   17SAPC   C24 2176   2.915   5.537   9.909 -0.2250  0.2154 -0.0342
   17SAPC   H4R 2177   2.919   5.426   9.914 -1.4368  0.0786 -1.7266
   17SAPC   H4S 2178   3.018   5.578   9.909 -0.8324  1.7652  0.1063
   17SAPC   C25 2179   2.838   5.574   9.783 -0.0585  0.1939  0.2559
   17SAPC   H5R 2180   2.831   5.684   9.775  1.7110  0.4030  1.2181
   17SAPC   C26 2181   2.796   5.497   9.682 -0.5697  0.3706 -0.3363
   17SAPC   H6R 2182   2.746   5.544   9.596 -1.9157 -2.2503 -1.0185
   17SAPC   C27 2183   2.816   5.354   9.674 -0.7501 -0.0542  0.8677
   17SAPC   H7R 2184   2.734   5.315   9.610  0.0998  1.5113 -1.2381
   17SAPC   H7S 2185   2.809   5.302   9.772 -1.5074 -0.1597  0.7612
   17SAPC   C28 2186   2.954   5.319   9.617 -0.5870  0.1163  0.2105
   17SAPC   H8R 2187   3.041   5.358   9.671 -0.1043 -0.0330 -0.4563
   17SAPC   C29 2188   2.981   5.254   9.500 -0.1701  0.3462  0.4468
   17SAPC   H9R 2189   3.086   5.261   9.471 -0.2399 -0.0359  0.1012
   17SAPC  C210 2190   2.885   5.192   9.401  0.2694  0.6807 -0.0147
   17SAPC  H10R 2191   2.784   5.192   9.448  0.3356 -1.4552  0.1772
   17SAPC  H10S 2192   2.897   5.084   9.378  1.8149  0.8759 -0.2008
   17SAPC  C211 2193   2.882   5.271   9.271  0.3197  0.3373 -0.7237
   17SAPC  H11R 2194   2.876   5.380   9.285  2.2617  0.5365 -1.2009
   17SAPC  C212 2195   2.887   5.210   9.148 -0.3563  0.1844  0.3772
   17SAPC  H12R 2196   2.869   5.274   9.061  0.8306  0.5209  0.3714
   17SAPC  C213 2197   2.898   5.061   9.115 -0.2887  0.5917 -0.2364
   17SAPC  H13R 2198   2.800   5.008   9.112  0.2359 -0.4407  0.4065
   17SAPC  H13S 2199   2.950   5.003   9.195 -0.1523 -3.1210 -2.9026
   17SAPC  C214 2200   2.973   5.035   8.988  0.3464  1.1819 -0.6386
   17SAPC  H14R 2201   3.079   5.060   9.004  0.6604  0.2715 -1.2288
   17SAPC  C215 2202   2.926   5.007   8.862  0.3935  0.2049  0.1473
   17SAPC  H15R 2203   3.002   5.005   8.783  1.2614  0.1812  0.9693
   17SAPC  C216 2204   2.788   4.993   8.813  0.4014 -0.2628 -0.3611
   17SAPC  H16R 2205   2.722   5.046   8.884  0.4844 -1.9860  1.0202
   17SAPC  H16S 2206   2.767   4.884   8.818 -0.9823 -0.1864 -3.0527
   17SAPC  C217 2207   2.767   5.049   8.678  0.9008  0.0701 -0.5753
   17SAPC  H17R 2208   2.828   5.004   8.597 -0.2057 -0.6750 -1.0017
   17SAPC  H17S 2209   2.787   5.158   8.671  1.6307 -0.0753 -0.7561
   17SAPC  C218 2210   2.619   5.044   8.641 -0.0055  0.2583  0.1958
   17SAPC  H18R 2211   2.557   5.116   8.699 -0.2165  0.4479 -0.2606
   17SAPC  H18S 2212   2.579   4.946   8.677  0.5831 -0.3427 -0.7602
   17SAPC  C219 2213   2.602   5.044   8.488  0.5858 -0.3803 -0.8870
   17SAPC  H19R 2214   2.672   4.967   8.449 -0.0227 -0.0441 -2.7282
   17SAPC  H19S 2215   2.636   5.135   8.433  0.4870  0.2123  0.0259
   17SAPC  C220 2216   2.460   5.001   8.441 -0.0120  0.4292  0.0399
   17SAPC  H20R 2217   2.419   4.899   8.457  3.4671 -0.9155  0.6914
   17SAPC  H20S 2218   2.454   5.012   8.330 -2.4562  0.1989  0.1096
   17SAPC  H20T 2219   2.378   5.066   8.479  0.2323 -0.8603  2.9018
   17SAPC   C33 2220   2.507   5.860   9.593  0.2560 -0.3787 -0.5244
   17SAPC   H3X 2221   2.421   5.791   9.600  0.9911 -1.3471 -0.8671
   17SAPC   H3Y 2222   2.600   5.802   9.611 -0.3080 -0.5615  1.9824
   17SAPC   C34 2223   2.493   5.923   9.454 -0.1168  0.6386  0.6306
   17SAPC   H4X 2224   2.583   5.983   9.432  1.3767 -1.6900  0.1647
   17SAPC   H4Y 2225   2.396   5.976   9.449 -0.0803  0.7643  1.2281
   17SAPC   C35 2226   2.459   5.811   9.351  0.4960  0.4873  0.3554
   17SAPC   H5X 2227   2.367   5.762   9.388 -0.6266  0.1843 -2.7368
   17SAPC   H5Y 2228   2.547   5.743   9.353 -1.8402 -2.6102  0.0944
   17SAPC   C36 2229   2.449   5.866   9.205 -0.6012  0.0900  0.3909
   17SAPC   H6X 2230   2.517   5.953   9.194 -0.1080 -0.4709 -1.2076
   17SAPC   H6Y 2231   2.351   5.918   9.192 -1.4330 -1.6874 -0.7940
   17SAPC   C37 2232   2.472   5.763   9.097 -0.3145  0.0889 -0.1958
   17SAPC   H7X 2233   2.583   5.757   9.089 -0.4086  0.6041 -2.0415
   17SAPC   H7Y 2234   2.439   5.811   9.002  1.3014 -0.2111 -0.9289
   17SAPC   C38 2235   2.424   5.616   9.117 -0.1614 -0.4922  0.3050
   17SAPC   H8X 2236   2.318   5.637   9.145  0.0810  0.0449  0.8334
   17SAPC   H8Y 2237   2.493   5.571   9.191  0.4294  0.9719  0.6690
   17SAPC   C39 2238   2.419   5.540   8.981 -0.3099 -0.2748 -0.7835
   17SAPC   H9X 2239   2.526   5.542   8.951 -0.1102  0.3250 -0.0636
   17SAPC   H9Y 2240   2.366   5.612   8.914 -0.1728  0.5115 -0.0582
   17SAPC  C310 2241   2.342   5.402   8.980 -0.2661 -0.2434 -0.0554
   17SAPC  H10X 2242   2.316   5.373   8.876  1.7230 -0.3738 -0.5376
   17SAPC  H10Y 2243   2.244   5.429   9.024 -0.5981  0.6530 -1.3313
   17SAPC  C311 2244   2.421   5.289   9.060  0.2669 -0.9368 -0.0338
   17SAPC  H11X 2245   2.404   5.296   9.169  3.0498 -0.2784  0.3795
   17SAPC  H11Y 2246   2.527   5.303   9.032 -0.4979  2.3143 -1.6197
   17SAPC  C312 2247   2.386   5.144   9.016 -0.2915 -0.7839 -0.4122
   17SAPC  H12X 2248   2.434   5.071   9.085  2.8709  0.6136 -1.0415
   17SAPC  H12Y 2249   2.439   5.131   8.919  0.7245 -0.8609  0.1383
   17SAPC  C313 2250   2.239   5.113   9.003  0.9239  1.0387 -0.5915
   17SAPC  H13X 2251   2.221   5.011   8.962 -1.2205  1.5501 -0.9712
   17SAPC  H13Y 2252   2.184   5.181   8.935  1.9393  0.7493 -1.7381
   17SAPC  C314 2253   2.165   5.116   9.138  0.6891  0.4049  0.9966
   17SAPC  H14X 2254   2.158   5.224   9.161 -0.6802  0.5322 -0.0149
   17SAPC  H14Y 2255   2.214   5.074   9.229 -0.1587 -1.5975  0.5639
   17SAPC  C315 2256   2.023   5.054   9.131 -0.3317  0.5269 -0.2773
   17SAPC  H15X 2257   1.975   5.076   9.229  1.7930  3.3625  0.1925
   17SAPC  H15Y 2258   2.031   4.943   9.132  0.4914  0.5661  2.1856
   17SAPC  C316 2259   1.929   5.110   9.025  0.1352  0.5324  0.7927
   17SAPC  H16X 2260   1.953   5.085   8.919 -1.8711  2.5335 -0.1825
   17SAPC  H16Y 2261   1.917   5.218   9.049  0.7258  0.3163  2.1098
   17SAPC  C317 2262   1.789   5.066   9.047 -0.3332  0.7751 -0.3643
   17SAPC  H17X 2263   1.762   5.101   9.149 -1.0379  0.7631 -0.5410
   17SAPC  H17Y 2264   1.767   4.957   9.048 -1.1202  0.9194  1.9675
   17SAPC  C318 2265   1.689   5.143   8.946  0.8279 -0.2739  0.6274
   17SAPC  H18X 2266   1.710   5.251   8.955  1.0005 -0.2877  0.3897
   17SAPC  H18Y 2267   1.717   5.117   8.842  0.9713 -0.9883  0.8406
   17SAPC  H18Z 2268   1.588   5.113   8.983  1.6395 -1.3688  2.0215
   18SAPC     N 2269   3.619   6.032  10.861  0.0025 -0.1948  0.2878
   18SAPC   C12 2270   3.600   5.896  10.792  0.1521 -0.3855 -0.7851
   18SAPC  H12A 2271   3.509   5.845  10.821  0.1462 -0.2038 -0.4811
   18SAPC  H12B 2272   3.675   5.827  10.827 -0.1634  0.8200  2.4348
   18SAPC   C13 2273   3.500   6.123  10.847 -0.1709  0.3912 -0.1221
   18SAPC  H13A 2274   3.407   6.075  10.873  0.1839  0.3191  1.0410
   18SAPC  H13B 2275   3.513   6.211  10.908 -1.1582 -2.1169  3.8310
   18SAPC  H13C 2276   3.494   6.137  10.740  2.4821  0.3262 -0.3124
   18SAPC   C14 2277   3.634   6.003  11.010  0.6534 -0.0237  0.2527
   18SAPC  H14A 2278   3.619   6.089  11.072  2.7824  0.5210  0.0532
   18SAPC  H14B 2279   3.572   5.929  11.057 -1.3865  1.6782  0.2796
   18SAPC  H14C 2280   3.738   5.974  11.023  1.1851  1.7085 -0.0360
   18SAPC   C15 2281   3.747   6.107  10.808  0.2268  0.0759 -0.2675
   18SAPC  H15A 2282   3.836   6.048  10.825  0.0532 -0.7424 -2.1268
   18SAPC  H15B 2283   3.728   6.119  10.702 -0.8008 -1.4472 -0.2710
   18SAPC  H15C 2284   3.759   6.203  10.857 -0.0816  0.1395 -0.3166
   18SAPC   C11 2285   3.603   5.884  10.633  0.3077 -0.0551 -0.5737
   18SAPC  H11A 2286   3.604   5.777  10.603  2.1022  0.1744 -1.3956
   18SAPC  H11B 2287   3.698   5.918  10.587  1.4954 -1.0696  1.0671
   18SAPC     P 2288   3.341   5.900  10.594 -0.3329  0.2386  0.0986
   18SAPC   O13 2289   3.289   5.971  10.710 -0.5846 -0.1056  0.0577
   18SAPC   O14 2290   3.269   5.924  10.469 -0.1483  0.4765 -0.0068
   18SAPC   O12 2291   3.488   5.942  10.573  0.2805  0.1900 -0.3950
   18SAPC   O11 2292   3.351   5.739  10.621 -0.6654  0.0990  0.0912
   18SAPC    C1 2293   3.235   5.651  10.626 -0.1142  0.1005 -0.1083
   18SAPC    HA 2294   3.235   5.591  10.720  2.3088  0.9782  0.4865
   18SAPC    HB 2295   3.137   5.702  10.616 -0.0874  0.0145 -0.8206
   18SAPC    C2 2296   3.257   5.539  10.524 -1.0873  0.3550  0.6648
   18SAPC    HS 2297   3.343   5.477  10.558 -0.4103 -0.1248 -1.8178
   18SAPC   O21 2298   3.288   5.595  10.393 -0.8017 -0.0562 -0.2725
   18SAPC   C21 2299   3.417   5.599  10.354 -0.2027  0.2871  0.8288
   18SAPC   O22 2300   3.512   5.548  10.414 -0.1099 -0.3176 -0.1476
   18SAPC   C22 2301   3.426   5.670  10.211 -0.8505  0.0853  0.9126
   18SAPC   H2R 2302   3.393   5.775  10.226  1.0445  1.2265 -2.4855
   18SAPC   H2S 2303   3.532   5.654  10.182 -0.6361 -1.7072  2.5752
   18SAPC    C3 2304   3.130   5.445  10.520 -0.0665 -0.4529  0.0026
   18SAPC    HX 2305   3.047   5.511  10.488  0.8482  0.7088 -0.0062
   18SAPC    HY 2306   3.108   5.408  10.622  0.4370  0.3473  0.4102
   18SAPC   O31 2307   3.154   5.336  10.426 -0.1710 -0.4189 -0.1368
   18SAPC   C31 2308   3.103   5.341  10.306  0.4144 -1.2611  0.9908
   18SAPC   O32 2309   3.013   5.418  10.272 -0.7086  0.2662 -0.1949
   18SAPC   C32 2310   3.176   5.244  10.211  0.5582  0.1207 -0.3230
   18SAPC   H2X 2311   3.227   5.167  10.272 -0.4970 -0.4417 -0.1369
   18SAPC   H2Y 2312   3.251   5.302  10.153  2.0582  2.5489  3.7322
   18SAPC   C23 2313   3.346   5.602  10.095 -0.1337 -0.3834 -0.4208
   18SAPC   H3R 2314   3.271   5.671  10.050 -0.1760 -1.7826 -2.5875
   18SAPC   H3S 2315   3.287   5.520  10.140  0.9451  0.2148  2.1615
   18SAPC   C24 2316   3.437   5.537   9.985 -0.1261 -0.3802  0.0638
   18SAPC   H4R 2317   3.526   5.484  10.024  0.3247 -0.2015 -0.7239
   18SAPC   H4S 2318   3.473   5.623   9.924  0.6649 -0.2417  0.7311
   18SAPC   C25 2319   3.363   5.440   9.895  0.0165  0.7058 -0.0990
   18SAPC   H5R 2320   3.387   5.333   9.904 -0.4507  0.5929 -0.1932
   18SAPC   C26 2321   3.289   5.465   9.782 -0.0122 -0.2243 -0.9508
   18SAPC   H6R 2322   3.246   5.378   9.730 -2.4395  0.4231 -0.0739
   18SAPC   C27 2323   3.264   5.601   9.719  0.1317  0.4865 -0.5591
   18SAPC   H7R 2324   3.274   5.680   9.796  2.4892 -1.0271  0.7682
   18SAPC   H7S 2325   3.170   5.601   9.660 -0.0443 -0.6152 -0.2811
   18SAPC   C28 2326   3.377   5.626   9.622 -0.3669  0.2736  0.1273
   18SAPC   H8R 2327   3.466   5.681   9.655  0.6790  0.2081 -2.4221
   18SAPC   C29 2328   3.390   5.572   9.499 -0.7111 -0.4499  0.6535
   18SAPC   H9R 2329   3.476   5.599   9.437  0.2827 -1.4844  1.5777
   18SAPC  C210 2330   3.294   5.482   9.434  0.2624  0.2036 -0.4169
   18SAPC  H10R 2331   3.244   5.530   9.346  0.4727  0.7489 -0.2450
   18SAPC  H10S 2332   3.222   5.452   9.513 -0.8218  1.8865 -0.7295
   18SAPC  C211 2333   3.356   5.350   9.393 -0.0881  0.2770  0.2148
   18SAPC  H11R 2334   3.391   5.283   9.473  2.1856  1.3673  0.1486
   18SAPC  C212 2335   3.390   5.314   9.269  0.6656  0.5970  0.1914
   18SAPC  H12R 2336   3.435   5.216   9.246  1.0565  0.6149  0.8773
   18SAPC  C213 2337   3.374   5.399   9.149  0.0497 -0.1515 -0.1311
   18SAPC  H13R 2338   3.471   5.406   9.097  1.0207 -0.9253  1.5147
   18SAPC  H13S 2339   3.335   5.500   9.174 -0.7491 -0.6071  0.5123
   18SAPC  C214 2340   3.269   5.337   9.055  0.2157 -1.2785 -0.0713
   18SAPC  H14R 2341   3.197   5.267   9.099  0.1891 -0.0961  1.8181
   18SAPC  C215 2342   3.269   5.357   8.921 -0.1516  0.1301  0.2285
   18SAPC  H15R 2343   3.190   5.295   8.877 -0.9685  0.1630  1.6004
   18SAPC  C216 2344   3.357   5.448   8.834 -0.2234 -0.0291  0.5713
   18SAPC  H16R 2345   3.443   5.485   8.894  0.8555 -1.9273  0.2257
   18SAPC  H16S 2346   3.300   5.536   8.797 -0.1483 -0.5681 -0.8291
   18SAPC  C217 2347   3.415   5.375   8.705 -0.3848 -0.0339 -0.7957
   18SAPC  H17R 2348   3.474   5.452   8.651  1.4890 -0.1887  0.9522
   18SAPC  H17S 2349   3.329   5.340   8.645 -0.5680 -2.7953  0.9770
   18SAPC  C218 2350   3.504   5.257   8.750  0.0542 -0.4930  0.9257
   18SAPC  H18R 2351   3.433   5.179   8.784  0.9198 -2.0280 -0.6731
   18SAPC  H18S 2352   3.559   5.287   8.841  1.2445 -0.2184  0.1387
   18SAPC  C219 2353   3.589   5.199   8.630 -0.2411 -0.2386 -0.4360
   18SAPC  H19R 2354   3.532   5.202   8.535  0.4148 -2.6109 -0.9483
   18SAPC  H19S 2355   3.610   5.092   8.653 -1.4891 -0.1010  1.4482
   18SAPC  C220 2356   3.728   5.260   8.621  0.1996  0.3498 -0.2911
   18SAPC  H20R 2357   3.758   5.307   8.717 -1.0442  0.9989 -0.2061
   18SAPC  H20S 2358   3.747   5.335   8.541 -0.4474  1.2156  0.3660
   18SAPC  H20T 2359   3.806   5.181   8.609  2.6095  2.0862  2.9630
   18SAPC   C33 2360   3.080   5.172  10.115 -0.0543 -0.4343 -0.1513
   18SAPC   H3X 2361   3.021   5.244  10.055  2.9473  0.9364 -1.5547
   18SAPC   H3Y 2362   3.006   5.106  10.166 -0.6068 -1.8517 -2.6478
   18SAPC   C34 2363   3.155   5.085  10.014 -0.0981  0.3753 -0.3969
   18SAPC   H4X 2364   3.196   4.991  10.056  0.5146  1.1541  0.7933
   18SAPC   H4Y 2365   3.240   5.147   9.977  0.1143  0.2393 -0.1437
   18SAPC   C35 2366   3.063   5.058   9.885  0.0663  0.5924 -0.5227
   18SAPC   H5X 2367   3.007   5.149   9.856 -1.7856  0.1148  1.4156
   18SAPC   H5Y 2368   2.974   5.001   9.921  0.0033  2.1526  1.8855
   18SAPC   C36 2369   3.129   4.976   9.775  0.2812  0.1514 -0.0098
   18SAPC   H6X 2370   3.151   4.876   9.819  0.6695 -0.2657 -1.1387
   18SAPC   H6Y 2371   3.226   5.018   9.744  0.3877  1.7796  2.4166
   18SAPC   C37 2372   3.030   4.942   9.668  0.3540  0.1217 -0.0423
   18SAPC   H7X 2373   2.987   5.033   9.621  1.5505  0.4811 -0.4609
   18SAPC   H7Y 2374   2.945   4.894   9.720 -0.6497 -0.1572 -1.9286
   18SAPC   C38 2375   3.088   4.844   9.569  0.6842  0.1588 -0.1216
   18SAPC   H8X 2376   3.002   4.798   9.515  1.0054 -0.1402 -0.3726
   18SAPC   H8Y 2377   3.140   4.766   9.628 -1.1911 -1.2364 -0.2693
   18SAPC   C39 2378   3.196   4.907   9.475  0.3891  0.0686 -0.2159
   18SAPC   H9X 2379   3.284   4.913   9.542  0.8655  0.6652 -0.8896
   18SAPC   H9Y 2380   3.156   5.002   9.432  0.2723 -0.1995 -0.7045
   18SAPC  C310 2381   3.218   4.817   9.359 -0.1941 -0.8369  0.5838
   18SAPC  H10X 2382   3.122   4.817   9.304  0.3652 -2.0358 -0.4307
   18SAPC  H10Y 2383   3.228   4.711   9.391  0.1449 -0.7862  0.6539
   18SAPC  C311 2384   3.333   4.863   9.271 -0.3245  1.2341  0.4657
   18SAPC  H11X 2385   3.428   4.862   9.329  0.0192  0.9163 -0.0984
   18SAPC  H11Y 2386   3.321   4.965   9.228 -2.5074  0.5259 -0.6652
   18SAPC  C312 2387   3.362   4.758   9.160  0.2163  0.8589  0.1108
   18SAPC  H12X 2388   3.349   4.661   9.214 -0.7329 -1.5364 -4.1647
   18SAPC  H12Y 2389   3.467   4.760   9.122  0.0596 -4.5358 -1.0787
   18SAPC  C313 2390   3.256   4.755   9.041 -0.0778  0.5257  0.2899
   18SAPC  H13X 2391   3.198   4.850   9.044  0.4649  0.8859 -0.5614
   18SAPC  H13Y 2392   3.181   4.675   9.056 -0.6854  1.2524  1.1492
   18SAPC  C314 2393   3.332   4.738   8.913 -0.6045  0.4489  0.2863
   18SAPC  H14X 2394   3.399   4.649   8.922 -1.1486 -0.0427 -0.4935
   18SAPC  H14Y 2395   3.397   4.826   8.893  1.1921 -0.8288  0.3530
   18SAPC  C315 2396   3.247   4.718   8.787  0.0014 -0.1041  0.3646
   18SAPC  H15X 2397   3.312   4.698   8.699  1.1697 -1.2959  1.4615
   18SAPC  H15Y 2398   3.201   4.818   8.773  1.9400  0.5921 -1.3158
   18SAPC  C316 2399   3.133   4.616   8.792  0.5914 -0.2309  0.2428
   18SAPC  H16X 2400   3.053   4.645   8.863  1.0751  0.1005  0.6587
   18SAPC  H16Y 2401   3.174   4.520   8.831  0.9872  0.6772  2.1155
   18SAPC  C317 2402   3.070   4.596   8.650  0.2592  0.0928 -0.0282
   18SAPC  H17X 2403   3.042   4.696   8.610  1.7258  0.6613  0.3366
   18SAPC  H17Y 2404   2.977   4.538   8.667 -0.1904  1.1897  1.3952
   18SAPC  C318 2405   3.164   4.532   8.551 -0.8533  0.1446  0.6045
   18SAPC  H18X 2406   3.211   4.434   8.574  3.8752  1.8356 -1.1818
   18SAPC  H18Y 2407   3.242   4.606   8.522 -1.0110 -0.1199 -0.5152
   18SAPC  H18Z 2408   3.098   4.516   8.463  2.1527 -2.1461 -1.3642
   19SAPC     N 2409   1.840   6.529  10.831 -0.0656 -0.3806 -0.4323
   19SAPC   C12 2410   1.970   6.465  10.790 -0.5854  0.2398  0.0079
   19SAPC  H12A 2411   1.972   6.445  10.684  0.3951  2.9998 -0.5263
   19SAPC  H12B 2412   1.981   6.369  10.839  3.6662 -0.2092 -1.6050
   19SAPC   C13 2413   1.831   6.549  10.982 -0.5760 -0.2545  0.8439
   19SAPC  H13A 2414   1.729   6.573  11.010 -1.0167 -0.4119 -0.5699
   19SAPC  H13B 2415   1.852   6.458  11.037 -2.8025  0.4556  2.9396
   19SAPC  H13C 2416   1.899   6.626  11.013  0.8453 -0.2632 -2.0985
   19SAPC   C14 2417   1.819   6.654  10.755  0.0480 -0.3849 -0.7947
   19SAPC  H14A 2418   1.727   6.704  10.782 -0.4870 -1.6031 -0.3647
   19SAPC  H14B 2419   1.909   6.715  10.753  0.2629 -0.7247 -3.2149
   19SAPC  H14C 2420   1.787   6.633  10.654 -1.3189  0.3107 -0.5166
   19SAPC   C15 2421   1.725   6.446  10.791 -0.2221  0.3455  0.1953
   19SAPC  H15A 2422   1.722   6.422  10.686 -1.1899 -0.3613  0.3869
   19SAPC  H15B 2423   1.733   6.348  10.836  3.4703  0.4276 -0.1446
   19SAPC  H15C 2424   1.635   6.497  10.822  0.3267  1.9945 -0.8496
   19SAPC   C11 2425   2.103   6.548  10.813 -0.0165  0.2075  0.3551
   19SAPC  H11A 2426   2.189   6.477  10.809 -0.2298 -0.3071  3.6345
   19SAPC  H11B 2427   2.096   6.592  10.914 -1.3507  1.3002 -0.1961
   19SAPC     P 2428   2.172   6.615  10.569 -0.1542  0.0692 -0.0507
   19SAPC   O13 2429   2.316   6.596  10.591 -0.1192 -0.3420 -0.2621
   19SAPC   O14 2430   2.098   6.504  10.506  0.6506 -0.8602  0.4020
   19SAPC   O12 2431   2.107   6.654  10.711  0.0648 -0.3225  1.6010
   19SAPC   O11 2432   2.153   6.746  10.477 -0.2298  0.4767 -0.4562
   19SAPC    C1 2433   2.157   6.873  10.542 -0.0718  0.8632  1.2467
   19SAPC    HA 2434   2.077   6.889  10.618 -1.8618 -0.1110 -0.4043
   19SAPC    HB 2435   2.249   6.883  10.604  0.2180 -0.4380  1.0218
   19SAPC    C2 2436   2.150   6.986  10.432  0.1034 -0.7115  0.5729
   19SAPC    HS 2437   2.144   7.086  10.480  0.5245 -1.2560  1.7890
   19SAPC   O21 2438   2.045   6.967  10.339  0.0916 -0.3412 -0.2524
   19SAPC   C21 2439   1.921   6.989  10.368  0.1319 -0.0817 -0.0935
   19SAPC   O22 2440   1.879   7.036  10.470  0.5292 -0.7870 -0.1133
   19SAPC   C22 2441   1.835   6.971  10.239 -0.2225  0.2015 -0.3561
   19SAPC   H2R 2442   1.880   6.891  10.177 -3.0123 -1.5714 -0.2046
   19SAPC   H2S 2443   1.731   6.945  10.270  0.0997 -0.3401  0.2699
   19SAPC    C3 2444   2.281   6.991  10.350 -0.1849  0.6076  0.2779
   19SAPC    HX 2445   2.303   6.895  10.299 -2.7415 -1.0267  2.1199
   19SAPC    HY 2446   2.349   7.013  10.436 -2.6279  1.5816  2.0155
   19SAPC   O31 2447   2.274   7.088  10.246 -0.0981  0.0531 -0.1213
   19SAPC   C31 2448   2.359   7.079  10.145  0.3031 -0.1496  0.0406
   19SAPC   O32 2449   2.450   7.001  10.131  0.1154 -0.2042  0.2659
   19SAPC   C32 2450   2.330   7.194  10.055 -0.1028  0.5596 -0.1840
   19SAPC   H2X 2451   2.412   7.265  10.084  1.1654 -1.5460  1.5674
   19SAPC   H2Y 2452   2.226   7.222  10.081 -0.4921 -2.0258  1.2414
   19SAPC   C23 2453   1.843   7.101  10.163 -0.0788  1.0764  0.4211
   19SAPC   H3R 2454   1.947   7.123  10.131 -0.4419  0.0575 -1.5603
   19SAPC   H3S 2455   1.806   7.178  10.234 -0.6947  2.0038 -0.8878
   19SAPC   C24 2456   1.766   7.104  10.035 -0.1372  0.1105 -0.7428
   19SAPC   H4R 2457   1.675   7.041  10.047  0.8261 -1.2841 -0.6375
   19SAPC   H4S 2458   1.820   7.056   9.950  2.0146  0.1578  0.5455
   19SAPC   C25 2459   1.706   7.240  10.000 -0.6627  0.2655  0.6412
   19SAPC   H5R 2460   1.640   7.290  10.073 -0.8093  0.2126  0.5448
   19SAPC   C26 2461   1.731   7.301   9.881 -0.2599  0.7362  0.1574
   19SAPC   H6R 2462   1.689   7.402   9.864 -0.5059  1.0059  2.1688
   19SAPC   C27 2463   1.812   7.241   9.763  0.2283 -0.7442 -0.7153
   19SAPC   H7R 2464   1.739   7.193   9.695  1.0006 -1.4187 -1.0691
   19SAPC   H7S 2465   1.888   7.166   9.793 -0.1593 -0.9421 -0.2313
   19SAPC   C28 2466   1.886   7.346   9.684 -0.3804  0.1623  0.0311
   19SAPC   H8R 2467   1.932   7.422   9.749 -0.5665  1.8353 -1.7157
   19SAPC   C29 2468   1.887   7.357   9.549 -0.0687  0.5380 -0.3496
   19SAPC   H9R 2469   1.936   7.447   9.505  0.8578 -1.1823 -2.9900
   19SAPC  C210 2470   1.832   7.264   9.446 -0.3427  0.1193  0.4923
   19SAPC  H10R 2471   1.740   7.206   9.469 -1.4932  1.5405 -0.4879
   19SAPC  H10S 2472   1.914   7.198   9.411  0.3748  0.6564  1.1441
   19SAPC  C211 2473   1.783   7.355   9.332 -0.3383 -0.1791  0.2294
   19SAPC  H11R 2474   1.706   7.428   9.359  0.9319  0.4587  2.2930
   19SAPC  C212 2475   1.820   7.351   9.195  0.6756 -0.3338 -0.8992
   19SAPC  H12R 2476   1.772   7.412   9.116  1.0328  0.2888 -0.6391
   19SAPC  C213 2477   1.908   7.252   9.130  0.1237 -0.2636  0.0706
   19SAPC  H13R 2478   1.841   7.164   9.120 -0.1435 -0.0271 -0.2238
   19SAPC  H13S 2479   1.989   7.219   9.199  0.3049 -0.3826 -0.1965
   19SAPC  C214 2480   1.969   7.291   9.000 -0.2867 -0.2381  0.3865
   19SAPC  H14R 2481   1.986   7.395   8.969  2.1885 -0.7827 -0.1629
   19SAPC  C215 2482   2.012   7.198   8.913 -0.4416  0.6439 -0.6750
   19SAPC  H15R 2483   2.057   7.226   8.817  0.9121 -1.0287 -0.5646
   19SAPC  C216 2484   2.000   7.048   8.945  0.2414  0.6695  0.9030
   19SAPC  H16R 2485   1.895   7.029   8.975 -0.0451  2.0258  0.7564
   19SAPC  H16S 2486   2.071   7.028   9.029 -0.6096 -0.9640  1.2673
   19SAPC  C217 2487   2.016   6.957   8.821  0.2555 -0.1325 -0.8152
   19SAPC  H17R 2488   2.009   6.855   8.864 -0.0325 -0.3167 -1.2891
   19SAPC  H17S 2489   2.115   6.967   8.772  1.8559 -0.7623  2.1503
   19SAPC  C218 2490   1.907   6.968   8.707  0.4049 -0.3383  0.1136
   19SAPC  H18R 2491   1.926   7.064   8.657 -0.2672 -1.8276 -3.1281
   19SAPC  H18S 2492   1.808   6.964   8.758 -0.5618 -1.4662 -1.8184
   19SAPC  C219 2493   1.912   6.859   8.601 -0.2561 -0.2579  0.0915
   19SAPC  H19R 2494   1.914   6.761   8.653 -0.2014 -0.5411 -0.4407
   19SAPC  H19S 2495   2.006   6.868   8.542 -0.3168 -1.1231 -0.1572
   19SAPC  C220 2496   1.790   6.874   8.517 -0.2213  0.0075 -0.0052
   19SAPC  H20R 2497   1.698   6.849   8.574 -1.3071  1.7385 -0.9967
   19SAPC  H20S 2498   1.795   6.794   8.441 -1.3799 -1.7810  1.7421
   19SAPC  H20T 2499   1.787   6.981   8.489 -0.4398  0.1877  0.6825
   19SAPC   C33 2500   2.320   7.162   9.902 -1.0367  0.7138 -0.2018
   19SAPC   H3X 2501   2.411   7.109   9.867 -0.2922  1.0897  1.1349
   19SAPC   H3Y 2502   2.329   7.258   9.847 -1.8091  2.3170  2.4018
   19SAPC   C34 2503   2.200   7.082   9.857 -0.1528 -0.1488  0.7682
   19SAPC   H4X 2504   2.110   7.126   9.905 -0.9597 -1.6778  0.6682
   19SAPC   H4Y 2505   2.216   6.974   9.875 -0.2857 -0.6662 -1.9903
   19SAPC   C35 2506   2.174   7.098   9.702  0.4237 -0.0189 -0.0577
   19SAPC   H5X 2507   2.147   7.202   9.674 -2.3979 -0.4711  0.8440
   19SAPC   H5Y 2508   2.078   7.045   9.685  0.9232 -1.2399  0.8594
   19SAPC   C36 2509   2.289   7.051   9.608 -0.8554 -0.0716  0.7146
   19SAPC   H6X 2510   2.343   6.969   9.661  1.2062  1.2622  0.7228
   19SAPC   H6Y 2511   2.352   7.138   9.582 -1.4646  0.2771  0.4064
   19SAPC   C37 2512   2.240   7.010   9.471 -0.0521  0.3512 -0.3669
   19SAPC   H7X 2513   2.181   7.097   9.436 -0.0594  0.0451 -1.1353
   19SAPC   H7Y 2514   2.173   6.922   9.482 -0.6563  0.9459  0.7916
   19SAPC   C38 2515   2.342   6.995   9.357  0.0200 -0.6040  0.0630
   19SAPC   H8X 2516   2.418   6.922   9.390  1.1061 -0.3731 -1.8445
   19SAPC   H8Y 2517   2.401   7.088   9.343  0.0219 -0.4654  0.9458
   19SAPC   C39 2518   2.286   6.956   9.222  0.0682  0.5229  0.3555
   19SAPC   H9X 2519   2.213   7.026   9.176  2.4132  2.3233 -0.7280
   19SAPC   H9Y 2520   2.231   6.861   9.242  2.9011 -1.2779 -0.1937
   19SAPC  C310 2521   2.396   6.930   9.115  0.3173 -0.4427  0.5642
   19SAPC  H10X 2522   2.475   6.861   9.151  2.5597  0.6755 -2.0139
   19SAPC  H10Y 2523   2.453   7.020   9.081  1.2620 -1.5610 -0.8780
   19SAPC  C311 2524   2.339   6.868   8.992  1.0172 -0.3824  0.7209
   19SAPC  H11X 2525   2.272   6.933   8.933  1.7937 -0.9692 -0.8482
   19SAPC  H11Y 2526   2.287   6.774   9.020 -0.1781 -1.0062 -3.2724
   19SAPC  C312 2527   2.451   6.822   8.901 -0.0861 -0.0120 -0.6496
   19SAPC  H12X 2528   2.506   6.741   8.952  0.1491  0.8150  0.4241
   19SAPC  H12Y 2529   2.517   6.911   8.897  0.0769 -0.1201 -0.3540
   19SAPC  C313 2530   2.396   6.794   8.759 -0.0655  0.1110  0.7430
   19SAPC  H13X 2531   2.484   6.796   8.691  0.2365  1.0598  1.1674
   19SAPC  H13Y 2532   2.343   6.880   8.714  2.0674 -0.3455 -2.8588
   19SAPC  C314 2533   2.321   6.659   8.756 -0.2676  0.3349  0.5679
   19SAPC  H14X 2534   2.233   6.671   8.823 -0.2471  0.8573  0.5016
   19SAPC  H14Y 2535   2.380   6.581   8.809  0.5091  0.3922 -0.1974
   19SAPC  C315 2536   2.283   6.607   8.624  0.2552  0.1877  0.0880
   19SAPC  H15X 2537   2.234   6.691   8.571  1.0831  1.2461  0.9907
   19SAPC  H15Y 2538   2.214   6.522   8.641  0.8510 -0.0887  1.1421
   19SAPC  C316 2539   2.407   6.553   8.542 -0.8137 -0.6693  0.1455
   19SAPC  H16X 2540   2.480   6.627   8.504  1.8895 -2.7851  1.1035
   19SAPC  H16Y 2541   2.365   6.515   8.447 -0.8783 -0.9240  0.2751
   19SAPC  C317 2542   2.494   6.444   8.612  0.7845  0.0482  0.2032
   19SAPC  H17X 2543   2.438   6.370   8.673 -1.0139  0.8177 -0.4743
   19SAPC  H17Y 2544   2.550   6.499   8.690  0.5775 -1.0066  1.0996
   19SAPC  C318 2545   2.578   6.376   8.509 -0.1766  0.1976  0.3517
   19SAPC  H18X 2546   2.515   6.347   8.423 -2.9637  3.5205  1.1528
   19SAPC  H18Y 2547   2.620   6.285   8.558  0.9073  0.7594  0.4971
   19SAPC  H18Z 2548   2.655   6.445   8.468 -0.4351  0.6897  0.6842
   20SAPC     N 2549   1.694   3.581  10.597 -0.7503 -0.1567  0.4295
   20SAPC   C12 2550   1.778   3.706  10.607  0.5557 -0.3989  0.4983
   20SAPC  H12A 2551   1.744   3.773  10.529 -1.3350 -0.2047  1.4682
   20SAPC  H12B 2552   1.883   3.689  10.586  0.2619  0.8930 -2.2125
   20SAPC   C13 2553   1.714   3.518  10.461  0.1446  0.0310 -0.3804
   20SAPC  H13A 2554   1.810   3.467  10.459  1.6218  2.6069  1.2757
   20SAPC  H13B 2555   1.634   3.447  10.444  0.8406 -0.7490 -0.4489
   20SAPC  H13C 2556   1.695   3.579  10.374 -2.2391  0.6418  0.5442
   20SAPC   C14 2557   1.725   3.480  10.704  0.2009 -0.7985  0.4758
   20SAPC  H14A 2558   1.676   3.385  10.685 -1.4574  0.1404  0.0245
   20SAPC  H14B 2559   1.830   3.454  10.706  0.4738  0.2435  0.0441
   20SAPC  H14C 2560   1.696   3.516  10.801  1.0213 -0.3411  0.5610
   20SAPC   C15 2561   1.554   3.636  10.607 -0.0391 -0.5725  0.2235
   20SAPC  H15A 2562   1.474   3.564  10.620 -1.0097  0.5916  0.7208
   20SAPC  H15B 2563   1.554   3.700  10.694  0.7794 -0.5968  0.2512
   20SAPC  H15C 2564   1.543   3.708  10.527 -0.6553 -0.6360  0.2497
   20SAPC   C11 2565   1.782   3.782  10.739 -0.1031  0.1357  0.3574
   20SAPC  H11A 2566   1.883   3.827  10.751 -0.1908  0.0569  1.4246
   20SAPC  H11B 2567   1.775   3.707  10.821  0.9337  0.2598  0.5660
   20SAPC     P 2568   1.675   3.984  10.857  0.4332  0.1471  0.4360
   20SAPC   O13 2569   1.596   3.918  10.962  0.3930  0.0683 -0.4051
   20SAPC   O14 2570   1.813   4.026  10.886 -0.7836  0.0050 -0.3210
   20SAPC   O12 2571   1.683   3.874  10.741  0.1084 -0.2074  0.1340
   20SAPC   O11 2572   1.602   4.093  10.784 -0.2029  0.7906 -0.0847
   20SAPC    C1 2573   1.541   4.097  10.653 -0.4027 -0.5997  1.0047
   20SAPC    HA 2574   1.498   3.998  10.626  0.4648 -0.8146  0.4069
   20SAPC    HB 2575   1.473   4.184  10.635 -1.5771 -1.5065  0.9716
   20SAPC    C2 2576   1.650   4.107  10.535 -0.5991 -0.2108  0.5582
   20SAPC    HS 2577   1.720   4.022  10.544 -0.9208 -0.5549 -0.1059
   20SAPC   O21 2578   1.713   4.239  10.522  0.5574  0.2259 -0.5145
   20SAPC   C21 2579   1.841   4.232  10.494 -0.5780 -0.2593  0.5862
   20SAPC   O22 2580   1.913   4.131  10.487  0.3125  0.1115 -0.2510
   20SAPC   C22 2581   1.893   4.377  10.470 -0.2509  0.1916  0.2064
   20SAPC   H2R 2582   1.865   4.428  10.565 -0.7441  2.4731 -1.1061
   20SAPC   H2S 2583   2.003   4.388  10.453 -0.2806 -0.2194 -0.2529
   20SAPC    C3 2584   1.581   4.085  10.399 -0.2807  0.0300 -0.4512
   20SAPC    HX 2585   1.517   4.173  10.379 -0.4165  0.6451  2.4134
   20SAPC    HY 2586   1.509   4.001  10.391 -0.3561 -0.0769  1.2077
   20SAPC   O31 2587   1.685   4.078  10.296 -0.0623 -0.5177 -0.5384
   20SAPC   C31 2588   1.738   3.959  10.283  0.6262  0.5931  0.0526
   20SAPC   O32 2589   1.705   3.850  10.333 -0.1756 -0.0196 -0.3631
   20SAPC   C32 2590   1.861   3.976  10.188  0.5075 -0.1681 -0.4939
   20SAPC   H2X 2591   1.927   4.035  10.255 -0.1007 -0.4184  0.3408
   20SAPC   H2Y 2592   1.814   4.037  10.108  1.1896  0.2437 -0.5799
   20SAPC   C23 2593   1.808   4.451  10.364  0.3047  0.1550  0.1462
   20SAPC   H3R 2594   1.817   4.561  10.379 -0.9897  0.4539 -1.1850
   20SAPC   H3S 2595   1.700   4.434  10.384  0.0257 -1.0892 -2.2180
   20SAPC   C24 2596   1.828   4.425  10.215  0.3265  0.4950 -0.3207
   20SAPC   H4R 2597   1.756   4.485  10.156  1.9976  1.7052 -1.1898
   20SAPC   H4S 2598   1.817   4.315  10.206  0.1436  0.1477  3.3674
   20SAPC   C25 2599   1.978   4.469  10.186  0.6720 -0.1719  0.5500
   20SAPC   H5R 2600   2.022   4.541  10.257 -0.5995  1.8114 -0.6162
   20SAPC   C26 2601   2.045   4.427  10.078  0.4377  0.2378 -0.5820
   20SAPC   H6R 2602   2.151   4.456  10.067  0.2243  0.8538 -1.1068
   20SAPC   C27 2603   1.985   4.337   9.968 -0.2039  0.0481 -0.1452
   20SAPC   H7R 2604   1.879   4.315   9.992 -0.4932 -0.5566 -1.8858
   20SAPC   H7S 2605   2.047   4.244   9.970  0.1097  0.2791  1.4210
   20SAPC   C28 2606   2.002   4.406   9.837 -0.6566 -0.3769 -0.4133
   20SAPC   H8R 2607   2.057   4.500   9.853 -0.2063 -0.9549  1.5574
   20SAPC   C29 2608   1.967   4.370   9.718 -0.3206 -0.3780  0.5018
   20SAPC   H9R 2609   2.003   4.428   9.632  1.0519  0.0395  1.3293
   20SAPC  C210 2610   1.894   4.248   9.678  0.0593  0.4896  0.5516
   20SAPC  H10R 2611   1.867   4.257   9.571 -0.1101 -0.8686  0.4726
   20SAPC  H10S 2612   1.805   4.250   9.744 -0.7579  0.5523 -0.5433
   20SAPC  C211 2613   1.955   4.114   9.701 -0.7387  0.1753  0.2739
   20SAPC  H11R 2614   1.995   4.097   9.802  3.3734 -0.1629 -1.3015
   20SAPC  C212 2615   1.986   4.018   9.612  0.0897 -0.0076  0.7221
   20SAPC  H12R 2616   2.045   3.933   9.650 -0.9639 -1.6306 -1.2336
   20SAPC  C213 2617   1.962   4.024   9.465  0.3625 -0.5667 -0.2841
   20SAPC  H13R 2618   2.042   3.965   9.416  0.5394  1.3423 -2.3897
   20SAPC  H13S 2619   1.982   4.125   9.425  1.8446 -1.8202 -2.8644
   20SAPC  C214 2620   1.825   3.967   9.432  0.3127 -0.5367 -0.4166
   20SAPC  H14R 2621   1.774   3.911   9.513  2.1376 -0.3063  0.9339
   20SAPC  C215 2622   1.751   3.998   9.326 -0.2398 -0.0968 -0.5753
   20SAPC  H15R 2623   1.655   3.945   9.328 -1.1735  1.5839  0.2859
   20SAPC  C216 2624   1.783   4.085   9.214  0.3034 -0.6319  0.5570
   20SAPC  H16R 2625   1.862   4.161   9.229 -0.5165  0.5913 -1.2132
   20SAPC  H16S 2626   1.695   4.140   9.175  0.2875 -1.1557 -0.1480
   20SAPC  C217 2627   1.836   3.998   9.103 -0.2745  0.9450  0.0206
   20SAPC  H17R 2628   1.772   3.910   9.077  0.9172  0.9198 -3.0842
   20SAPC  H17S 2629   1.928   3.946   9.135 -1.5431 -1.0656  0.5430
   20SAPC  C218 2630   1.860   4.070   8.974  0.6930 -0.1040 -0.3098
   20SAPC  H18R 2631   1.932   4.154   8.979  1.6053 -0.8506 -0.7690
   20SAPC  H18S 2632   1.767   4.124   8.947  0.4595 -0.0798  0.5444
   20SAPC  C219 2633   1.918   3.988   8.851  0.9211  0.4369  0.2676
   20SAPC  H19R 2634   2.011   3.933   8.876  0.4560 -0.5480 -0.1812
   20SAPC  H19S 2635   1.934   4.059   8.767 -0.6501  0.9370  0.3692
   20SAPC  C220 2636   1.828   3.875   8.791  0.9768  0.2246 -0.2603
   20SAPC  H20R 2637   1.724   3.899   8.763  0.1205 -1.7382  1.1283
   20SAPC  H20S 2638   1.814   3.797   8.869 -0.9272  0.2540 -0.5621
   20SAPC  H20T 2639   1.891   3.832   8.709 -1.1702 -3.0867 -0.2819
   20SAPC   C33 2640   1.927   3.849  10.131  0.0326 -0.0293  0.5914
   20SAPC   H3X 2641   1.961   3.782  10.213 -0.1358 -1.4897 -0.5060
   20SAPC   H3Y 2642   2.005   3.875  10.057 -0.1242 -1.4256 -0.0835
   20SAPC   C34 2643   1.835   3.750  10.042  0.0229  0.1020 -0.0867
   20SAPC   H4X 2644   1.786   3.802   9.957 -0.4437 -0.1610  0.0253
   20SAPC   H4Y 2645   1.754   3.724  10.112 -0.0508  4.0093  1.4068
   20SAPC   C35 2646   1.908   3.627  10.001  0.5876  0.3948  0.0469
   20SAPC   H5X 2647   1.827   3.555   9.978  1.1134 -0.6987  1.5021
   20SAPC   H5Y 2648   1.965   3.590  10.089  2.5545  0.6901 -1.0866
   20SAPC   C36 2649   2.008   3.642   9.877 -0.0500  0.1466 -0.2696
   20SAPC   H6X 2650   2.064   3.548   9.860 -2.9794 -1.4205 -1.4924
   20SAPC   H6Y 2651   2.064   3.737   9.893 -1.5049  1.2559 -1.5956
   20SAPC   C37 2652   1.925   3.673   9.750 -0.4573  0.3841  0.3872
   20SAPC   H7X 2653   1.992   3.738   9.689  0.4776 -3.3648 -2.8088
   20SAPC   H7Y 2654   1.832   3.731   9.771  0.8052  3.6153 -2.4679
   20SAPC   C38 2655   1.893   3.553   9.662  0.3710 -0.1890 -0.6169
   20SAPC   H8X 2656   1.811   3.490   9.705  0.9629  0.1434  1.0228
   20SAPC   H8Y 2657   1.980   3.485   9.653 -0.4896 -1.3050 -0.6816
   20SAPC   C39 2658   1.859   3.591   9.517  0.2455  0.5528  0.0689
   20SAPC   H9X 2659   1.804   3.687   9.510  1.5328  1.2747 -0.2351
   20SAPC   H9Y 2660   1.784   3.514   9.488  1.7777 -2.0450  2.7397
   20SAPC  C310 2661   1.977   3.574   9.420 -0.7641  0.2410 -0.6094
   20SAPC  H10X 2662   2.012   3.469   9.417  2.3012  1.0062  3.5982
   20SAPC  H10Y 2663   2.061   3.637   9.456 -2.2398  2.3802 -0.8521
   20SAPC  C311 2664   1.940   3.624   9.282  0.2987  0.1994  1.1500
   20SAPC  H11X 2665   1.921   3.734   9.276  0.6232  0.1434 -1.2992
   20SAPC  H11Y 2666   1.844   3.577   9.252  0.2488  0.4420  0.9285
   20SAPC  C312 2667   2.034   3.592   9.175 -0.1482 -0.8312  0.0326
   20SAPC  H12X 2668   2.035   3.482   9.161  1.4421 -1.0355  1.5876
   20SAPC  H12Y 2669   2.141   3.616   9.192  0.1138 -2.1325  0.2801
   20SAPC  C313 2670   1.997   3.660   9.041  0.0864  0.0034  0.1358
   20SAPC  H13X 2671   1.984   3.770   9.055 -0.9121 -0.3973  2.6050
   20SAPC  H13Y 2672   1.900   3.631   8.993 -0.0428  2.4279 -1.1664
   20SAPC  C314 2673   2.105   3.633   8.936 -0.1062  0.1972  0.0402
   20SAPC  H14X 2674   2.204   3.667   8.973 -0.4560  3.2776 -1.6924
   20SAPC  H14Y 2675   2.105   3.708   8.854  0.3721 -0.7903 -0.8769
   20SAPC  C315 2676   2.117   3.486   8.885  0.9044  0.6035 -0.4941
   20SAPC  H15X 2677   2.018   3.450   8.848  1.2618  0.6842 -1.5423
   20SAPC  H15Y 2678   2.150   3.418   8.967 -1.1227  2.8752  2.3258
   20SAPC  C316 2679   2.214   3.460   8.773 -0.1033 -0.8313  0.7114
   20SAPC  H16X 2680   2.221   3.350   8.756  0.2989 -0.9699  1.7213
   20SAPC  H16Y 2681   2.308   3.511   8.805 -0.2286 -0.3018  0.2378
   20SAPC  C317 2682   2.166   3.536   8.645  0.1545 -0.0318  0.3181
   20SAPC  H17X 2683   2.185   3.642   8.673 -0.9727  0.1355  0.4587
   20SAPC  H17Y 2684   2.060   3.519   8.616  0.5804  0.5143 -1.6855
   20SAPC  C318 2685   2.252   3.503   8.518  0.5562 -0.0994 -0.0233
   20SAPC  H18X 2686   2.239   3.397   8.486  0.0191  0.7624 -2.7272
   20SAPC  H18Y 2687   2.363   3.511   8.527  0.5180  1.0840 -0.5821
   20SAPC  H18Z 2688   2.228   3.560   8.426  0.7444  0.5057  0.2996
   21SAPC     N 2689   0.709   2.542  10.985 -0.0971  0.0265  0.2098
   21SAPC   C12 2690   0.830   2.479  10.908  0.2406 -0.0636  0.5560
   21SAPC  H12A 2691   0.789   2.403  10.842 -0.8490  1.3221 -0.4043
   21SAPC  H12B 2692   0.902   2.437  10.976  3.0674  1.0548 -1.6412
   21SAPC   C13 2693   0.650   2.430  11.067 -1.0806  0.8876  0.6258
   21SAPC  H13A 2694   0.715   2.382  11.138  0.4852 -0.4257 -1.6513
   21SAPC  H13B 2695   0.574   2.476  11.129 -0.4542  0.6947  1.5400
   21SAPC  H13C 2696   0.613   2.354  10.999 -1.3091  1.6990 -0.1714
   21SAPC   C14 2697   0.756   2.650  11.075 -0.1960  0.2198 -0.1016
   21SAPC  H14A 2698   0.684   2.664  11.155  0.0115 -0.8550  0.2759
   21SAPC  H14B 2699   0.854   2.633  11.117  0.7763 -2.5371 -3.2456
   21SAPC  H14C 2700   0.754   2.738  11.012  2.6226  0.2188 -0.2470
   21SAPC   C15 2701   0.614   2.591  10.882 -0.0942 -0.5030 -0.0161
   21SAPC  H15A 2702   0.672   2.660  10.822 -0.1083 -1.1815 -0.8289
   21SAPC  H15B 2703   0.569   2.513  10.823  0.5972 -0.3108 -0.8030
   21SAPC  H15C 2704   0.534   2.649  10.926 -1.8467 -4.4057  2.2501
   21SAPC   C11 2705   0.911   2.578  10.820 -0.3373 -0.4699  0.0150
   21SAPC  H11A 2706   0.876   2.577  10.715 -0.8873  1.5216  0.1558
   21SAPC  H11B 2707   1.009   2.527  10.805  0.0728  0.7144 -1.3535
   21SAPC     P 2708   0.905   2.825  10.791 -0.1153 -0.3311 -0.0725
   21SAPC   O13 2709   0.774   2.799  10.727 -0.0767 -0.1177 -0.3328
   21SAPC   O14 2710   0.910   2.938  10.884  0.0934 -0.6191  0.2552
   21SAPC   O12 2711   0.949   2.701  10.882  0.5735 -0.6017 -0.2380
   21SAPC   O11 2712   1.034   2.833  10.700  0.1255 -0.5666  0.1098
   21SAPC    C1 2713   1.166   2.848  10.750  0.9757  0.3578  0.5713
   21SAPC    HA 2714   1.175   2.955  10.777 -0.6473  0.3463  1.1478
   21SAPC    HB 2715   1.188   2.786  10.839  1.0277  0.1511  0.4151
   21SAPC    C2 2716   1.272   2.822  10.642  0.0136  0.1157 -0.3101
   21SAPC    HS 2717   1.371   2.821  10.694  0.4903  2.5312 -1.0666
   21SAPC   O21 2718   1.259   2.926  10.543  0.4032 -0.3103  0.3609
   21SAPC   C21 2719   1.362   3.011  10.519  0.5393  0.2356 -0.9078
   21SAPC   O22 2720   1.461   3.021  10.590 -0.1239  0.0586 -0.0704
   21SAPC   C22 2721   1.329   3.112  10.409  0.0456 -0.5314 -0.0323
   21SAPC   H2R 2722   1.289   3.060  10.319  2.1932 -1.5498 -0.4362
   21SAPC   H2S 2723   1.251   3.184  10.439  1.2774  0.8037  0.0488
   21SAPC    C3 2724   1.256   2.683  10.575  1.0072  0.0896  0.6125
   21SAPC    HX 2725   1.154   2.678  10.532  0.7698  1.6497  0.9866
   21SAPC    HY 2726   1.269   2.608  10.655 -1.2664 -0.0877  0.8531
   21SAPC   O31 2727   1.352   2.677  10.464  0.0703 -0.2173  0.3141
   21SAPC   C31 2728   1.464   2.599  10.473 -0.1647  0.1859 -0.0551
   21SAPC   O32 2729   1.483   2.516  10.560 -0.2436  0.0391 -0.1680
   21SAPC   C32 2730   1.554   2.629  10.349  0.4135  0.0871 -1.1743
   21SAPC   H2X 2731   1.512   2.561  10.271  2.2094 -1.3308 -0.9512
   21SAPC   H2Y 2732   1.658   2.593  10.365 -0.3371 -0.8483  1.7600
   21SAPC   C23 2733   1.456   3.191  10.368  0.1006  0.6476 -0.4188
   21SAPC   H3R 2734   1.531   3.123  10.321  1.7867  1.5834  0.8749
   21SAPC   H3S 2735   1.510   3.229  10.457 -0.3023  0.3228 -0.0395
   21SAPC   C24 2736   1.415   3.312  10.284  0.6009 -0.0074  0.6962
   21SAPC   H4R 2737   1.399   3.395  10.355 -1.3540  1.6617 -1.6170
   21SAPC   H4S 2738   1.316   3.292  10.237  0.8141 -3.7315  1.6949
   21SAPC   C25 2739   1.516   3.335  10.175 -0.1927 -0.9211 -0.4279
   21SAPC   H5R 2740   1.620   3.337  10.210 -0.5087 -0.9012  0.5136
   21SAPC   C26 2741   1.498   3.344  10.045  0.4810  0.5466 -0.1421
   21SAPC   H6R 2742   1.582   3.350   9.975 -0.7986  0.0003 -1.7424
   21SAPC   C27 2743   1.365   3.336   9.980  1.0691  0.5008  0.0127
   21SAPC   H7R 2744   1.294   3.420   9.999 -0.4031 -0.9681  1.0947
   21SAPC   H7S 2745   1.309   3.247  10.015  1.4956  0.0089 -0.5577
   21SAPC   C28 2746   1.374   3.329   9.829  1.1892  0.0443  0.2094
   21SAPC   H8R 2747   1.359   3.234   9.777 -0.7742  0.3504  0.1771
   21SAPC   C29 2748   1.400   3.438   9.747 -0.8252  0.2046  0.0560
   21SAPC   H9R 2749   1.395   3.433   9.637  0.1719 -0.1776  0.0190
   21SAPC  C210 2750   1.420   3.577   9.804 -0.9777 -0.8267 -0.4283
   21SAPC  H10R 2751   1.433   3.587   9.914 -0.6136  1.7347 -0.6749
   21SAPC  H10S 2752   1.332   3.643   9.785 -0.4856  0.5424  1.8000
   21SAPC  C211 2753   1.526   3.640   9.716 -0.4446  0.4203 -0.0749
   21SAPC  H11R 2754   1.626   3.596   9.724  0.5526  2.7577  0.7850
   21SAPC  C212 2755   1.516   3.732   9.620 -0.0711  0.7526 -0.8670
   21SAPC  H12R 2756   1.602   3.739   9.552  0.1723 -0.6548 -0.7173
   21SAPC  C213 2757   1.396   3.812   9.570 -0.5749 -0.0068  0.4753
   21SAPC  H13R 2758   1.402   3.910   9.623  1.8996  0.4403 -0.5715
   21SAPC  H13S 2759   1.305   3.756   9.601  0.0524 -1.2392  0.1285
   21SAPC  C214 2760   1.380   3.841   9.416 -0.3897 -0.0685 -0.2327
   21SAPC  H14R 2761   1.377   3.948   9.391 -1.8451 -0.4797 -1.8867
   21SAPC  C215 2762   1.385   3.756   9.314  0.8729  0.2305 -0.2513
   21SAPC  H15R 2763   1.373   3.799   9.214 -2.8470 -1.4937 -0.6516
   21SAPC  C216 2764   1.407   3.607   9.312 -0.6475  0.0326  0.3648
   21SAPC  H16R 2765   1.319   3.549   9.277 -0.4465 -0.0827  0.0512
   21SAPC  H16S 2766   1.433   3.571   9.413  1.0154  3.1973  1.1473
   21SAPC  C217 2767   1.528   3.574   9.223 -0.3818  0.7677 -0.0453
   21SAPC  H17R 2768   1.563   3.469   9.237 -0.6893  0.7566  0.6297
   21SAPC  H17S 2769   1.622   3.630   9.241  0.0870 -0.4767  1.4937
   21SAPC  C218 2770   1.505   3.576   9.067 -0.2118 -0.0524 -0.6208
   21SAPC  H18R 2771   1.486   3.682   9.039 -1.9467 -0.2563 -0.2343
   21SAPC  H18S 2772   1.405   3.532   9.049  0.4090 -1.3992 -0.9016
   21SAPC  C219 2773   1.622   3.509   8.987  0.2523 -0.3730 -0.4113
   21SAPC  H19R 2774   1.617   3.401   9.011  0.4248 -0.5333 -1.0999
   21SAPC  H19S 2775   1.722   3.545   9.021 -0.1556  1.7674 -1.3679
   21SAPC  C220 2776   1.613   3.539   8.832 -0.0526  0.4554  0.5807
   21SAPC  H20R 2777   1.698   3.491   8.779 -0.4016  2.7917 -2.2422
   21SAPC  H20S 2778   1.617   3.646   8.805 -2.6148  1.2721  3.1207
   21SAPC  H20T 2779   1.512   3.501   8.802  0.9047 -2.0309  0.3628
   21SAPC   C33 2780   1.557   2.772  10.288  0.3056  0.2269 -0.2438
   21SAPC   H3X 2781   1.611   2.844  10.354  1.0482  0.1748 -0.7926
   21SAPC   H3Y 2782   1.452   2.795  10.260  0.6020  0.4196 -1.2299
   21SAPC   C34 2783   1.637   2.758  10.159 -1.0095  0.5706  0.8475
   21SAPC   H4X 2784   1.572   2.717  10.079 -0.0984 -0.4166  0.6026
   21SAPC   H4Y 2785   1.734   2.704  10.166 -1.5672 -0.7264 -1.0283
   21SAPC   C35 2786   1.659   2.894  10.090 -0.2417 -0.2699 -0.2759
   21SAPC   H5X 2787   1.740   2.950  10.140  0.5472  1.5301 -3.4340
   21SAPC   H5Y 2788   1.567   2.955  10.106  0.3088  0.8686 -1.3543
   21SAPC   C36 2789   1.699   2.904   9.943 -0.0965  0.4189 -0.0598
   21SAPC   H6X 2790   1.635   2.846   9.873  0.6828 -0.0526 -0.3816
   21SAPC   H6Y 2791   1.803   2.870   9.930  0.0470  0.2363  1.4753
   21SAPC   C37 2792   1.700   3.048   9.884 -0.2736  0.6325  0.5376
   21SAPC   H7X 2793   1.744   3.115   9.961 -1.7900  0.2196  1.7883
   21SAPC   H7Y 2794   1.595   3.078   9.861 -0.5564 -1.9553 -1.7821
   21SAPC   C38 2795   1.778   3.058   9.753  0.6560  0.7589 -0.1903
   21SAPC   H8X 2796   1.726   2.995   9.678  2.5398 -1.0230 -0.0587
   21SAPC   H8Y 2797   1.882   3.021   9.769 -0.7139 -3.4490 -0.3288
   21SAPC   C39 2798   1.792   3.202   9.703 -0.1817  0.3032 -1.1477
   21SAPC   H9X 2799   1.891   3.243   9.731  0.0568 -0.5471 -0.7181
   21SAPC   H9Y 2800   1.723   3.273   9.753 -1.2923  0.2856 -2.6199
   21SAPC  C310 2801   1.782   3.202   9.544 -1.3017  0.1875  0.3940
   21SAPC  H10X 2802   1.771   3.306   9.506  0.0851  0.2975  0.2662
   21SAPC  H10Y 2803   1.702   3.134   9.508 -0.2963 -0.3713 -0.8111
   21SAPC  C311 2804   1.911   3.143   9.479  0.7018  0.7422 -0.7234
   21SAPC  H11X 2805   1.925   3.040   9.517  0.2544  1.4643  1.4231
   21SAPC  H11Y 2806   2.001   3.201   9.510  1.8751 -1.6131  0.3936
   21SAPC  C312 2807   1.891   3.112   9.334  0.4155 -0.2648  0.2569
   21SAPC  H12X 2808   1.787   3.077   9.315  0.6105  0.0719 -1.5798
   21SAPC  H12Y 2809   1.962   3.030   9.311  1.5046  0.3488  1.4150
   21SAPC  C313 2810   1.916   3.227   9.230  0.1623  0.6336 -0.1172
   21SAPC  H13X 2811   2.019   3.267   9.238 -0.1053  1.5335 -1.1542
   21SAPC  H13Y 2812   1.840   3.308   9.229  2.0474  2.4241 -0.8440
   21SAPC  C314 2813   1.899   3.176   9.091 -0.4277  0.3553  0.3258
   21SAPC  H14X 2814   1.903   3.255   9.013 -4.4820 -0.7435 -1.1157
   21SAPC  H14Y 2815   1.802   3.122   9.087  0.0066 -0.3394 -2.1814
   21SAPC  C315 2816   2.018   3.085   9.055  0.3005 -0.0616 -0.1568
   21SAPC  H15X 2817   2.006   2.983   9.097 -2.6280 -0.1151 -1.0432
   21SAPC  H15Y 2818   2.112   3.130   9.093  0.5197  1.2190 -2.1432
   21SAPC  C316 2819   2.042   3.064   8.907 -0.6535 -0.2889  0.4361
   21SAPC  H16X 2820   2.084   3.155   8.858 -0.7549  0.4030  1.6077
   21SAPC  H16Y 2821   1.954   3.021   8.855 -1.6649 -0.1799  2.0134
   21SAPC  C317 2822   2.162   2.962   8.888  0.3458 -0.3095  0.1831
   21SAPC  H17X 2823   2.115   2.865   8.915 -0.3493  0.2847  1.1291
   21SAPC  H17Y 2824   2.237   2.991   8.965 -0.1014 -0.0609  0.5235
   21SAPC  C318 2825   2.227   2.957   8.746  0.2136  0.0188 -0.4258
   21SAPC  H18X 2826   2.237   3.060   8.707  0.8011  0.6417  1.3041
   21SAPC  H18Y 2827   2.166   2.890   8.681  0.5643 -0.2843 -0.4425
   21SAPC  H18Z 2828   2.328   2.911   8.754 -0.6514 -1.6589  1.4615
   22SAPC     N 2829   1.363   0.911  11.028  0.4286  0.4456  0.8505
   22SAPC   C12 2830   1.511   0.927  11.009 -0.4369  0.5193  0.8215
   22SAPC  H12A 2831   1.571   0.886  11.090 -1.9063 -0.9435  1.1838
   22SAPC  H12B 2832   1.529   1.034  11.016 -1.3142  0.8601 -1.8082
   22SAPC   C13 2833   1.282   0.984  10.929  0.0559 -0.3026  0.3578
   22SAPC  H13A 2834   1.280   1.092  10.924 -2.5688 -0.3710 -0.8171
   22SAPC  H13B 2835   1.302   0.954  10.827 -0.2156  0.3469  0.1117
   22SAPC  H13C 2836   1.176   0.963  10.937 -0.0545  0.0434 -0.1350
   22SAPC   C14 2837   1.325   0.757  11.027 -0.5881 -0.5656  0.3858
   22SAPC  H14A 2838   1.399   0.700  11.080  0.9401 -1.9331 -3.0733
   22SAPC  H14B 2839   1.222   0.748  11.058  0.1862  0.4147  3.4112
   22SAPC  H14C 2840   1.332   0.732  10.922  0.8319 -2.0366  0.8155
   22SAPC   C15 2841   1.321   0.958  11.162 -0.1831 -0.4799  0.1053
   22SAPC  H15A 2842   1.323   1.066  11.158  0.9995 -0.3257  3.0352
   22SAPC  H15B 2843   1.220   0.930  11.186 -0.1992 -0.5823 -0.0832
   22SAPC  H15C 2844   1.385   0.931  11.246 -0.2679 -0.1169  0.2892
   22SAPC   C11 2845   1.573   0.863  10.880 -0.1081  0.0045 -0.0968
   22SAPC  H11A 2846   1.592   0.756  10.905  0.2313  0.3137  1.0214
   22SAPC  H11B 2847   1.674   0.909  10.874  0.5003 -1.3204 -0.1232
   22SAPC     P 2848   1.518   0.996  10.664 -0.0174 -0.0942 -0.2712
   22SAPC   O13 2849   1.428   0.981  10.546 -0.6376 -0.0370 -0.3123
   22SAPC   O14 2850   1.495   1.123  10.744 -0.2309  0.3858 -0.3639
   22SAPC   O12 2851   1.500   0.874  10.760 -0.3539 -0.0503 -0.0423
   22SAPC   O11 2852   1.670   0.981  10.634 -0.0316  0.0096  0.1744
   22SAPC    C1 2853   1.719   0.904  10.520  0.1077  0.1654  1.0744
   22SAPC    HA 2854   1.817   0.853  10.540 -0.4294 -3.0538 -3.7476
   22SAPC    HB 2855   1.657   0.824  10.475  2.5604 -0.2949 -1.6322
   22SAPC    C2 2856   1.744   1.003  10.400  0.6718  0.3435 -0.7196
   22SAPC    HS 2857   1.788   1.096  10.442  1.2845  0.1970 -1.0270
   22SAPC   O21 2858   1.619   1.031  10.337 -0.2475 -0.7652  0.2253
   22SAPC   C21 2859   1.602   1.156  10.298 -0.0824 -0.4521 -0.3598
   22SAPC   O22 2860   1.681   1.249  10.306  0.1949 -0.1592 -0.0921
   22SAPC   C22 2861   1.455   1.168  10.266 -0.3606  0.0839 -0.5204
   22SAPC   H2R 2862   1.440   1.114  10.170  1.2294 -2.8851  0.8282
   22SAPC   H2S 2863   1.399   1.115  10.347  2.0649  0.5924  1.5879
   22SAPC    C3 2864   1.846   0.937  10.300  0.2962 -0.4566 -0.7697
   22SAPC    HX 2865   1.797   0.849  10.254 -0.3462  0.0964 -1.1423
   22SAPC    HY 2866   1.936   0.900  10.355 -1.1787 -0.0510  1.9831
   22SAPC   O31 2867   1.879   1.031  10.200  0.5138 -0.3622  0.4258
   22SAPC   C31 2868   1.992   1.089  10.208  0.5138  1.4094  0.4261
   22SAPC   O32 2869   2.081   1.069  10.288  0.2897  0.4112 -0.3928
   22SAPC   C32 2870   1.998   1.182  10.089  0.8284  0.1035 -0.3862
   22SAPC   H2X 2871   1.922   1.263  10.091 -0.2816 -0.9470  0.2233
   22SAPC   H2Y 2872   1.968   1.115  10.006  1.1948 -3.0022  1.9177
   22SAPC   C23 2873   1.396   1.315  10.238  0.0681 -0.1497 -0.6571
   22SAPC   H3R 2874   1.422   1.380  10.325 -0.5494 -2.5996  1.4452
   22SAPC   H3S 2875   1.286   1.308  10.242  0.1901 -1.8178  0.7813
   22SAPC   C24 2876   1.441   1.387  10.107  0.3411  0.0895  0.5201
   22SAPC   H4R 2877   1.542   1.432  10.112  0.1508  0.5805  0.0595
   22SAPC   H4S 2878   1.371   1.474  10.109  0.4302  0.1922 -0.4035
   22SAPC   C25 2879   1.435   1.304   9.985 -0.0797  0.2363 -0.4188
   22SAPC   H5R 2880   1.516   1.235   9.958 -1.0930 -1.0591 -0.1662
   22SAPC   C26 2881   1.338   1.294   9.887  0.3518  0.1107  0.0699
   22SAPC   H6R 2882   1.345   1.223   9.803  0.5377  0.1537  0.0488
   22SAPC   C27 2883   1.201   1.369   9.891 -0.3867  0.4316 -0.1924
   22SAPC   H7R 2884   1.206   1.479   9.884  0.3169  0.4922  1.2244
   22SAPC   H7S 2885   1.165   1.349   9.994  0.8477 -1.4906 -0.1008
   22SAPC   C28 2886   1.092   1.323   9.798  0.5712  0.2367 -0.2901
   22SAPC   H8R 2887   1.115   1.307   9.692 -1.0116 -1.2652 -0.4267
   22SAPC   C29 2888   0.963   1.306   9.820  0.3046 -0.0690  0.3219
   22SAPC   H9R 2889   0.894   1.282   9.738 -1.2773  2.4033  0.9029
   22SAPC  C210 2890   0.889   1.326   9.950 -0.1531 -0.8820  0.0448
   22SAPC  H10R 2891   0.840   1.426   9.952  0.8719 -0.2667 -3.1015
   22SAPC  H10S 2892   0.959   1.326  10.036  1.7951 -0.3200 -1.4950
   22SAPC  C211 2893   0.798   1.214  10.001 -0.5817  0.1592  0.9140
   22SAPC  H11R 2894   0.844   1.131  10.056 -0.1583 -0.0721  0.2117
   22SAPC  C212 2895   0.668   1.214   9.980  0.0762  0.4767 -1.2352
   22SAPC  H12R 2896   0.606   1.136  10.027  0.3628 -1.0426 -3.3122
   22SAPC  C213 2897   0.586   1.311   9.898 -0.4937 -0.1226 -0.3399
   22SAPC  H13R 2898   0.572   1.270   9.796  1.5123 -1.3566 -0.1366
   22SAPC  H13S 2899   0.652   1.399   9.881  1.3898 -1.6114 -0.8215
   22SAPC  C214 2900   0.462   1.348   9.972 -0.2877 -0.6679 -0.4642
   22SAPC  H14R 2901   0.477   1.407  10.064 -1.2757 -0.0802 -0.6663
   22SAPC  C215 2902   0.338   1.332   9.925 -0.1417 -0.0204 -0.0008
   22SAPC  H15R 2903   0.256   1.344   9.998  0.1933  0.5286  0.2864
   22SAPC  C216 2904   0.292   1.264   9.797 -0.3282  0.3644 -0.5363
   22SAPC  H16R 2905   0.193   1.217   9.813  0.4286 -1.4012 -0.8324
   22SAPC  H16S 2906   0.363   1.186   9.762  0.9360  0.4926  1.6834
   22SAPC  C217 2907   0.288   1.368   9.681 -0.0780 -0.4585  0.1748
   22SAPC  H17R 2908   0.316   1.335   9.579  1.9633 -0.3092  0.6680
   22SAPC  H17S 2909   0.342   1.459   9.715  0.2026 -0.9557  1.0701
   22SAPC  C218 2910   0.144   1.411   9.656  0.3348  0.5056  0.1119
   22SAPC  H18R 2911   0.139   1.515   9.617 -1.3964  0.7188  0.8740
   22SAPC  H18S 2912   0.091   1.409   9.753  0.8310  0.2579  0.3795
   22SAPC  C219 2913   0.068   1.322   9.550  0.3382  0.0788  0.2434
   22SAPC  H19R 2914  -0.042   1.335   9.558  0.3129 -0.4218  0.8223
   22SAPC  H19S 2915   0.087   1.214   9.569  3.6761  0.9281  2.1813
   22SAPC  C220 2916   0.104   1.351   9.399  0.2539 -0.0488 -0.5126
   22SAPC  H20R 2917   0.029   1.294   9.340  1.1100 -1.8925  0.1339
   22SAPC  H20S 2918   0.208   1.326   9.372  0.4054 -0.2761  0.2692
   22SAPC  H20T 2919   0.093   1.460   9.380 -0.9763 -0.1493 -0.4516
   22SAPC   C33 2920   2.144   1.246  10.055  0.5721  0.3046 -0.1153
   22SAPC   H3X 2921   2.226   1.173  10.069  0.3611 -0.0617 -0.7516
   22SAPC   H3Y 2922   2.170   1.320  10.134 -1.1000  0.7620  0.0132
   22SAPC   C34 2923   2.159   1.303   9.915 -0.4909  0.4959  0.7495
   22SAPC   H4X 2924   2.266   1.321   9.891 -0.2864  0.2281  1.4733
   22SAPC   H4Y 2925   2.105   1.399   9.900  2.1991  1.9412 -0.1645
   22SAPC   C35 2926   2.101   1.213   9.800  0.5637  0.4150 -0.2680
   22SAPC   H5X 2927   1.992   1.233   9.792  0.2507 -0.7567  0.9063
   22SAPC   H5Y 2928   2.111   1.108   9.833  1.2188  0.9748  1.3598
   22SAPC   C36 2929   2.187   1.234   9.675  0.4294 -0.0986 -0.1873
   22SAPC   H6X 2930   2.291   1.201   9.693 -0.0542 -1.2018  0.6534
   22SAPC   H6Y 2931   2.172   1.337   9.637 -0.4800  0.3655  1.3968
   22SAPC   C37 2932   2.141   1.135   9.560 -0.1201  0.1444 -0.7247
   22SAPC   H7X 2933   2.030   1.147   9.560 -0.4175 -2.2819 -1.3730
   22SAPC   H7Y 2934   2.168   1.034   9.598 -2.6187 -0.8136 -1.3815
   22SAPC   C38 2935   2.200   1.176   9.426  0.4963 -0.2663  0.5159
   22SAPC   H8X 2936   2.308   1.201   9.428  0.3990  0.0945  1.3657
   22SAPC   H8Y 2937   2.150   1.271   9.399 -2.1836 -2.1803 -1.5865
   22SAPC   C39 2938   2.175   1.093   9.300  0.1957  0.2998  0.7853
   22SAPC   H9X 2939   2.073   1.050   9.303  0.4836 -0.4558  0.0632
   22SAPC   H9Y 2940   2.249   1.010   9.294  0.1007  0.2764 -0.2246
   22SAPC  C310 2941   2.203   1.164   9.163 -1.2878 -0.1894  0.3147
   22SAPC  H10X 2942   2.292   1.227   9.182 -2.8133  1.6196  1.5081
   22SAPC  H10Y 2943   2.120   1.236   9.149  0.2981  1.6495  0.1826
   22SAPC  C311 2944   2.217   1.064   9.049 -0.0374  0.1829 -0.1641
   22SAPC  H11X 2945   2.123   1.009   9.030 -0.6314  1.1378 -0.0017
   22SAPC  H11Y 2946   2.296   0.990   9.076  0.3764  0.8040  0.3482
   22SAPC  C312 2947   2.264   1.144   8.923 -0.0249  0.6891  0.5543
   22SAPC  H12X 2948   2.201   1.235   8.911 -0.8985  0.5485  3.5839
   22SAPC  H12Y 2949   2.270   1.081   8.831 -0.2298 -0.4067  1.2726
   22SAPC  C313 2950   2.406   1.196   8.934 -0.5293  0.8418 -0.5081
   22SAPC  H13X 2951   2.458   1.120   8.997 -4.2319 -2.6133 -1.4314
   22SAPC  H13Y 2952   2.403   1.288   8.996 -0.5293  1.0476 -0.8113
   22SAPC  C314 2953   2.465   1.231   8.802  0.3760  0.0989  1.0208
   22SAPC  H14X 2954   2.399   1.282   8.729  0.8827 -1.6774 -0.7047
   22SAPC  H14Y 2955   2.505   1.141   8.750  3.0921  0.3627  2.5242
   22SAPC  C315 2956   2.587   1.320   8.824 -0.2666  0.1546 -0.1061
   22SAPC  H15X 2957   2.649   1.273   8.903  0.2401  0.9730 -0.0104
   22SAPC  H15Y 2958   2.559   1.419   8.867  0.2996  0.6949 -0.9540
   22SAPC  C316 2959   2.666   1.358   8.703  0.4389  0.5112 -0.0046
   22SAPC  H16X 2960   2.727   1.449   8.718  0.1038  0.4121  2.1106
   22SAPC  H16Y 2961   2.590   1.383   8.626  1.0310  2.1548 -0.0566
   22SAPC  C317 2962   2.740   1.235   8.652 -0.5968  0.6781  0.5044
   22SAPC  H17X 2963   2.675   1.159   8.604 -1.1905  0.9552  0.8673
   22SAPC  H17Y 2964   2.777   1.187   8.745 -0.7142 -0.1092  0.1535
   22SAPC  C318 2965   2.852   1.274   8.553  0.1324  0.8419  1.1155
   22SAPC  H18X 2966   2.923   1.189   8.547 -1.5589 -0.6009  1.1400
   22SAPC  H18Y 2967   2.904   1.370   8.576  1.6960  1.0498 -2.7897
   22SAPC  H18Z 2968   2.805   1.292   8.454  1.6074 -0.5817  0.1443
   23SAPC     N 2969   2.947   2.169  10.976 -0.0483 -0.1635  0.1652
   23SAPC   C12 2970   2.869   2.290  10.922 -0.1315  0.0566  0.1378
   23SAPC  H12A 2971   2.765   2.272  10.941 -0.3470  0.8491 -0.2821
   23SAPC  H12B 2972   2.873   2.288  10.814  2.4472 -0.0149  0.1883
   23SAPC   C13 2973   2.934   2.169  11.117 -0.1288  0.2490  0.1526
   23SAPC  H13A 2974   2.992   2.247  11.164  0.8122 -0.4699  0.1874
   23SAPC  H13B 2975   2.830   2.179  11.146 -0.3329 -0.2659 -0.3937
   23SAPC  H13C 2976   2.967   2.079  11.165 -2.4028 -0.5770  0.2216
   23SAPC   C14 2977   2.889   2.039  10.926  0.1826  0.2074  0.0039
   23SAPC  H14A 2978   2.908   2.018  10.822 -0.2001 -0.2752  0.0276
   23SAPC  H14B 2979   2.924   1.954  10.982  0.6461  0.2417 -0.2328
   23SAPC  H14C 2980   2.781   2.046  10.928  0.2621  1.9862 -0.6954
   23SAPC   C15 2981   3.084   2.172  10.926 -0.2874 -0.0726 -0.9213
   23SAPC  H15A 2982   3.083   2.192  10.820  3.8291 -1.2875 -1.2571
   23SAPC  H15B 2983   3.147   2.241  10.980 -0.2104 -0.9648  0.1584
   23SAPC  H15C 2984   3.136   2.078  10.926 -0.5965 -0.2433 -1.0698
   23SAPC   C11 2985   2.891   2.435  10.964  0.9637 -0.0348  0.0865
   23SAPC  H11A 2986   2.897   2.441  11.075  0.5056  0.9163  0.0687
   23SAPC  H11B 2987   2.804   2.491  10.924  0.4514  1.0798  2.6666
   23SAPC     P 2988   3.039   2.509  10.761  0.2149 -0.0497  0.1080
   23SAPC   O13 2989   2.972   2.631  10.717 -0.4585  0.0208  0.0453
   23SAPC   O14 2990   3.184   2.498  10.733 -0.3697  0.2056  0.5748
   23SAPC   O12 2991   3.017   2.485  10.913  0.2167  0.0514 -0.2801
   23SAPC   O11 2992   2.975   2.384  10.696 -0.0034  0.4253  0.8547
   23SAPC    C1 2993   2.901   2.384  10.575  0.6060 -0.0633  0.1295
   23SAPC    HA 2994   2.834   2.298  10.590  0.7528  0.1086  1.8721
   23SAPC    HB 2995   2.835   2.468  10.545 -0.2690 -0.9711 -0.5083
   23SAPC    C2 2996   3.001   2.354  10.455 -0.4177  0.1169  0.1474
   23SAPC    HS 2997   3.078   2.433  10.446 -0.4606  0.3583  1.7725
   23SAPC   O21 2998   2.928   2.325  10.337  0.3702 -0.7837  0.4528
   23SAPC   C21 2999   2.873   2.435  10.285 -0.8003  0.4183  0.7589
   23SAPC   O22 3000   2.887   2.547  10.326 -0.2392  0.1828  0.5371
   23SAPC   C22 3001   2.795   2.389  10.162 -0.3644 -0.8966 -0.5445
   23SAPC   H2R 3002   2.854   2.400  10.068  0.9470 -1.2943  0.2260
   23SAPC   H2S 3003   2.771   2.283  10.186 -0.5255 -0.8267 -0.3951
   23SAPC    C3 3004   3.090   2.235  10.495  0.3949 -0.5147  0.1842
   23SAPC    HX 3005   3.029   2.154  10.541 -0.3008  0.6738  1.3727
   23SAPC    HY 3006   3.155   2.273  10.577 -0.0113  2.0057 -0.6405
   23SAPC   O31 3007   3.173   2.185  10.388  0.5621 -0.3004  0.6298
   23SAPC   C31 3008   3.301   2.173  10.410  0.8215  0.6493 -0.6085
   23SAPC   O32 3009   3.361   2.200  10.513  0.0603 -0.1739 -0.4087
   23SAPC   C32 3010   3.369   2.115  10.287 -0.1430 -0.0421  0.9057
   23SAPC   H2X 3011   3.305   2.033  10.248 -0.0088  0.7053 -0.9310
   23SAPC   H2Y 3012   3.466   2.076  10.323  1.7351  0.2317 -3.5189
   23SAPC   C23 3013   2.662   2.460  10.144 -0.1094  0.5498 -0.3036
   23SAPC   H3R 3014   2.691   2.559  10.104  0.3234  0.2786 -0.6649
   23SAPC   H3S 3015   2.610   2.474  10.241  1.4898 -0.8987  0.8082
   23SAPC   C24 3016   2.569   2.399  10.043  0.5883 -0.2198  0.6265
   23SAPC   H4R 3017   2.476   2.459  10.049  0.6284 -0.3523  2.9677
   23SAPC   H4S 3018   2.565   2.292  10.071 -0.3514  0.2310  2.2630
   23SAPC   C25 3019   2.631   2.410   9.909  0.3568  0.2955  0.6076
   23SAPC   H5R 3020   2.689   2.503   9.899  1.2791 -0.4078 -0.8376
   23SAPC   C26 3021   2.627   2.328   9.805  0.8558  0.6545  0.2747
   23SAPC   H6R 3022   2.679   2.355   9.712  0.0096  0.8252 -0.1568
   23SAPC   C27 3023   2.552   2.192   9.802 -0.1142 -0.3145  0.9625
   23SAPC   H7R 3024   2.501   2.170   9.898  0.1907  0.9004  1.4131
   23SAPC   H7S 3025   2.627   2.113   9.777  0.6726  0.4230  0.9697
   23SAPC   C28 3026   2.441   2.190   9.695  0.2309 -0.0414  0.2930
   23SAPC   H8R 3027   2.343   2.227   9.729  0.6685  2.6566 -1.2392
   23SAPC   C29 3028   2.447   2.145   9.563  0.2359 -0.4062 -0.1059
   23SAPC   H9R 3029   2.360   2.156   9.496 -0.6348 -2.8866  0.5399
   23SAPC  C210 3030   2.574   2.095   9.499 -0.2560  0.0320  0.5228
   23SAPC  H10R 3031   2.645   2.049   9.571 -1.9972 -1.4790  1.3291
   23SAPC  H10S 3032   2.635   2.183   9.470  0.4268 -1.2696 -2.1261
   23SAPC  C211 3033   2.542   2.013   9.377 -0.0729 -0.1120 -0.2449
   23SAPC  H11R 3034   2.483   2.060   9.297 -0.8369 -1.0514 -0.2446
   23SAPC  C212 3035   2.602   1.893   9.369  0.1655  0.4397  0.8054
   23SAPC  H12R 3036   2.588   1.839   9.274  0.4719  0.5980  0.6698
   23SAPC  C213 3037   2.694   1.816   9.464 -0.1970  0.6557 -0.1252
   23SAPC  H13R 3038   2.655   1.714   9.485  2.1034 -0.0205  1.0634
   23SAPC  H13S 3039   2.711   1.860   9.564 -1.1650  0.8206 -0.0270
   23SAPC  C214 3040   2.837   1.806   9.423 -0.0052  1.1082  0.3124
   23SAPC  H14R 3041   2.902   1.887   9.461  1.7703 -1.4244  2.8792
   23SAPC  C215 3042   2.900   1.706   9.359 -0.1919  0.3067  0.3703
   23SAPC  H15R 3043   3.007   1.715   9.334 -0.4535 -0.3784 -1.1012
   23SAPC  C216 3044   2.831   1.583   9.315  0.7931 -0.5054 -0.8852
   23SAPC  H16R 3045   2.724   1.573   9.343  0.7791 -1.9154 -1.4029
   23SAPC  H16S 3046   2.881   1.496   9.363  1.4475  0.1209 -0.4215
   23SAPC  C217 3047   2.855   1.557   9.167 -0.0684  0.3764  0.0260
   23SAPC  H17R 3048   2.824   1.453   9.144  1.2921 -0.2212  0.7849
   23SAPC  H17S 3049   2.960   1.576   9.135  0.8461 -2.0420  1.3763
   23SAPC  C218 3050   2.768   1.654   9.088 -0.4222 -0.3816 -0.4796
   23SAPC  H18R 3051   2.805   1.755   9.113 -0.8580 -0.2096 -0.5143
   23SAPC  H18S 3052   2.661   1.647   9.119 -1.5506 -0.7071 -4.1474
   23SAPC  C219 3053   2.788   1.632   8.936 -0.1963 -0.5343  0.4805
   23SAPC  H19R 3054   2.781   1.524   8.907  4.4737 -0.2531 -2.2582
   23SAPC  H19S 3055   2.892   1.653   8.904 -0.2290 -1.5335 -0.3379
   23SAPC  C220 3056   2.692   1.711   8.848 -0.6790  0.6379  0.4541
   23SAPC  H20R 3057   2.716   1.818   8.870  2.4202 -0.3401  2.1935
   23SAPC  H20S 3058   2.584   1.694   8.868 -1.1580  1.2095 -1.5902
   23SAPC  H20T 3059   2.713   1.693   8.741  1.3713  0.1181  0.9095
   23SAPC   C33 3060   3.391   2.218  10.168 -0.6498  0.5763 -0.0096
   23SAPC   H3X 3061   3.420   2.317  10.211 -0.4979  0.8728 -0.7939
   23SAPC   H3Y 3062   3.296   2.242  10.116  1.3289  2.0070 -3.0654
   23SAPC   C34 3063   3.507   2.187  10.074  0.1677 -0.3449 -0.5366
   23SAPC   H4X 3064   3.594   2.189  10.142  2.0715 -5.7015 -2.4936
   23SAPC   H4Y 3065   3.510   2.272  10.002 -1.6087 -0.5798 -0.9271
   23SAPC   C35 3066   3.493   2.055   9.989  0.9413 -0.2928  0.1141
   23SAPC   H5X 3067   3.476   1.974  10.062  2.4046 -0.7816 -0.0715
   23SAPC   H5Y 3068   3.599   2.035   9.960  1.9250  2.1226  1.8958
   23SAPC   C36 3069   3.382   2.066   9.890 -0.2772  0.2307  0.3582
   23SAPC   H6X 3070   3.350   2.171   9.876  0.2423  0.6616  2.2849
   23SAPC   H6Y 3071   3.290   2.019   9.931  0.5554 -0.7055  1.1713
   23SAPC   C37 3072   3.423   1.997   9.759  0.2204 -0.2816 -0.7565
   23SAPC   H7X 3073   3.451   1.889   9.765  0.3499 -0.2933 -1.4736
   23SAPC   H7Y 3074   3.511   2.059   9.732  1.3987 -1.0895  1.1728
   23SAPC   C38 3075   3.312   2.015   9.650 -0.4697 -0.5804  0.1188
   23SAPC   H8X 3076   3.303   2.125   9.638 -1.6836 -0.6848  0.0476
   23SAPC   H8Y 3077   3.214   1.987   9.693 -0.2101 -3.0293 -0.8374
   23SAPC   C39 3078   3.349   1.939   9.523 -0.5102  0.3401  0.8661
   23SAPC   H9X 3079   3.350   1.832   9.551  2.2444  0.6348  2.0847
   23SAPC   H9Y 3080   3.453   1.958   9.487 -0.2429 -0.1262  1.3915
   23SAPC  C310 3081   3.242   1.954   9.419  0.2881 -0.7457 -0.4648
   23SAPC  H10X 3082   3.248   2.061   9.389 -0.6688 -0.8515 -1.0203
   23SAPC  H10Y 3083   3.143   1.928   9.462  0.3550 -1.0014 -0.4643
   23SAPC  C311 3084   3.244   1.879   9.283 -0.6361 -0.5389  0.5127
   23SAPC  H11X 3085   3.227   1.775   9.317 -2.1273  0.1016  1.7784
   23SAPC  H11Y 3086   3.347   1.896   9.242 -0.8883  0.8075  0.4112
   23SAPC  C312 3087   3.143   1.943   9.187 -0.0355 -0.9842  0.1562
   23SAPC  H12X 3088   3.161   2.053   9.186 -2.0509 -0.6079  1.1829
   23SAPC  H12Y 3089   3.039   1.926   9.222 -0.7582  2.8624  0.1330
   23SAPC  C313 3090   3.160   1.892   9.041 -0.5382 -0.3652 -0.1412
   23SAPC  H13X 3091   3.136   1.784   9.047  2.2881 -0.8881  2.6457
   23SAPC  H13Y 3092   3.265   1.912   9.011 -0.3721 -2.6482 -1.1885
   23SAPC  C314 3093   3.072   1.974   8.946  0.8155 -0.3323 -0.9397
   23SAPC  H14X 3094   3.084   2.082   8.970  0.4880 -0.9729  2.3779
   23SAPC  H14Y 3095   2.965   1.946   8.955  0.6581  0.5900  0.3080
   23SAPC  C315 3096   3.109   1.945   8.797  0.1423  0.1869 -0.2662
   23SAPC  H15X 3097   3.216   1.973   8.788  0.6781 -1.6619  0.1645
   23SAPC  H15Y 3098   3.056   2.017   8.732 -0.6205  1.0157  1.2703
   23SAPC  C316 3099   3.093   1.803   8.747 -0.0203 -0.6980 -0.4222
   23SAPC  H16X 3100   2.985   1.778   8.762  0.1939 -1.0708  0.5569
   23SAPC  H16Y 3101   3.147   1.719   8.797 -0.0421 -2.7390 -3.7036
   23SAPC  C317 3102   3.115   1.788   8.597 -0.4366  0.2509  0.2675
   23SAPC  H17X 3103   3.225   1.801   8.587 -0.5533  1.1028  0.0427
   23SAPC  H17Y 3104   3.064   1.864   8.535  0.2679 -0.2692 -0.9613
   23SAPC  C318 3105   3.075   1.650   8.548  0.2484  0.6834  1.0004
   23SAPC  H18X 3106   2.979   1.609   8.586  0.4174  1.8798  2.7634
   23SAPC  H18Y 3107   3.162   1.584   8.571  0.0334  0.1019  0.1578
   23SAPC  H18Z 3108   3.060   1.654   8.438  1.1235  0.2834  0.8614
   24SAPC     N 3109   5.973   2.485  11.327 -0.0114  0.7509 -0.8844
   24SAPC   C12 3110   5.894   2.478  11.204  0.0982 -0.1065  0.2723
   24SAPC  H12A 3111   5.790   2.460  11.225 -0.4874 -0.2228 -2.5389
   24SAPC  H12B 3112   5.917   2.396  11.138  0.8454  0.2243  0.1164
   24SAPC   C13 3113   6.123   2.496  11.297  0.6520 -0.3238  0.2153
   24SAPC  H13A 3114   6.148   2.421  11.224  2.0006 -1.5798  1.9429
   24SAPC  H13B 3115   6.139   2.594  11.255  1.6040 -0.9004 -0.7763
   24SAPC  H13C 3116   6.174   2.488  11.392  1.5640  2.6857  0.0319
   24SAPC   C14 3117   5.922   2.603  11.406 -0.1283 -0.5460 -0.0574
   24SAPC  H14A 3118   5.972   2.610  11.502  1.1096 -0.7189 -0.6842
   24SAPC  H14B 3119   5.940   2.698  11.360  0.7021 -0.2969  0.7824
   24SAPC  H14C 3120   5.815   2.599  11.425 -0.5580  4.0609 -1.1223
   24SAPC   C15 3121   5.944   2.364  11.412 -0.5583 -0.0039  0.0932
   24SAPC  H15A 3122   5.967   2.276  11.354  0.9939  0.4205  0.0467
   24SAPC  H15B 3123   5.996   2.364  11.506  0.8674 -1.3842 -0.6778
   24SAPC  H15C 3124   5.839   2.370  11.438 -0.8205  1.5809 -1.2051
   24SAPC   C11 3125   5.910   2.602  11.112  0.2131 -0.6840  0.1834
   24SAPC  H11A 3126   6.012   2.607  11.069  0.0715  1.9402  0.0622
   24SAPC  H11B 3127   5.908   2.702  11.161 -2.2563  0.4197 -2.0469
   24SAPC     P 3128   5.700   2.715  10.991 -0.4026  0.4045  0.5370
   24SAPC   O13 3129   5.598   2.708  11.102 -1.0081  0.4146 -0.3158
   24SAPC   O14 3130   5.773   2.843  10.980  0.1725  0.1987 -0.4538
   24SAPC   O12 3131   5.801   2.595  11.015 -0.0775  0.4134 -0.3381
   24SAPC   O11 3132   5.638   2.680  10.851 -0.5531 -0.2092  0.3522
   24SAPC    C1 3133   5.510   2.621  10.840 -0.0112 -0.3222 -0.1766
   24SAPC    HA 3134   5.435   2.639  10.920  0.0230  1.2084 -0.4725
   24SAPC    HB 3135   5.461   2.663  10.750  1.3588  4.4574  1.1380
   24SAPC    C2 3136   5.531   2.467  10.820 -0.0119 -0.4350 -1.0182
   24SAPC    HS 3137   5.608   2.429  10.889 -2.2224 -0.7517  1.3233
   24SAPC   O21 3138   5.570   2.451  10.684 -0.1738 -0.0133 -0.0666
   24SAPC   C21 3139   5.609   2.328  10.645  0.4422 -1.0294 -0.6314
   24SAPC   O22 3140   5.625   2.235  10.723 -0.2786  0.0065 -0.0171
   24SAPC   C22 3141   5.645   2.314  10.496 -0.0660 -0.0999 -0.2590
   24SAPC   H2R 3142   5.551   2.285  10.446 -0.6278  1.6912 -0.2807
   24SAPC   H2S 3143   5.666   2.412  10.448 -2.7483  1.1333  1.0195
   24SAPC    C3 3144   5.402   2.392  10.854  0.1678 -0.7640  0.7275
   24SAPC    HX 3145   5.366   2.428  10.953  3.2106  1.2964  1.1880
   24SAPC    HY 3146   5.426   2.284  10.859 -2.6096 -1.3717  1.4511
   24SAPC   O31 3147   5.306   2.418  10.748  0.0337  0.4317 -0.4477
   24SAPC   C31 3148   5.185   2.374  10.778  0.0124  0.1754 -0.4541
   24SAPC   O32 3149   5.157   2.332  10.892 -0.1639 -0.3364 -0.1682
   24SAPC   C32 3150   5.087   2.401  10.661  0.8395  0.0093 -0.2289
   24SAPC   H2X 3151   5.138   2.465  10.587 -0.0785  0.7152 -0.2678
   24SAPC   H2Y 3152   5.009   2.471  10.700  1.0730  0.0257  0.2116
   24SAPC   C23 3153   5.760   2.206  10.466 -0.3553 -0.3313  0.3264
   24SAPC   H3R 3154   5.733   2.115  10.524  1.0913 -1.1925 -0.3214
   24SAPC   H3S 3155   5.854   2.255  10.499  0.8119 -3.3038  1.6553
   24SAPC   C24 3156   5.759   2.158  10.323 -0.1288  0.0075  0.3418
   24SAPC   H4R 3157   5.654   2.129  10.302 -0.4808  0.8070  1.0067
   24SAPC   H4S 3158   5.821   2.066  10.316  0.9070  0.8026 -1.4927
   24SAPC   C25 3159   5.808   2.261  10.229 -0.5335 -0.1495 -0.3515
   24SAPC   H5R 3160   5.781   2.359  10.271  1.2683  0.7066 -1.1235
   24SAPC   C26 3161   5.868   2.247  10.105 -0.4708 -0.3264 -0.0060
   24SAPC   H6R 3162   5.871   2.326  10.029  1.3340  0.7157  1.0899
   24SAPC   C27 3163   5.894   2.106  10.049  0.3111 -0.3132  0.4720
   24SAPC   H7R 3164   5.935   2.045  10.133  0.3611 -2.0128 -0.7561
   24SAPC   H7S 3165   5.981   2.123   9.982 -0.4863  2.2235  0.0499
   24SAPC   C28 3166   5.781   2.041   9.973 -0.0679  0.0405  0.2028
   24SAPC   H8R 3167   5.680   2.061  10.011  0.5992  0.4837  1.7998
   24SAPC   C29 3168   5.789   1.968   9.865  0.1630  0.3609 -0.5683
   24SAPC   H9R 3169   5.698   1.934   9.812  0.1257 -0.0635 -0.2332
   24SAPC  C210 3170   5.911   1.929   9.792 -0.1009 -0.4270 -0.4614
   24SAPC  H10R 3171   5.901   1.821   9.767  1.9507 -0.4108 -1.3895
   24SAPC  H10S 3172   6.005   1.952   9.846 -1.1172  0.1825  1.0661
   24SAPC  C211 3173   5.930   1.999   9.663  0.0729  0.4783 -0.0172
   24SAPC  H11R 3174   5.890   2.101   9.661  1.7058  1.1640  1.6256
   24SAPC  C212 3175   5.998   1.947   9.558  0.4045  0.4246  0.2281
   24SAPC  H12R 3176   6.024   2.014   9.475 -0.2500  2.7543  1.8572
   24SAPC  C213 3177   6.057   1.811   9.542  0.2958  0.3920  0.3582
   24SAPC  H13R 3178   6.056   1.754   9.638 -3.0746 -0.5465 -0.1536
   24SAPC  H13S 3179   6.162   1.822   9.508 -0.0508  1.1490 -0.4716
   24SAPC  C214 3180   5.969   1.728   9.453  0.1880  0.3294  0.1809
   24SAPC  H14R 3181   5.900   1.662   9.508 -0.1996 -0.6588 -1.4235
   24SAPC  C215 3182   5.974   1.720   9.320  0.1751 -0.6533  0.2449
   24SAPC  H15R 3183   5.898   1.666   9.262  1.6375 -0.4864 -1.8862
   24SAPC  C216 3184   6.071   1.798   9.227  0.2790  0.4811 -0.4383
   24SAPC  H16R 3185   6.106   1.741   9.139  0.0729  0.8524 -0.7632
   24SAPC  H16S 3186   6.160   1.834   9.283 -0.6914  1.9369  0.2039
   24SAPC  C217 3187   5.995   1.917   9.156  0.3139  0.4179  0.0881
   24SAPC  H17R 3188   5.955   1.976   9.241  0.7525 -0.8929  1.2168
   24SAPC  H17S 3189   5.905   1.869   9.112  0.5055  1.4521 -1.4690
   24SAPC  C218 3190   6.087   1.997   9.065 -0.5216  0.8007  0.1795
   24SAPC  H18R 3191   6.133   1.924   8.995  0.1549  1.2282  0.1769
   24SAPC  H18S 3192   6.170   2.019   9.135 -0.5804 -1.1209  0.8747
   24SAPC  C219 3193   6.048   2.121   8.979 -0.4054  0.8686 -0.3852
   24SAPC  H19R 3194   5.984   2.072   8.902  0.2983 -0.8396  0.0820
   24SAPC  H19S 3195   6.141   2.167   8.938 -1.3154  0.5672 -2.9329
   24SAPC  C220 3196   5.976   2.225   9.067  0.3849  0.6237  0.0396
   24SAPC  H20R 3197   6.024   2.241   9.166 -0.9285  1.2932  0.5767
   24SAPC  H20S 3198   5.878   2.175   9.084  0.9635 -0.1728  1.0566
   24SAPC  H20T 3199   5.961   2.317   9.007 -0.8830  0.2220 -0.2673
   24SAPC   C33 3200   5.019   2.274  10.602 -0.5543  0.4812  0.1016
   24SAPC   H3X 3201   4.980   2.219  10.690  2.1149 -0.7490  0.5696
   24SAPC   H3Y 3202   5.092   2.210  10.548 -2.5911 -0.8905 -1.0674
   24SAPC   C34 3203   4.905   2.298  10.502  0.5191  0.0472 -0.4426
   24SAPC   H4X 3204   4.838   2.368  10.556 -0.2942 -1.5945  0.7069
   24SAPC   H4Y 3205   4.848   2.203  10.499 -0.4288  0.5489  1.0656
   24SAPC   C35 3206   4.961   2.361  10.374 -0.7604 -0.1278  0.6790
   24SAPC   H5X 3207   5.024   2.285  10.323  1.3571  2.3414 -0.4555
   24SAPC   H5Y 3208   5.027   2.446  10.401  3.0774 -3.4930  2.5483
   24SAPC   C36 3209   4.866   2.421  10.273  0.1049 -0.2115  0.5304
   24SAPC   H6X 3210   4.815   2.511  10.315  0.7555  0.6408 -0.5063
   24SAPC   H6Y 3211   4.784   2.348  10.255 -0.9140  0.4485  2.3491
   24SAPC   C37 3212   4.936   2.459  10.146  0.3621 -0.2411 -0.2223
   24SAPC   H7X 3213   4.996   2.380  10.096 -0.2346 -0.4739 -0.5791
   24SAPC   H7Y 3214   4.996   2.550  10.169  1.2986 -0.6987 -0.8220
   24SAPC   C38 3215   4.828   2.507  10.043  0.0453 -0.5364 -0.1924
   24SAPC   H8X 3216   4.760   2.586  10.082  1.1634  0.3328  0.0181
   24SAPC   H8Y 3217   4.771   2.415  10.019  2.5421 -2.0502 -0.4380
   24SAPC   C39 3218   4.881   2.556   9.910  0.3628 -0.0959  0.0526
   24SAPC   H9X 3219   4.945   2.472   9.878 -0.7815 -1.4920  1.3149
   24SAPC   H9Y 3220   4.938   2.648   9.933 -1.2402  1.0232 -0.3498
   24SAPC  C310 3221   4.763   2.581   9.814  1.0368 -0.5657  0.5462
   24SAPC  H10X 3222   4.681   2.631   9.869  0.7350 -1.8183  1.2719
   24SAPC  H10Y 3223   4.713   2.484   9.793  0.5639 -0.1107 -0.4470
   24SAPC  C311 3224   4.804   2.653   9.687 -0.0218 -0.1608  0.0771
   24SAPC  H11X 3225   4.888   2.609   9.630  1.5926 -0.3590  2.5554
   24SAPC  H11Y 3226   4.848   2.753   9.708 -0.2109  0.2926 -1.5897
   24SAPC  C312 3227   4.686   2.675   9.595 -0.2953 -0.0791 -0.2866
   24SAPC  H12X 3228   4.623   2.755   9.638 -1.0847 -0.3521 -0.9347
   24SAPC  H12Y 3229   4.629   2.580   9.589  1.4034 -1.1449  0.0403
   24SAPC  C313 3230   4.737   2.710   9.453 -0.3766  0.3229 -0.2274
   24SAPC  H13X 3231   4.799   2.624   9.419 -0.0957  0.4829 -0.1223
   24SAPC  H13Y 3232   4.811   2.791   9.467 -0.2151  0.3688 -1.3431
   24SAPC  C314 3233   4.631   2.753   9.356  0.2207 -0.1524  0.3200
   24SAPC  H14X 3234   4.567   2.823   9.413 -1.3979  0.4122 -2.1491
   24SAPC  H14Y 3235   4.572   2.665   9.323 -0.3698 -0.3866  1.9774
   24SAPC  C315 3236   4.689   2.825   9.235 -0.7228 -0.0719 -0.6258
   24SAPC  H15X 3237   4.778   2.885   9.262  0.8336 -2.3828 -0.4873
   24SAPC  H15Y 3238   4.597   2.877   9.199 -0.6981  0.7329  0.4590
   24SAPC  C316 3239   4.744   2.718   9.136  0.0385  0.2040 -0.0911
   24SAPC  H16X 3240   4.655   2.662   9.102 -0.2173  1.7816 -2.0643
   24SAPC  H16Y 3241   4.794   2.636   9.192 -1.1741 -0.5945 -0.1785
   24SAPC  C317 3242   4.821   2.787   9.019  0.3685 -0.1053  0.1528
   24SAPC  H17X 3243   4.841   2.702   8.950 -2.0700 -1.4265  1.0084
   24SAPC  H17Y 3244   4.915   2.833   9.057  0.2257  1.8267 -1.7705
   24SAPC  C318 3245   4.741   2.904   8.951 -0.1707 -0.0221  0.9366
   24SAPC  H18X 3246   4.723   2.988   9.021 -2.2787  0.8667 -0.6092
   24SAPC  H18Y 3247   4.639   2.871   8.923 -0.1325  1.9036 -1.5970
   24SAPC  H18Z 3248   4.779   2.956   8.861 -1.8762 -0.1251  0.1307
   25SAPC     N 3249   2.025   6.409   6.272 -0.3712  0.5854 -0.3593
   25SAPC   C12 3250   2.123   6.385   6.166 -0.1329 -0.5604  0.0612
   25SAPC  H12A 3251   2.104   6.285   6.131 -0.3160 -0.2758 -0.6692
   25SAPC  H12B 3252   2.222   6.377   6.209  0.1026  0.4984 -0.2572
   25SAPC   C13 3253   1.882   6.412   6.219  0.6217  0.2172  0.2047
   25SAPC  H13A 3254   1.860   6.330   6.153 -0.9075 -0.0093  0.9682
   25SAPC  H13B 3255   1.800   6.410   6.290 -0.7458  0.6826 -1.3094
   25SAPC  H13C 3256   1.872   6.502   6.160 -0.7291 -1.3003 -1.9811
   25SAPC   C14 3257   2.039   6.300   6.373 -0.2701  0.1596 -0.1226
   25SAPC  H14A 3258   2.006   6.209   6.324  1.9832 -2.8828  3.7222
   25SAPC  H14B 3259   2.142   6.303   6.405  0.2915 -1.2616 -1.7436
   25SAPC  H14C 3260   1.967   6.313   6.453 -0.0316  1.1692 -0.0794
   25SAPC   C15 3261   2.055   6.538   6.343 -0.4928 -0.0346 -0.1989
   25SAPC  H15A 3262   2.155   6.535   6.384  0.1311  2.3745 -1.4650
   25SAPC  H15B 3263   2.053   6.625   6.279 -2.5855 -1.3252 -1.9450
   25SAPC  H15C 3264   1.979   6.548   6.419 -1.2414 -1.9238 -0.6847
   25SAPC   C11 3265   2.138   6.492   6.054  0.3571 -0.4340  0.4900
   25SAPC  H11A 3266   2.034   6.509   6.017  0.6635 -1.4031 -0.8399
   25SAPC  H11B 3267   2.180   6.448   5.961  0.4713 -0.6973  0.6694
   25SAPC     P 3268   2.356   6.599   6.138 -0.6525  0.7123  0.0612
   25SAPC   O13 3269   2.397   6.466   6.179 -0.0040 -0.2101 -0.2642
   25SAPC   O14 3270   2.436   6.667   6.026 -0.2024  0.4905  0.2179
   25SAPC   O12 3271   2.202   6.607   6.100  0.1788 -0.0804  0.5610
   25SAPC   O11 3272   2.372   6.681   6.271  0.1579 -0.5559  0.7196
   25SAPC    C1 3273   2.325   6.818   6.279 -0.2849  0.3157 -0.5397
   25SAPC    HA 3274   2.357   6.880   6.193  0.6053  3.6563  2.1254
   25SAPC    HB 3275   2.214   6.828   6.289  0.0559  2.0468  1.9319
   25SAPC    C2 3276   2.381   6.882   6.406  0.0286 -0.2978 -0.0387
   25SAPC    HS 3277   2.490   6.860   6.415  0.0964  0.5634  1.3813
   25SAPC   O21 3278   2.311   6.841   6.523  0.2523 -0.4332 -0.0613
   25SAPC   C21 3279   2.365   6.743   6.590  0.7729  0.3675 -1.2479
   25SAPC   O22 3280   2.467   6.685   6.572  0.2249  0.8825 -0.1317
   25SAPC   C22 3281   2.267   6.717   6.717 -0.0752  0.2247 -0.3609
   25SAPC   H2R 3282   2.257   6.817   6.763  2.2921  0.7012 -0.8030
   25SAPC   H2S 3283   2.169   6.686   6.675  0.2262 -0.8239 -0.3137
   25SAPC    C3 3284   2.377   7.038   6.394 -0.3628 -0.0919 -0.0642
   25SAPC    HX 3285   2.273   7.049   6.356 -0.2023 -2.5209 -1.2753
   25SAPC    HY 3286   2.445   7.071   6.312 -0.7683  0.9432  0.0020
   25SAPC   O31 3287   2.420   7.105   6.515 -0.1003  0.4681 -0.0598
   25SAPC   C31 3288   2.326   7.146   6.596 -0.1736  1.4913 -0.2416
   25SAPC   O32 3289   2.209   7.116   6.599 -0.1205  0.4467  0.0882
   25SAPC   C32 3290   2.393   7.256   6.680 -0.1331  0.2198 -0.2141
   25SAPC   H2X 3291   2.336   7.287   6.771  0.7112  0.3923  0.2593
   25SAPC   H2Y 3292   2.395   7.346   6.616  1.6505  0.3648  0.0226
   25SAPC   C23 3293   2.316   6.631   6.831  0.3255 -0.0465  0.4356
   25SAPC   H3R 3294   2.422   6.657   6.851  0.4956  0.6766 -1.2661
   25SAPC   H3S 3295   2.310   6.521   6.816 -1.9995 -0.0489  1.2945
   25SAPC   C24 3296   2.240   6.649   6.958  0.4396 -0.1664 -0.0651
   25SAPC   H4R 3297   2.131   6.660   6.941  0.4541 -0.1889 -0.1720
   25SAPC   H4S 3298   2.275   6.751   6.986  2.1845 -0.5060 -0.9341
   25SAPC   C25 3299   2.276   6.566   7.072 -0.2980 -0.6212 -0.1399
   25SAPC   H5R 3300   2.361   6.501   7.047  1.8995  1.8004  0.6985
   25SAPC   C26 3301   2.211   6.562   7.188 -1.1688  0.3978 -0.4964
   25SAPC   H6R 3302   2.252   6.489   7.260 -1.1670 -0.9554 -1.8557
   25SAPC   C27 3303   2.089   6.640   7.228 -0.4476  0.2666 -0.1112
   25SAPC   H7R 3304   2.005   6.568   7.240 -0.2980  0.5393  3.0876
   25SAPC   H7S 3305   2.052   6.705   7.146  3.5407  1.2387 -1.2513
   25SAPC   C28 3306   2.109   6.714   7.356 -0.0441  0.3065 -0.0408
   25SAPC   H8R 3307   2.136   6.821   7.352  1.5375 -0.0265  1.2868
   25SAPC   C29 3308   2.089   6.659   7.478  0.3191  0.1301 -0.5368
   25SAPC   H9R 3309   2.116   6.717   7.568  1.6660 -1.2158 -0.0572
   25SAPC  C210 3310   2.057   6.515   7.501  0.5694  0.1349  0.0374
   25SAPC  H10R 3311   2.147   6.453   7.483  0.9750  0.8697 -0.5045
   25SAPC  H10S 3312   1.974   6.482   7.436  0.0341  2.8317 -0.7255
   25SAPC  C211 3313   2.011   6.483   7.639  0.1359  0.3429  0.3551
   25SAPC  H11R 3314   2.032   6.557   7.717 -0.8472  2.9869 -1.8083
   25SAPC  C212 3315   1.961   6.362   7.669  0.4135 -0.7252  0.5753
   25SAPC  H12R 3316   1.933   6.351   7.775 -0.0572 -0.1267  0.5131
   25SAPC  C213 3317   1.933   6.243   7.587 -0.3746 -0.5719 -0.3315
   25SAPC  H13R 3318   1.985   6.252   7.489 -0.6211  2.8459 -0.1932
   25SAPC  H13S 3319   1.822   6.244   7.578 -0.3038  2.1249 -1.4650
   25SAPC  C214 3320   1.982   6.118   7.660 -0.3560  0.6824 -0.0444
   25SAPC  H14R 3321   1.905   6.071   7.723 -0.2376 -0.0648 -0.4411
   25SAPC  C215 3322   2.106   6.065   7.650 -0.3352 -0.2431  0.0868
   25SAPC  H15R 3323   2.136   5.978   7.710 -0.9486 -1.4963 -1.4031
   25SAPC  C216 3324   2.216   6.123   7.561 -0.0164 -0.6367 -0.4284
   25SAPC  H16R 3325   2.241   6.227   7.590  0.3930 -0.4890 -1.2930
   25SAPC  H16S 3326   2.177   6.127   7.458 -1.9704 -0.5155  0.3017
   25SAPC  C217 3327   2.348   6.050   7.567 -0.3035  0.5245 -0.0053
   25SAPC  H17R 3328   2.328   5.945   7.536  2.0186  0.8879 -2.9131
   25SAPC  H17S 3329   2.402   6.056   7.663 -0.2235  0.4892 -0.0482
   25SAPC  C218 3330   2.452   6.105   7.470 -0.0062 -0.7927  0.0879
   25SAPC  H18R 3331   2.552   6.058   7.480  0.8475  0.5887 -1.7252
   25SAPC  H18S 3332   2.474   6.209   7.505 -0.7447 -1.1186  1.5658
   25SAPC  C219 3333   2.420   6.093   7.321 -0.2642  0.0726  0.0288
   25SAPC  H19R 3334   2.504   6.136   7.263  1.6060 -1.6864  1.3437
   25SAPC  H19S 3335   2.330   6.153   7.294 -1.1167 -1.5519 -0.7812
   25SAPC  C220 3336   2.418   5.953   7.268  0.1934  0.5038  0.1599
   25SAPC  H20R 3337   2.406   5.950   7.157  0.2069 -1.4741  0.1995
   25SAPC  H20S 3338   2.333   5.904   7.320  0.6234 -0.4325 -0.0170
   25SAPC  H20T 3339   2.512   5.902   7.295  0.8216  1.9664  0.7703
   25SAPC   C33 3340   2.523   7.202   6.741  0.6571  0.2383 -0.1792
   25SAPC   H3X 3341   2.550   7.275   6.819  2.2391  0.4406 -0.8993
   25SAPC   H3Y 3342   2.593   7.226   6.658 -0.8875 -1.1206 -1.9122
   25SAPC   C34 3343   2.543   7.053   6.784 -0.1697 -0.0599 -0.3344
   25SAPC   H4X 3344   2.651   7.036   6.803  0.1045  1.3315 -0.5711
   25SAPC   H4Y 3345   2.525   6.979   6.703  0.7169 -2.2522  1.4040
   25SAPC   C35 3346   2.474   7.017   6.913  0.3136  0.4488 -0.3769
   25SAPC   H5X 3347   2.514   6.919   6.948 -0.4735  0.7346  1.3799
   25SAPC   H5Y 3348   2.364   7.005   6.906 -0.1878  1.6178  3.9584
   25SAPC   C36 3349   2.496   7.115   7.034  0.3820  0.2233  0.2511
   25SAPC   H6X 3350   2.447   7.213   7.019  1.2406  0.6201  0.0163
   25SAPC   H6Y 3351   2.605   7.136   7.038  0.0427  1.8354  1.4509
   25SAPC   C37 3352   2.446   7.064   7.167  0.0005  0.2784  0.6572
   25SAPC   H7X 3353   2.335   7.061   7.174 -0.0370  1.5493  0.7261
   25SAPC   H7Y 3354   2.457   7.149   7.238  3.7738  1.7981 -1.5878
   25SAPC   C38 3355   2.517   6.945   7.232  0.3069 -0.0460  0.4396
   25SAPC   H8X 3356   2.624   6.969   7.248  0.1104  1.1238  0.0330
   25SAPC   H8Y 3357   2.513   6.862   7.158  0.1643 -1.7153  2.2656
   25SAPC   C39 3358   2.453   6.905   7.362 -0.1064  0.1366  0.3866
   25SAPC   H9X 3359   2.514   6.821   7.402  0.6333  0.7312  0.5151
   25SAPC   H9Y 3360   2.355   6.854   7.349 -0.6655  0.9492  1.3007
   25SAPC  C310 3361   2.452   7.011   7.482 -0.1952 -0.0451  0.2778
   25SAPC  H10X 3362   2.436   7.115   7.446 -2.1362 -0.2028  0.6214
   25SAPC  H10Y 3363   2.554   7.029   7.521 -0.8754 -0.6895  2.4260
   25SAPC  C311 3364   2.359   6.969   7.591 -0.3670 -0.1488 -0.1223
   25SAPC  H11X 3365   2.258   6.970   7.544 -0.9032 -0.7564  0.9937
   25SAPC  H11Y 3366   2.360   7.045   7.673  0.8357 -1.1376  0.8143
   25SAPC  C312 3367   2.387   6.831   7.655  0.0709  0.0060 -0.4576
   25SAPC  H12X 3368   2.491   6.836   7.695 -0.2614  1.5540  0.2574
   25SAPC  H12Y 3369   2.368   6.755   7.576 -0.9459 -0.2154 -0.0081
   25SAPC  C313 3370   2.277   6.811   7.753  0.1416 -0.2427 -0.4162
   25SAPC  H13X 3371   2.177   6.814   7.706 -1.0143 -1.7799  1.8683
   25SAPC  H13Y 3372   2.288   6.887   7.833  2.2960  0.4692 -1.3424
   25SAPC  C314 3373   2.298   6.676   7.838 -0.6001 -0.5174  0.1618
   25SAPC  H14X 3374   2.400   6.671   7.882  0.1445  0.0182 -1.4955
   25SAPC  H14Y 3375   2.284   6.592   7.767 -0.5162 -1.5941  1.3973
   25SAPC  C315 3376   2.190   6.643   7.943  0.4481  0.1609  0.7112
   25SAPC  H15X 3377   2.087   6.647   7.902  0.8042 -0.1134 -0.2406
   25SAPC  H15Y 3378   2.190   6.720   8.023 -1.4376  0.6729  0.2552
   25SAPC  C316 3379   2.223   6.509   8.007  0.3720  0.4267 -0.2951
   25SAPC  H16X 3380   2.318   6.520   8.062 -0.1292 -1.3952  0.9796
   25SAPC  H16Y 3381   2.240   6.434   7.927  1.1353  2.3486 -1.9715
   25SAPC  C317 3382   2.113   6.455   8.106  0.5625  0.1334  0.2337
   25SAPC  H17X 3383   2.011   6.475   8.065  1.2072  2.3577 -0.3970
   25SAPC  H17Y 3384   2.124   6.514   8.199  0.6357 -0.2667  0.4758
   25SAPC  C318 3385   2.130   6.302   8.127  0.1738  0.3097  0.2488
   25SAPC  H18X 3386   2.241   6.296   8.139  0.0762  2.0404  2.2834
   25SAPC  H18Y 3387   2.094   6.239   8.043  0.9326 -1.7693  1.4331
   25SAPC  H18Z 3388   2.079   6.272   8.220  2.2676  1.9735  1.9890
   26SAPC     N 3389   1.786   2.065   6.138 -0.5385 -0.2788 -0.0245
   26SAPC   C12 3390   1.741   2.150   6.256 -0.0211 -0.3526  0.8701
   26SAPC  H12A 3391   1.666   2.216   6.215  2.4114  0.5705 -2.3137
   26SAPC  H12B 3392   1.822   2.212   6.294  1.2426 -0.0010 -2.2466
   26SAPC   C13 3393   1.671   1.994   6.079 -0.4077  1.4039 -0.5751
   26SAPC  H13A 3394   1.596   2.064   6.043 -2.2624 -1.0567 -1.6158
   26SAPC  H13B 3395   1.692   1.914   6.011  1.4056  1.0814  0.3223
   26SAPC  H13C 3396   1.626   1.945   6.164  2.0178  0.0333 -0.0399
   26SAPC   C14 3397   1.842   2.153   6.033 -0.2291 -0.6872 -0.2286
   26SAPC  H14A 3398   1.770   2.218   5.985  1.5917 -0.2025 -2.3338
   26SAPC  H14B 3399   1.922   2.205   6.084 -1.2519 -1.5073  2.3404
   26SAPC  H14C 3400   1.898   2.100   5.958 -0.0010 -0.8596  0.0632
   26SAPC   C15 3401   1.889   1.972   6.188 -0.8336  0.1763  0.2359
   26SAPC  H15A 3402   1.949   1.923   6.112  2.7630  2.0087  1.7846
   26SAPC  H15B 3403   1.964   2.034   6.235  1.2319 -1.6914 -0.4626
   26SAPC  H15C 3404   1.852   1.904   6.263  0.4904  1.3547  1.9933
   26SAPC   C11 3405   1.686   2.077   6.383 -0.0559  0.2866  0.4751
   26SAPC  H11A 3406   1.667   2.143   6.471 -1.0604 -1.3566  1.5252
   26SAPC  H11B 3407   1.764   2.002   6.410  0.0779 -0.9883 -3.2718
   26SAPC     P 3408   1.506   1.872   6.392  0.0360  0.5269  0.1185
   26SAPC   O13 3409   1.406   1.898   6.503  0.0134 -0.4156 -0.2623
   26SAPC   O14 3410   1.459   1.804   6.271  0.5577 -0.1643  0.4197
   26SAPC   O12 3411   1.559   2.015   6.350 -0.2627  0.5815 -0.1721
   26SAPC   O11 3412   1.635   1.795   6.443  0.1190 -0.2211  0.3675
   26SAPC    C1 3413   1.696   1.821   6.570  0.2096  0.0535  0.0631
   26SAPC    HA 3414   1.797   1.865   6.553  1.3320 -2.2631  0.6297
   26SAPC    HB 3415   1.639   1.883   6.644  2.5821  0.4486  1.6197
   26SAPC    C2 3416   1.715   1.693   6.657 -0.1538  0.8127 -0.0748
   26SAPC    HS 3417   1.752   1.604   6.601  0.3456  1.4904 -0.8244
   26SAPC   O21 3418   1.586   1.662   6.702 -0.1652  0.1330 -0.3388
   26SAPC   C21 3419   1.557   1.538   6.733 -0.0002  0.0845  0.3853
   26SAPC   O22 3420   1.627   1.437   6.718 -0.0826 -0.1641 -0.6876
   26SAPC   C22 3421   1.413   1.532   6.788 -0.0316 -0.2357 -0.1522
   26SAPC   H2R 3422   1.400   1.633   6.833 -2.1383 -0.5041 -0.1173
   26SAPC   H2S 3423   1.342   1.521   6.704  2.3097 -2.1282 -1.9574
   26SAPC    C3 3424   1.802   1.722   6.785  0.6984 -0.2665 -0.4743
   26SAPC    HX 3425   1.903   1.725   6.739  0.8542  1.3734 -0.0622
   26SAPC    HY 3426   1.796   1.640   6.859 -0.1055 -0.1189 -0.3638
   26SAPC   O31 3427   1.769   1.850   6.856  0.2456  0.0672 -0.6740
   26SAPC   C31 3428   1.671   1.833   6.944 -0.0607 -0.6136  1.5247
   26SAPC   O32 3429   1.619   1.726   6.969  0.1459  0.9001 -0.1634
   26SAPC   C32 3430   1.623   1.971   6.994 -0.1439  0.6354  0.3250
   26SAPC   H2X 3431   1.521   1.948   7.033  0.0775 -0.3594  0.3503
   26SAPC   H2Y 3432   1.608   2.031   6.902  1.5607  0.5254 -0.0471
   26SAPC   C23 3433   1.396   1.418   6.898 -0.2281 -0.3348  0.2491
   26SAPC   H3R 3434   1.486   1.415   6.962  0.5233  0.1437 -0.7717
   26SAPC   H3S 3435   1.382   1.319   6.849  0.1860 -0.3450  0.1533
   26SAPC   C24 3436   1.266   1.430   6.977  0.4519 -0.2943 -0.2310
   26SAPC   H4R 3437   1.179   1.461   6.915 -1.5130 -0.7892  2.1650
   26SAPC   H4S 3438   1.286   1.505   7.057 -2.5152  0.9095 -0.5634
   26SAPC   C25 3439   1.213   1.300   7.036 -0.3954  0.3119  0.7676
   26SAPC   H5R 3440   1.146   1.236   6.976  0.0649 -0.0705  0.6585
   26SAPC   C26 3441   1.225   1.259   7.164  0.0758  0.5614 -0.2771
   26SAPC   H6R 3442   1.170   1.169   7.196  0.6472 -0.3305 -1.7412
   26SAPC   C27 3443   1.291   1.326   7.275 -0.0371 -0.1947  0.7516
   26SAPC   H7R 3444   1.389   1.366   7.242  0.2694 -0.1621  1.6905
   26SAPC   H7S 3445   1.316   1.245   7.346  0.5805  0.3284  1.1366
   26SAPC   C28 3446   1.221   1.434   7.354  1.0877 -0.2036  0.1284
   26SAPC   H8R 3447   1.166   1.511   7.297 -0.0285 -1.8249 -1.0431
   26SAPC   C29 3448   1.224   1.448   7.489 -0.1129  0.4224 -0.2442
   26SAPC   H9R 3449   1.189   1.539   7.539  0.2484  0.2817  0.2772
   26SAPC  C210 3450   1.307   1.360   7.585  0.1619 -0.0820  0.1259
   26SAPC  H10R 3451   1.405   1.341   7.537 -0.6299 -1.0540 -1.1502
   26SAPC  H10S 3452   1.267   1.257   7.595  0.4991 -0.1205  1.0774
   26SAPC  C211 3453   1.313   1.422   7.723  0.1111 -1.0481 -0.0950
   26SAPC  H11R 3454   1.214   1.420   7.772  0.3271 -1.0438  0.3495
   26SAPC  C212 3455   1.421   1.477   7.790 -0.1113 -0.4700  0.8662
   26SAPC  H12R 3456   1.413   1.505   7.896  0.7494 -0.3100  0.8856
   26SAPC  C213 3457   1.563   1.503   7.746 -0.3161  0.3248  0.2883
   26SAPC  H13R 3458   1.586   1.608   7.771 -0.3055  0.5377 -0.5914
   26SAPC  H13S 3459   1.576   1.496   7.636  0.5343 -0.2165  0.4187
   26SAPC  C214 3460   1.653   1.411   7.820  0.0540 -0.0513 -0.3585
   26SAPC  H14R 3461   1.667   1.319   7.762  0.4605  0.0031 -0.3510
   26SAPC  C215 3462   1.731   1.429   7.928  0.0186 -0.1335 -0.1483
   26SAPC  H15R 3463   1.791   1.346   7.967 -0.3323 -0.1660  0.3315
   26SAPC  C216 3464   1.738   1.549   8.019 -0.0813 -0.7587  0.2092
   26SAPC  H16R 3465   1.699   1.639   7.967  1.3551 -1.1700 -1.6503
   26SAPC  H16S 3466   1.843   1.566   8.053 -0.5174 -1.0434  1.7271
   26SAPC  C217 3467   1.635   1.531   8.136 -0.3227 -0.2340  0.3652
   26SAPC  H17R 3468   1.680   1.451   8.198  1.3850 -1.3172 -2.1945
   26SAPC  H17S 3469   1.536   1.500   8.097  0.3844  0.7348 -2.2528
   26SAPC  C218 3470   1.633   1.660   8.228 -0.1924 -0.9281 -0.1601
   26SAPC  H18R 3471   1.607   1.743   8.159  0.9605 -1.9376 -1.8631
   26SAPC  H18S 3472   1.738   1.676   8.262 -0.9449  3.5610  0.3197
   26SAPC  C219 3473   1.543   1.645   8.348 -0.5510 -0.3264 -0.2132
   26SAPC  H19R 3474   1.534   1.735   8.414  0.6333 -0.6157  0.3629
   26SAPC  H19S 3475   1.586   1.568   8.415 -0.5637  0.9074  1.2497
   26SAPC  C220 3476   1.398   1.614   8.315  0.1216  0.0671 -0.9920
   26SAPC  H20R 3477   1.377   1.666   8.219  1.9635  0.0308 -1.4303
   26SAPC  H20S 3478   1.327   1.654   8.392  2.6951 -0.8062  1.9155
   26SAPC  H20T 3479   1.376   1.506   8.300 -1.0302  0.1692 -0.1293
   26SAPC   C33 3480   1.712   2.025   7.102  0.1892 -0.3206  0.1199
   26SAPC   H3X 3481   1.680   2.128   7.129  1.4239  0.6110 -1.8292
   26SAPC   H3Y 3482   1.820   2.035   7.079 -0.1171  1.7210 -0.5185
   26SAPC   C34 3483   1.698   1.949   7.234  0.2484 -0.5882  0.1395
   26SAPC   H4X 3484   1.718   1.841   7.217 -0.2211 -0.8634  1.2962
   26SAPC   H4Y 3485   1.594   1.959   7.272 -1.4220 -0.6609 -4.1135
   26SAPC   C35 3486   1.803   2.003   7.334  0.3442  0.2803 -0.2414
   26SAPC   H5X 3487   1.785   2.107   7.368  1.7700  0.0978  1.0837
   26SAPC   H5Y 3488   1.903   2.004   7.285  0.8470 -0.3385  0.7613
   26SAPC   C36 3489   1.823   1.917   7.459 -0.2698  1.0093 -0.0744
   26SAPC   H6X 3490   1.892   1.832   7.446  1.5705  2.4158  0.2347
   26SAPC   H6Y 3491   1.723   1.879   7.490 -1.6150  4.3589 -0.0640
   26SAPC   C37 3492   1.864   1.991   7.588  0.5234 -0.1536 -0.3592
   26SAPC   H7X 3493   1.813   2.090   7.592 -0.3570 -0.5383 -1.7210
   26SAPC   H7Y 3494   1.975   2.000   7.584  0.5351  0.4193  0.8616
   26SAPC   C38 3495   1.846   1.909   7.712 -0.1438  0.1747  0.2057
   26SAPC   H8X 3496   1.900   1.814   7.693  2.0531  1.4969 -0.4118
   26SAPC   H8Y 3497   1.741   1.876   7.726 -0.5446  1.3971  0.1057
   26SAPC   C39 3498   1.896   1.984   7.832  0.0273  0.3415  0.0213
   26SAPC   H9X 3499   1.840   2.079   7.841  2.6510  2.4312 -3.9648
   26SAPC   H9Y 3500   1.998   2.022   7.809 -0.6195  2.6533  0.8301
   26SAPC  C310 3501   1.893   1.912   7.964  0.0608 -1.0887 -0.2308
   26SAPC  H10X 3502   1.967   1.830   7.964  2.0187  0.5987  1.8669
   26SAPC  H10Y 3503   1.786   1.881   7.967 -0.6041  1.1606  0.4520
   26SAPC  C311 3504   1.910   1.992   8.085 -0.6473 -0.3499 -1.0951
   26SAPC  H11X 3505   1.889   1.920   8.167  2.5251  1.0054  1.0453
   26SAPC  H11Y 3506   1.858   2.090   8.088  1.0580  0.5553 -0.1486
   26SAPC  C312 3507   2.061   2.028   8.104 -0.6118 -0.4827  0.5595
   26SAPC  H12X 3508   2.092   2.097   8.023 -2.4275  1.0549  1.1397
   26SAPC  H12Y 3509   2.121   1.934   8.096 -1.8048 -0.9441 -3.6152
   26SAPC  C313 3510   2.078   2.089   8.240 -0.0409 -0.4774 -0.9371
   26SAPC  H13X 3511   2.018   2.036   8.317  2.0566 -1.3396  0.1442
   26SAPC  H13Y 3512   2.028   2.189   8.234 -1.6239 -1.2126 -0.2953
   26SAPC  C314 3513   2.223   2.105   8.283 -0.3381 -0.0514  0.4079
   26SAPC  H14X 3514   2.277   2.159   8.202 -2.4539 -0.4168 -1.2792
   26SAPC  H14Y 3515   2.269   2.004   8.276  0.2637  0.3113 -1.2273
   26SAPC  C315 3516   2.248   2.164   8.421  0.1168 -0.2470 -0.2843
   26SAPC  H15X 3517   2.194   2.104   8.497  0.8143 -0.8519 -0.2636
   26SAPC  H15Y 3518   2.213   2.269   8.412 -1.6207 -0.7107  0.8452
   26SAPC  C316 3519   2.393   2.155   8.468 -0.8036  0.0305  0.1326
   26SAPC  H16X 3520   2.404   2.047   8.490 -0.1974  0.1097  0.2210
   26SAPC  H16Y 3521   2.404   2.208   8.565  1.5019  0.0784 -0.1360
   26SAPC  C317 3522   2.501   2.209   8.367  0.4783  0.2881 -1.1850
   26SAPC  H17X 3523   2.484   2.175   8.262 -0.4029  0.7101 -1.1848
   26SAPC  H17Y 3524   2.600   2.169   8.396  0.0552  0.6551  0.8139
   26SAPC  C318 3525   2.504   2.365   8.358  0.1405  0.3834  0.0591
   26SAPC  H18X 3526   2.520   2.421   8.452  2.2036 -1.4278  0.8171
   26SAPC  H18Y 3527   2.411   2.408   8.314  0.4144  1.6008  0.6421
   26SAPC  H18Z 3528   2.588   2.396   8.292 -1.2856  0.9403 -1.5450
   27SAPC     N 3529   6.273   2.371   6.383 -0.0350 -0.3431 -0.0324
   27SAPC   C12 3530   6.364   2.259   6.440 -0.3329  0.4268  0.1563
   27SAPC  H12A 3531   6.461   2.301   6.458  0.0068 -0.8808  1.4951
   27SAPC  H12B 3532   6.379   2.175   6.374 -0.8583 -1.6761  2.6257
   27SAPC   C13 3533   6.267   2.483   6.483 -0.4016  0.3065  0.3176
   27SAPC  H13A 3534   6.230   2.454   6.580  0.3219  0.9589  0.7902
   27SAPC  H13B 3535   6.364   2.530   6.483  1.1234 -2.6904  0.2536
   27SAPC  H13C 3536   6.207   2.564   6.443 -2.4114 -0.8028  1.0151
   27SAPC   C14 3537   6.335   2.427   6.260 -0.4731  0.0252  0.5243
   27SAPC  H14A 3538   6.331   2.349   6.185  0.9206  1.2437 -0.8319
   27SAPC  H14B 3539   6.290   2.518   6.225  2.0439  1.2915  0.4838
   27SAPC  H14C 3540   6.438   2.452   6.280  0.3953 -2.7188 -0.2731
   27SAPC   C15 3541   6.133   2.316   6.354 -0.6019  0.0917 -0.2534
   27SAPC  H15A 3542   6.127   2.231   6.287 -1.1154  1.8282 -2.4619
   27SAPC  H15B 3543   6.088   2.295   6.450  3.1096  0.3155  1.6228
   27SAPC  H15C 3544   6.074   2.390   6.302  0.3967  1.2915  0.2958
   27SAPC   C11 3545   6.312   2.196   6.575 -0.1864  0.5834 -0.8226
   27SAPC  H11A 3546   6.378   2.108   6.584  1.0931  1.5790 -0.3574
   27SAPC  H11B 3547   6.204   2.174   6.560  0.2576 -2.4159  0.0116
   27SAPC     P 3548   6.490   2.307   6.740 -0.4455 -0.1254  0.0721
   27SAPC   O13 3549   6.586   2.330   6.632 -0.1058 -0.0610 -0.0288
   27SAPC   O14 3550   6.494   2.400   6.853  0.4313  0.2154  0.3119
   27SAPC   O12 3551   6.346   2.295   6.675 -0.3091 -0.2318 -0.1883
   27SAPC   O11 3552   6.514   2.167   6.796 -0.8016  0.2059  0.4215
   27SAPC    C1 3553   6.417   2.091   6.873  0.1883 -0.1614 -0.1027
   27SAPC    HA 3554   6.456   2.091   6.977  0.1205  2.5458 -0.0203
   27SAPC    HB 3555   6.320   2.145   6.879  0.7663  0.8637  0.2315
   27SAPC    C2 3556   6.398   1.945   6.835 -0.9719  0.9304  0.0857
   27SAPC    HS 3557   6.316   1.930   6.763  0.2528 -2.1121 -0.7706
   27SAPC   O21 3558   6.364   1.883   6.964 -0.0060 -0.0927  0.4104
   27SAPC   C21 3559   6.240   1.878   7.010  0.5315  0.6190  0.0015
   27SAPC   O22 3560   6.144   1.909   6.945  0.2824 -0.0063 -0.4325
   27SAPC   C22 3561   6.228   1.835   7.155 -0.7714 -0.0590  0.3643
   27SAPC   H2R 3562   6.135   1.871   7.203 -0.5981 -0.1320  0.7566
   27SAPC   H2S 3563   6.215   1.725   7.148 -0.0668  0.0301 -3.0348
   27SAPC    C3 3564   6.529   1.887   6.781 -0.0560  0.2234  0.5291
   27SAPC    HX 3565   6.614   1.902   6.851  0.0608  0.0191  0.4307
   27SAPC    HY 3566   6.557   1.931   6.683 -0.2560  0.5940  0.6353
   27SAPC   O31 3567   6.503   1.748   6.742  0.2333  0.1638  0.6051
   27SAPC   C31 3568   6.594   1.656   6.765 -0.6490  0.3621 -0.3361
   27SAPC   O32 3569   6.708   1.684   6.797  0.0384  0.2091  0.5023
   27SAPC   C32 3570   6.543   1.518   6.750 -0.2933 -0.0303 -0.2768
   27SAPC   H2X 3571   6.616   1.448   6.706  0.1193 -0.9036  1.7573
   27SAPC   H2Y 3572   6.449   1.516   6.691 -0.8938  0.1454  0.6608
   27SAPC   C23 3573   6.347   1.854   7.247 -0.2287 -0.0657  0.2168
   27SAPC   H3R 3574   6.359   1.963   7.265  0.9483 -0.3683  1.3082
   27SAPC   H3S 3575   6.435   1.807   7.198  2.0326  1.2969  2.8180
   27SAPC   C24 3576   6.340   1.780   7.379 -0.1286 -0.0793 -0.3424
   27SAPC   H4R 3577   6.441   1.793   7.424  0.0832 -0.2813 -0.7571
   27SAPC   H4S 3578   6.330   1.673   7.352 -1.7930  0.3251 -1.3710
   27SAPC   C25 3579   6.227   1.826   7.468  0.1482 -0.4384 -0.2152
   27SAPC   H5R 3580   6.157   1.894   7.418  0.6835  0.1213 -0.2124
   27SAPC   C26 3581   6.224   1.829   7.603  0.1962 -0.8118  1.1227
   27SAPC   H6R 3582   6.128   1.854   7.651 -1.8949 -1.8473 -2.3222
   27SAPC   C27 3583   6.329   1.774   7.692 -0.1289  0.3094 -0.2614
   27SAPC   H7R 3584   6.431   1.766   7.649  0.3858  0.6772  0.8933
   27SAPC   H7S 3585   6.305   1.668   7.714  1.3739  0.0159  0.0024
   27SAPC   C28 3586   6.359   1.846   7.823  0.8501  0.0809 -0.8512
   27SAPC   H8R 3587   6.443   1.917   7.816  1.7151 -0.7489  0.9475
   27SAPC   C29 3588   6.303   1.840   7.941 -0.4984  0.0235 -0.5255
   27SAPC   H9R 3589   6.351   1.904   8.017 -1.1764 -0.7526  0.5622
   27SAPC  C210 3590   6.188   1.762   7.995  0.1314 -0.1574  0.7171
   27SAPC  H10R 3591   6.201   1.654   7.974  0.3879  0.3049 -1.6551
   27SAPC  H10S 3592   6.103   1.803   7.937  1.5214 -1.7624 -2.5658
   27SAPC  C211 3593   6.163   1.775   8.139 -0.4860  0.9262 -0.0285
   27SAPC  H11R 3594   6.068   1.825   8.163  1.2939  2.9093  3.1015
   27SAPC  C212 3595   6.248   1.732   8.235 -0.4581 -0.7773  0.4767
   27SAPC  H12R 3596   6.224   1.748   8.341  1.4478  2.6214  0.4435
   27SAPC  C213 3597   6.375   1.651   8.224 -0.5231 -0.3046 -0.1030
   27SAPC  H13R 3598   6.393   1.639   8.115 -0.6811  0.3613 -0.2063
   27SAPC  H13S 3599   6.355   1.550   8.263  1.3431 -0.1391  1.3515
   27SAPC  C214 3600   6.479   1.729   8.292  0.8294  0.4842 -0.3445
   27SAPC  H14R 3601   6.509   1.820   8.238  1.8715  0.8109  0.7538
   27SAPC  C215 3602   6.538   1.708   8.411  0.0335 -0.1956  0.1423
   27SAPC  H15R 3603   6.619   1.777   8.438 -2.6085  2.9789  0.2695
   27SAPC  C216 3604   6.509   1.596   8.507 -0.6359  0.4612  0.1103
   27SAPC  H16R 3605   6.597   1.560   8.564 -1.2617  0.1666  0.9071
   27SAPC  H16S 3606   6.471   1.505   8.455 -0.4365  0.5098 -0.1206
   27SAPC  C217 3607   6.387   1.639   8.594 -0.7369 -0.8500  0.5440
   27SAPC  H17R 3608   6.299   1.678   8.539  0.3029 -0.1947 -0.6729
   27SAPC  H17S 3609   6.428   1.719   8.659 -1.0547 -1.0638  1.0086
   27SAPC  C218 3610   6.345   1.525   8.679  1.0140 -0.1087 -0.6759
   27SAPC  H18R 3611   6.421   1.512   8.759  0.8419  1.2988 -0.2728
   27SAPC  H18S 3612   6.363   1.430   8.624  0.5283 -0.4480 -0.2486
   27SAPC  C219 3613   6.208   1.530   8.746  0.1636 -0.4838  0.5699
   27SAPC  H19R 3614   6.200   1.444   8.815  0.5413 -0.0955  1.1009
   27SAPC  H19S 3615   6.135   1.534   8.662  2.8125 -1.4684 -1.8793
   27SAPC  C220 3616   6.177   1.659   8.817  0.6982 -1.0777 -0.6966
   27SAPC  H20R 3617   6.072   1.660   8.855  1.6851 -0.1228  2.0864
   27SAPC  H20S 3618   6.194   1.750   8.754  2.2932 -0.6285  0.3772
   27SAPC  H20T 3619   6.245   1.666   8.904  1.5859 -1.9178 -1.3205
   27SAPC   C33 3620   6.516   1.468   6.895 -0.2310 -0.3449 -0.3032
   27SAPC   H3X 3621   6.600   1.464   6.968 -0.6799 -0.0895  0.2343
   27SAPC   H3Y 3622   6.508   1.362   6.862  0.6683 -0.0403 -1.5071
   27SAPC   C34 3623   6.393   1.525   6.965 -0.1407 -0.6472 -0.2590
   27SAPC   H4X 3624   6.298   1.537   6.908 -0.9759  0.0863  1.2607
   27SAPC   H4Y 3625   6.419   1.620   7.017  0.1725 -0.1705 -1.2605
   27SAPC   C35 3626   6.353   1.431   7.084 -0.3529  0.1377 -0.0405
   27SAPC   H5X 3627   6.333   1.325   7.059 -0.4644 -0.0523  0.8332
   27SAPC   H5Y 3628   6.254   1.472   7.114 -0.8637 -1.4078  0.4612
   27SAPC   C36 3629   6.458   1.437   7.195 -0.1784 -0.1551  0.2785
   27SAPC   H6X 3630   6.493   1.538   7.225 -2.4459  0.7796 -0.0726
   27SAPC   H6Y 3631   6.547   1.373   7.181 -1.0389 -1.4650  0.6704
   27SAPC   C37 3632   6.415   1.382   7.332 -0.5730 -0.5639 -0.1055
   27SAPC   H7X 3633   6.416   1.272   7.326 -1.1052 -0.5237 -0.9661
   27SAPC   H7Y 3634   6.312   1.421   7.346 -0.8634 -1.3167 -0.1199
   27SAPC   C38 3635   6.492   1.445   7.447  0.4195  0.7360  0.3345
   27SAPC   H8X 3636   6.482   1.555   7.458 -4.3203  0.9014 -3.4151
   27SAPC   H8Y 3637   6.599   1.429   7.422  0.2571  0.0358  0.0667
   27SAPC   C39 3638   6.458   1.376   7.581  0.3707  0.2321  0.4961
   27SAPC   H9X 3639   6.407   1.279   7.562 -2.2960  1.6311  0.3078
   27SAPC   H9Y 3640   6.388   1.432   7.646 -1.7725 -1.2293 -0.4774
   27SAPC  C310 3641   6.588   1.364   7.666 -0.2503  0.3623  0.3757
   27SAPC  H10X 3642   6.630   1.466   7.675 -1.0971  0.5932  1.8857
   27SAPC  H10Y 3643   6.657   1.302   7.605 -0.5599  1.4158 -1.0740
   27SAPC  C311 3644   6.556   1.295   7.807 -0.1830 -0.9476 -0.2080
   27SAPC  H11X 3645   6.505   1.198   7.789 -0.9099 -0.6821  0.3816
   27SAPC  H11Y 3646   6.481   1.362   7.855  2.4465  1.4676  0.6963
   27SAPC  C312 3647   6.685   1.272   7.895 -0.0009  0.4974  0.2699
   27SAPC  H12X 3648   6.728   1.369   7.928  2.3071  0.0050 -1.1911
   27SAPC  H12Y 3649   6.770   1.223   7.843  2.1322  0.9406  3.2156
   27SAPC  C313 3650   6.643   1.169   8.001  0.2158  0.1996  0.2548
   27SAPC  H13X 3651   6.619   1.069   7.961  2.0144 -0.4168  0.6660
   27SAPC  H13Y 3652   6.551   1.221   8.035  0.3540 -0.7410  2.1504
   27SAPC  C314 3653   6.752   1.154   8.121 -0.5615 -0.4005 -0.0076
   27SAPC  H14X 3654   6.849   1.139   8.069 -0.6183  1.4012 -0.6700
   27SAPC  H14Y 3655   6.725   1.064   8.180  1.1743 -2.2182 -1.8754
   27SAPC  C315 3656   6.751   1.275   8.217 -0.2608 -0.8586 -0.6553
   27SAPC  H15X 3657   6.649   1.281   8.261 -0.5313  0.0734 -1.4138
   27SAPC  H15Y 3658   6.784   1.367   8.164 -0.4553 -0.6911 -0.4838
   27SAPC  C316 3659   6.838   1.260   8.343 -0.6371  0.0141 -0.0083
   27SAPC  H16X 3660   6.946   1.278   8.320 -0.2289 -1.9403  0.3069
   27SAPC  H16Y 3661   6.832   1.159   8.389 -1.4538 -0.2448 -0.6865
   27SAPC  C317 3662   6.812   1.382   8.441 -0.5764 -0.1183 -0.0362
   27SAPC  H17X 3663   6.707   1.367   8.473 -0.5935  0.4027  0.1440
   27SAPC  H17Y 3664   6.833   1.482   8.399 -0.9309  0.6584  1.6301
   27SAPC  C318 3665   6.900   1.365   8.566 -0.2126  0.5139 -0.1922
   27SAPC  H18X 3666   7.010   1.366   8.546  0.2800  1.0299  2.3472
   27SAPC  H18Y 3667   6.873   1.264   8.603 -0.2986 -0.2886 -2.4044
   27SAPC  H18Z 3668   6.873   1.442   8.641 -1.0758 -1.2348  1.3482
   28SAPC     N 3669   4.802   5.860   6.319 -0.2869 -0.7125 -0.1948
   28SAPC   C12 3670   4.856   5.721   6.318 -0.1532  0.6443  0.7273
   28SAPC  H12A 3671   4.946   5.716   6.259 -1.6789 -2.9849 -1.4621
   28SAPC  H12B 3672   4.794   5.657   6.257 -0.4013  1.0316  0.5711
   28SAPC   C13 3673   4.827   5.933   6.187  0.0096 -0.1680 -0.5138
   28SAPC  H13A 3674   4.932   5.936   6.165  0.4011  1.8459  1.4233
   28SAPC  H13B 3675   4.773   5.884   6.107 -2.0208 -1.4877  1.5856
   28SAPC  H13C 3676   4.802   6.038   6.192  0.3239 -0.0652 -1.0526
   28SAPC   C14 3677   4.661   5.853   6.351  0.3505 -0.7359 -0.2113
   28SAPC  H14A 3678   4.612   5.797   6.274 -0.9355  0.8188 -0.5648
   28SAPC  H14B 3679   4.655   5.801   6.446 -0.3904 -1.1959 -0.5075
   28SAPC  H14C 3680   4.626   5.955   6.367 -1.5881 -0.9910 -2.4934
   28SAPC   C15 3681   4.881   5.941   6.416 -1.1164  0.7070  0.3640
   28SAPC  H15A 3682   4.851   6.045   6.423  1.1157  1.5840 -2.1330
   28SAPC  H15B 3683   4.868   5.897   6.513  0.4204  0.2278  0.3608
   28SAPC  H15C 3684   4.985   5.941   6.388 -1.4574  2.5343 -1.0361
   28SAPC   C11 3685   4.872   5.635   6.447 -1.1641  0.3462 -0.2120
   28SAPC  H11A 3686   4.930   5.704   6.512 -0.9080  0.7554 -0.8748
   28SAPC  H11B 3687   4.936   5.550   6.414 -1.0178  0.4098 -0.0950
   28SAPC     P 3688   4.666   5.492   6.437 -0.1335 -0.0003 -0.0503
   28SAPC   O13 3689   4.525   5.504   6.475 -0.1327 -0.2572 -0.1890
   28SAPC   O14 3690   4.672   5.494   6.290 -0.3367 -0.7790  0.6238
   28SAPC   O12 3691   4.751   5.604   6.500 -0.5238  0.0617 -0.5711
   28SAPC   O11 3692   4.720   5.350   6.482  0.2205 -0.0495 -0.0954
   28SAPC    C1 3693   4.788   5.323   6.609  0.4221  0.9493 -1.0623
   28SAPC    HA 3694   4.852   5.232   6.607  0.6972  1.1681 -2.5495
   28SAPC    HB 3695   4.855   5.409   6.632 -1.1987  2.0745 -0.4148
   28SAPC    C2 3696   4.685   5.303   6.727 -0.4227  0.0333  0.4488
   28SAPC    HS 3697   4.616   5.224   6.689  2.5571 -1.7340 -1.4444
   28SAPC   O21 3698   4.619   5.426   6.764  0.2690 -0.1207  0.4034
   28SAPC   C21 3699   4.497   5.409   6.817 -0.4742 -0.6036  0.3401
   28SAPC   O22 3700   4.447   5.301   6.838  0.5984  0.3461 -0.4143
   28SAPC   C22 3701   4.428   5.545   6.839  0.2887 -0.4985 -0.6282
   28SAPC   H2R 3702   4.470   5.619   6.768  0.2080  1.2972  1.1270
   28SAPC   H2S 3703   4.322   5.528   6.810  1.2057 -1.3506 -3.6891
   28SAPC    C3 3704   4.767   5.239   6.843  0.4956  0.0022 -0.4271
   28SAPC    HX 3705   4.785   5.133   6.815  0.5389 -0.5376  1.5008
   28SAPC    HY 3706   4.692   5.235   6.926  1.1859  0.3966  0.2201
   28SAPC   O31 3707   4.886   5.303   6.871 -0.1617 -0.2284  0.2175
   28SAPC   C31 3708   4.873   5.414   6.957  0.1290 -0.2223  0.1288
   28SAPC   O32 3709   4.770   5.451   7.008  0.1780  0.0638 -0.0645
   28SAPC   C32 3710   5.003   5.493   6.957  0.0900  0.4867 -0.2431
   28SAPC   H2X 3711   5.014   5.553   6.864  0.3570  2.6451  1.1671
   28SAPC   H2Y 3712   5.085   5.418   6.951  0.7118  1.1440  0.0020
   28SAPC   C23 3713   4.453   5.610   6.980 -0.2183  0.4837 -0.5721
   28SAPC   H3R 3714   4.416   5.714   6.966  1.3841  1.2889  0.9055
   28SAPC   H3S 3715   4.563   5.600   6.998 -0.5361 -1.3808  0.4453
   28SAPC   C24 3716   4.370   5.557   7.096  0.0260 -0.4664 -0.1282
   28SAPC   H4R 3717   4.262   5.580   7.084 -0.4898 -0.3962  3.8752
   28SAPC   H4S 3718   4.385   5.448   7.105  0.2261 -0.2724  2.3544
   28SAPC   C25 3719   4.421   5.635   7.216 -0.2869  0.3363  0.2558
   28SAPC   H5R 3720   4.386   5.738   7.232 -1.5007 -0.2045  1.1266
   28SAPC   C26 3721   4.510   5.587   7.311  0.3520  0.1036  0.8164
   28SAPC   H6R 3722   4.522   5.647   7.402  0.6432  0.3615  0.6112
   28SAPC   C27 3723   4.573   5.450   7.319  0.2103  0.1485 -0.0325
   28SAPC   H7R 3724   4.587   5.406   7.218  0.3172 -2.9846  1.2904
   28SAPC   H7S 3725   4.518   5.384   7.389  0.1534  1.1914  0.9131
   28SAPC   C28 3726   4.711   5.472   7.361 -0.2416 -0.2062  0.5849
   28SAPC   H8R 3727   4.780   5.495   7.279  0.3615  2.0253  1.6836
   28SAPC   C29 3728   4.766   5.443   7.478  0.0081 -0.1251  0.2389
   28SAPC   H9R 3729   4.875   5.458   7.488  0.3063 -2.5285  0.8575
   28SAPC  C210 3730   4.701   5.399   7.606  0.0714  0.1417 -0.2361
   28SAPC  H10R 3731   4.590   5.398   7.600 -0.0051 -0.4148  1.2251
   28SAPC  H10S 3732   4.727   5.483   7.675  1.0834  0.4347 -0.9576
   28SAPC  C211 3733   4.742   5.270   7.678 -0.5017  0.1445  0.4500
   28SAPC  H11R 3734   4.801   5.202   7.616 -0.3092 -0.3089  1.1288
   28SAPC  C212 3735   4.737   5.236   7.806 -0.3641  0.1497  0.1765
   28SAPC  H12R 3736   4.785   5.140   7.830 -1.5410  0.3068  3.2519
   28SAPC  C213 3737   4.684   5.318   7.921 -0.5282 -0.9283  0.3446
   28SAPC  H13R 3738   4.631   5.409   7.884 -1.8009 -1.1174  1.6208
   28SAPC  H13S 3739   4.762   5.350   7.994  0.4734 -0.3703 -0.9454
   28SAPC  C214 3740   4.585   5.240   8.001  0.3796 -0.5584  0.2674
   28SAPC  H14R 3741   4.480   5.245   7.967  0.8237  0.7017 -0.9431
   28SAPC  C215 3742   4.606   5.163   8.112  0.2435 -0.4258 -0.8126
   28SAPC  H15R 3743   4.523   5.105   8.156 -0.2755  2.3439  2.0472
   28SAPC  C216 3744   4.742   5.147   8.182 -0.3987  0.4301  0.0733
   28SAPC  H16R 3745   4.736   5.177   8.289 -1.3956 -0.8207  0.3821
   28SAPC  H16S 3746   4.817   5.217   8.141 -0.7309 -0.1784 -1.6344
   28SAPC  C217 3747   4.791   5.004   8.160  0.2154  0.3759  1.0248
   28SAPC  H17R 3748   4.894   4.989   8.199  0.7409  0.9060 -0.1152
   28SAPC  H17S 3749   4.797   4.976   8.052  4.5091 -0.8732  1.4880
   28SAPC  C218 3750   4.716   4.895   8.235 -0.3500  0.1926  0.7685
   28SAPC  H18R 3751   4.615   4.888   8.190  0.0529 -0.7681  0.0144
   28SAPC  H18S 3752   4.699   4.905   8.345 -1.1264  0.1120  0.6592
   28SAPC  C219 3753   4.777   4.753   8.222  0.3818 -0.0100 -0.1017
   28SAPC  H19R 3754   4.808   4.727   8.119 -0.2541 -0.2491 -0.2344
   28SAPC  H19S 3755   4.691   4.684   8.240 -0.3968  0.2907 -2.4632
   28SAPC  C220 3756   4.882   4.711   8.323 -0.6074  0.3197 -0.8624
   28SAPC  H20R 3757   4.979   4.764   8.314 -0.3606 -0.4005 -2.5527
   28SAPC  H20S 3758   4.911   4.605   8.313 -2.4488 -0.2929 -0.1040
   28SAPC  H20T 3759   4.848   4.730   8.428  1.2370 -1.0913  0.0140
   28SAPC   C33 3760   5.017   5.582   7.086  0.5849 -0.2689  0.0647
   28SAPC   H3X 3761   4.926   5.643   7.107  0.4927 -0.1199 -0.7764
   28SAPC   H3Y 3762   5.097   5.657   7.073  0.3831  0.4784  2.7059
   28SAPC   C34 3763   5.063   5.505   7.210 -0.2941  0.1239 -0.0501
   28SAPC   H4X 3764   5.159   5.455   7.183 -0.0109  0.9122 -0.4999
   28SAPC   H4Y 3765   4.996   5.419   7.234  1.9454 -1.0760  2.2029
   28SAPC   C35 3766   5.079   5.596   7.330 -0.1444 -0.3525 -0.6656
   28SAPC   H5X 3767   4.985   5.645   7.363 -0.2193 -1.5395  0.9461
   28SAPC   H5Y 3768   5.149   5.678   7.303 -0.7613 -0.0059 -1.2095
   28SAPC   C36 3769   5.121   5.518   7.450 -0.0366 -0.4286  1.0976
   28SAPC   H6X 3770   5.231   5.521   7.432 -0.5528  1.2928 -2.1105
   28SAPC   H6Y 3771   5.067   5.421   7.456  0.0535 -0.8207 -3.0149
   28SAPC   C37 3772   5.122   5.594   7.587  0.1330 -0.0486 -0.0410
   28SAPC   H7X 3773   5.056   5.683   7.586  0.5812  0.2825 -0.5786
   28SAPC   H7Y 3774   5.225   5.630   7.608  0.5709 -2.0698  1.3546
   28SAPC   C38 3775   5.066   5.503   7.695  0.0581 -0.0579  0.2932
   28SAPC   H8X 3776   5.105   5.404   7.667  0.8550 -0.0368  1.2895
   28SAPC   H8Y 3777   4.955   5.493   7.694  0.1030 -0.5359 -0.5077
   28SAPC   C39 3778   5.108   5.550   7.838  0.0215 -1.1604  0.3898
   28SAPC   H9X 3779   5.062   5.650   7.849 -0.8347 -1.6145  0.9696
   28SAPC   H9Y 3780   5.219   5.550   7.831  0.0270 -0.6830  0.4978
   28SAPC  C310 3781   5.049   5.449   7.939 -0.2647  0.2208 -0.3458
   28SAPC  H10X 3782   4.939   5.446   7.921 -0.4930 -1.6136  1.1894
   28SAPC  H10Y 3783   5.061   5.483   8.044 -1.6480 -1.5484  0.4329
   28SAPC  C311 3784   5.100   5.299   7.918 -0.0318  0.6735 -0.5191
   28SAPC  H11X 3785   5.200   5.308   7.872 -0.2907  0.9627 -1.0353
   28SAPC  H11Y 3786   5.031   5.249   7.848  0.5326 -2.6090  1.1632
   28SAPC  C312 3787   5.115   5.215   8.054  0.0997 -0.2295  0.6348
   28SAPC  H12X 3788   5.009   5.192   8.077 -1.0696  0.7090 -3.4396
   28SAPC  H12Y 3789   5.169   5.270   8.134  3.0432  0.7201 -1.9216
   28SAPC  C313 3790   5.184   5.077   8.027 -0.0302 -0.5690  0.7673
   28SAPC  H13X 3791   5.281   5.103   7.978  0.5336  1.1421  2.7205
   28SAPC  H13Y 3792   5.132   5.010   7.955 -0.9361  0.5354  0.3842
   28SAPC  C314 3793   5.205   4.999   8.155  0.3650 -0.1574 -0.2875
   28SAPC  H14X 3794   5.109   4.998   8.211  0.4935  1.9579 -0.0088
   28SAPC  H14Y 3795   5.277   5.059   8.214 -0.0275  0.3352 -0.3027
   28SAPC  C315 3796   5.258   4.862   8.124 -0.1407  0.1584 -0.1742
   28SAPC  H15X 3797   5.337   4.866   8.045 -0.7949  1.3817 -0.7968
   28SAPC  H15Y 3798   5.174   4.803   8.080 -1.1925  0.7581  0.9866
   28SAPC  C316 3799   5.306   4.782   8.247 -0.3118  0.2691 -0.2545
   28SAPC  H16X 3800   5.226   4.742   8.313  0.8679 -1.9705 -0.1097
   28SAPC  H16Y 3801   5.359   4.856   8.311 -1.1268  0.8178 -0.2043
   28SAPC  C317 3802   5.385   4.658   8.217  0.8334  0.5798  0.0212
   28SAPC  H17X 3803   5.415   4.622   8.318  0.1034  0.3387  0.1620
   28SAPC  H17Y 3804   5.474   4.680   8.156  2.3327 -0.3656  1.7965
   28SAPC  C318 3805   5.317   4.538   8.154  0.1974 -0.5767  0.3009
   28SAPC  H18X 3806   5.392   4.459   8.135 -0.2372 -0.2376 -3.1454
   28SAPC  H18Y 3807   5.293   4.570   8.050 -1.5331  2.4641  1.5636
   28SAPC  H18Z 3808   5.231   4.497   8.211 -0.4425 -0.4916 -0.5956
   29SAPC     N 3809   1.244   2.170   6.294 -0.0525 -0.2466 -0.3965
   29SAPC   C12 3810   1.141   2.269   6.230 -0.1415  1.1719 -0.0180
   29SAPC  H12A 3811   1.064   2.210   6.183 -0.2370  0.7242  0.6824
   29SAPC  H12B 3812   1.191   2.318   6.148 -2.0603  0.4050 -1.6843
   29SAPC   C13 3813   1.368   2.239   6.347 -0.2244  0.3653 -0.1881
   29SAPC  H13A 3814   1.344   2.303   6.430  0.9637  0.6014 -0.0278
   29SAPC  H13B 3815   1.438   2.168   6.389 -0.5256 -0.0351 -0.3504
   29SAPC  H13C 3816   1.423   2.295   6.273  2.0400 -0.4202  0.8400
   29SAPC   C14 3817   1.186   2.089   6.406 -1.4330 -0.3506 -0.1930
   29SAPC  H14A 3818   1.166   2.156   6.488 -0.1170 -0.0109 -0.1400
   29SAPC  H14B 3819   1.092   2.042   6.380 -2.0913 -0.3757  2.1088
   29SAPC  H14C 3820   1.261   2.016   6.431  1.1373  2.8650  1.7602
   29SAPC   C15 3821   1.291   2.074   6.183  0.4278 -0.6222 -0.5353
   29SAPC  H15A 3822   1.215   2.006   6.148 -0.4994  1.9357 -3.7609
   29SAPC  H15B 3823   1.328   2.131   6.098 -0.7159 -0.7907 -1.1490
   29SAPC  H15C 3824   1.362   2.004   6.226  0.7467 -1.5522 -2.5145
   29SAPC   C11 3825   1.077   2.369   6.318 -0.8050 -0.5701 -0.3319
   29SAPC  H11A 3826   1.148   2.452   6.344  0.7503 -1.8010 -0.5672
   29SAPC  H11B 3827   1.045   2.320   6.412  1.7279 -1.1604  0.2546
   29SAPC     P 3828   0.834   2.384   6.275 -0.0161 -0.4045 -0.0146
   29SAPC   O13 3829   0.734   2.475   6.207 -0.8176 -0.2144 -0.0427
   29SAPC   O14 3830   0.829   2.242   6.246  0.4662  0.0848  0.0068
   29SAPC   O12 3831   0.977   2.437   6.240  0.2039 -0.1221  0.5227
   29SAPC   O11 3832   0.823   2.421   6.420 -0.4973  0.2844 -0.2021
   29SAPC    C1 3833   0.801   2.554   6.465 -0.6775 -0.1647 -0.2262
   29SAPC    HA 3834   0.865   2.625   6.408  1.1137 -1.1520  0.5408
   29SAPC    HB 3835   0.693   2.581   6.455 -0.9215 -2.0275 -3.3460
   29SAPC    C2 3836   0.829   2.573   6.611  0.0187  0.0826  0.4614
   29SAPC    HS 3837   0.799   2.674   6.645 -2.0134 -0.7096  1.1064
   29SAPC   O21 3838   0.967   2.552   6.654 -0.9441  0.7923 -0.1362
   29SAPC   C21 3839   1.065   2.630   6.606 -0.0357  0.1580  0.3364
   29SAPC   O22 3840   1.044   2.728   6.542 -0.3956  0.4917  0.5892
   29SAPC   C22 3841   1.204   2.582   6.649 -0.3679 -0.0563  0.1652
   29SAPC   H2R 3842   1.247   2.548   6.553 -0.4856  1.0455 -0.2869
   29SAPC   H2S 3843   1.262   2.673   6.676 -0.4699  0.9899 -2.9094
   29SAPC    C3 3844   0.734   2.475   6.689  0.1678  0.2219 -0.8223
   29SAPC    HX 3845   0.759   2.371   6.657 -1.1342 -0.2849 -0.2397
   29SAPC    HY 3846   0.630   2.504   6.666  0.6979  3.0997  0.2401
   29SAPC   O31 3847   0.738   2.499   6.828 -0.5724 -0.2036 -0.1562
   29SAPC   C31 3848   0.767   2.399   6.912 -0.1569 -0.2091  0.0235
   29SAPC   O32 3849   0.789   2.287   6.876 -0.5726  0.0509 -0.2665
   29SAPC   C32 3850   0.782   2.460   7.051 -0.7517 -0.4445 -0.2292
   29SAPC   H2X 3851   0.680   2.485   7.087 -1.3233 -1.5578 -1.0754
   29SAPC   H2Y 3852   0.841   2.553   7.040  0.5538 -1.1610  0.6069
   29SAPC   C23 3853   1.216   2.469   6.757 -0.1019 -0.7488  0.0577
   29SAPC   H3R 3854   1.140   2.398   6.719  0.1941 -0.5079 -1.0040
   29SAPC   H3S 3855   1.172   2.507   6.851  0.6291  1.1326 -0.3395
   29SAPC   C24 3856   1.360   2.412   6.771  0.4870 -0.3277  0.1437
   29SAPC   H4R 3857   1.420   2.489   6.823 -3.4040  1.7439  1.7655
   29SAPC   H4S 3858   1.403   2.393   6.670 -0.6864  2.0381 -0.8116
   29SAPC   C25 3859   1.340   2.288   6.845 -1.2887  0.3341 -0.2898
   29SAPC   H5R 3860   1.296   2.209   6.783 -0.2628 -0.0159 -0.5738
   29SAPC   C26 3861   1.354   2.264   6.978 -0.6264  0.6189  1.3667
   29SAPC   H6R 3862   1.326   2.164   7.017 -1.3156  1.0503  1.9856
   29SAPC   C27 3863   1.389   2.368   7.086  0.4038  0.3936  0.4031
   29SAPC   H7R 3864   1.387   2.470   7.044  0.1515 -0.3082 -1.3158
   29SAPC   H7S 3865   1.496   2.350   7.111  0.1575 -0.9010  0.5642
   29SAPC   C28 3866   1.302   2.363   7.211  0.6600 -0.2285 -0.0292
   29SAPC   H8R 3867   1.198   2.386   7.182  0.3293 -2.6567 -0.8821
   29SAPC   C29 3868   1.329   2.311   7.330 -0.0141 -0.2893 -0.6363
   29SAPC   H9R 3869   1.247   2.322   7.403 -1.4504  1.1783 -2.4008
   29SAPC  C210 3870   1.459   2.250   7.368 -0.6703 -0.1063 -0.4247
   29SAPC  H10R 3871   1.497   2.191   7.282  2.1234  4.2508 -2.3094
   29SAPC  H10S 3872   1.444   2.174   7.448  1.3061 -0.2743 -0.1967
   29SAPC  C211 3873   1.568   2.351   7.416 -0.3211 -0.3231  0.1300
   29SAPC  H11R 3874   1.606   2.427   7.347 -0.0748 -0.3610  0.2248
   29SAPC  C212 3875   1.618   2.368   7.542 -0.2828  0.8234  0.3073
   29SAPC  H12R 3876   1.692   2.447   7.560 -0.2499  0.5098  1.6099
   29SAPC  C213 3877   1.578   2.297   7.671 -0.3257 -0.9917 -0.2199
   29SAPC  H13R 3878   1.671   2.247   7.706 -0.6673 -1.1498  0.4691
   29SAPC  H13S 3879   1.516   2.207   7.654 -0.9403 -0.3949 -1.1899
   29SAPC  C214 3880   1.517   2.378   7.788 -0.0635  0.2477 -0.1145
   29SAPC  H14R 3881   1.407   2.378   7.792 -0.0526 -1.7597  0.9408
   29SAPC  C215 3882   1.578   2.443   7.891 -1.3018  0.1875  0.1087
   29SAPC  H15R 3883   1.514   2.489   7.967 -1.5959  1.5467 -0.9422
   29SAPC  C216 3884   1.723   2.454   7.922 -0.5292  0.2798  0.8857
   29SAPC  H16R 3885   1.759   2.559   7.922  2.2273 -0.6099  0.9812
   29SAPC  H16S 3886   1.773   2.408   7.833 -2.1409  0.2048 -0.0005
   29SAPC  C217 3887   1.763   2.394   8.058 -0.5414 -0.3809  0.1303
   29SAPC  H17R 3888   1.873   2.402   8.069 -0.4755 -0.0148 -0.7609
   29SAPC  H17S 3889   1.745   2.284   8.056 -1.0490 -0.2870 -0.5325
   29SAPC  C218 3890   1.696   2.478   8.174  0.0928 -0.1997 -0.9230
   29SAPC  H18R 3891   1.586   2.482   8.162 -0.0309 -0.7577 -0.0221
   29SAPC  H18S 3892   1.734   2.582   8.160  0.1182  0.2643  2.2208
   29SAPC  C219 3893   1.749   2.437   8.317 -0.3369  0.2898  0.9223
   29SAPC  H19R 3894   1.859   2.428   8.312 -0.3386 -0.4077  1.9470
   29SAPC  H19S 3895   1.714   2.333   8.335 -0.0225  0.1004  0.4341
   29SAPC  C220 3896   1.688   2.532   8.423  0.4223  0.5412  0.2639
   29SAPC  H20R 3897   1.713   2.636   8.394  1.0072  0.1951 -0.4744
   29SAPC  H20S 3898   1.739   2.523   8.521  1.6531 -0.5794 -0.4646
   29SAPC  H20T 3899   1.577   2.525   8.431  0.5009  2.2257  3.6008
   29SAPC   C33 3900   0.835   2.365   7.163  0.5182 -0.5857 -0.4298
   29SAPC   H3X 3901   0.943   2.355   7.141  0.0034 -1.8183 -2.4936
   29SAPC   H3Y 3902   0.798   2.261   7.154 -2.6788  0.5045 -0.7147
   29SAPC   C34 3903   0.783   2.422   7.292 -0.1003 -0.0480  0.3523
   29SAPC   H4X 3904   0.672   2.429   7.285  0.0173  1.1141 -0.3913
   29SAPC   H4Y 3905   0.821   2.525   7.301 -1.8640  0.8322 -1.5541
   29SAPC   C35 3906   0.837   2.342   7.409  0.6653  0.8596 -0.2629
   29SAPC   H5X 3907   0.948   2.337   7.415  0.5909  0.5841  1.2639
   29SAPC   H5Y 3908   0.810   2.235   7.395  2.5272  0.5796 -1.8566
   29SAPC   C36 3909   0.772   2.400   7.537 -0.2762  0.1807  0.3917
   29SAPC   H6X 3910   0.678   2.453   7.511  0.5827  1.3082 -0.5039
   29SAPC   H6Y 3911   0.828   2.480   7.590 -0.1749  1.0148 -0.9487
   29SAPC   C37 3912   0.752   2.294   7.648  0.5005  0.2566  1.0275
   29SAPC   H7X 3913   0.853   2.250   7.662  0.0529 -1.1106  0.1185
   29SAPC   H7Y 3914   0.683   2.216   7.609 -0.8262  0.9241  2.0110
   29SAPC   C38 3915   0.703   2.351   7.782  0.1331 -0.6044  0.8644
   29SAPC   H8X 3916   0.604   2.392   7.752  1.4118  2.0271  0.0863
   29SAPC   H8Y 3917   0.760   2.439   7.817 -1.4695  1.1822 -0.8484
   29SAPC   C39 3918   0.707   2.241   7.894 -0.0039  0.4268  1.0282
   29SAPC   H9X 3919   0.803   2.185   7.899  0.4026  1.1986  1.9882
   29SAPC   H9Y 3920   0.630   2.172   7.854  2.5326 -0.1678 -3.0911
   29SAPC  C310 3921   0.670   2.293   8.036 -0.2647 -0.4273  0.0711
   29SAPC  H10X 3922   0.583   2.359   8.020  1.3610  1.4997 -1.0092
   29SAPC  H10Y 3923   0.746   2.367   8.071  0.1833 -1.7046  1.9227
   29SAPC  C311 3924   0.644   2.179   8.135  0.2789 -0.0009  0.6437
   29SAPC  H11X 3925   0.742   2.128   8.146  1.4988  2.3951  1.1253
   29SAPC  H11Y 3926   0.582   2.101   8.085 -0.5172 -0.4236  2.2813
   29SAPC  C312 3927   0.581   2.222   8.268  0.5178 -0.4701 -0.9303
   29SAPC  H12X 3928   0.486   2.279   8.257  1.9481  1.8029 -1.9369
   29SAPC  H12Y 3929   0.655   2.278   8.328 -0.8098  0.3565 -0.0281
   29SAPC  C313 3930   0.550   2.096   8.349  0.2421  0.4032 -0.6771
   29SAPC  H13X 3931   0.635   2.025   8.356  1.1962  1.3706 -2.2250
   29SAPC  H13Y 3932   0.466   2.045   8.297 -0.6814  0.0924  1.0628
   29SAPC  C314 3933   0.507   2.123   8.492 -0.5874 -0.0193  0.8158
   29SAPC  H14X 3934   0.585   2.187   8.538  0.4221 -1.5851  1.3540
   29SAPC  H14Y 3935   0.497   2.030   8.553 -1.2919 -0.5633 -0.1097
   29SAPC  C315 3936   0.365   2.174   8.497  0.9320  1.4358  1.1223
   29SAPC  H15X 3937   0.305   2.108   8.431  0.3399 -0.9429  3.9407
   29SAPC  H15Y 3938   0.358   2.279   8.462 -1.6006  0.9544  0.0645
   29SAPC  C316 3939   0.293   2.154   8.635 -0.2824  0.3721 -0.4467
   29SAPC  H16X 3940   0.264   2.051   8.666 -1.5857  0.4366 -1.4155
   29SAPC  H16Y 3941   0.194   2.203   8.623 -0.6944 -0.6913 -1.5249
   29SAPC  C317 3942   0.371   2.199   8.761  0.6392 -0.7847  0.6715
   29SAPC  H17X 3943   0.409   2.302   8.743  0.2631 -0.8737 -0.7273
   29SAPC  H17Y 3944   0.464   2.140   8.779  1.4460  0.7277  1.5242
   29SAPC  C318 3945   0.282   2.192   8.886  0.1621  0.3158 -0.2348
   29SAPC  H18X 3946   0.327   2.243   8.974 -0.7387 -0.9144  0.9774
   29SAPC  H18Y 3947   0.286   2.085   8.918  2.5670  0.5182  0.1842
   29SAPC  H18Z 3948   0.180   2.237   8.881  1.0963  2.3567 -1.0645
   30SAPC     N 3949   2.436   1.766   6.139 -0.5378 -0.0019  0.4305
   30SAPC   C12 3950   2.344   1.882   6.178 -0.3321 -0.3759  0.3161
   30SAPC  H12A 3951   2.370   1.911   6.279  1.0824  1.6392 -0.5968
   30SAPC  H12B 3952   2.244   1.841   6.187 -0.1483 -0.8862 -0.0142
   30SAPC   C13 3953   2.440   1.677   6.260 -0.1776  0.2165  0.0071
   30SAPC  H13A 3954   2.479   1.577   6.245  0.7159  0.4671  0.6470
   30SAPC  H13B 3955   2.499   1.723   6.337 -0.0652  3.0327 -1.6765
   30SAPC  H13C 3956   2.338   1.660   6.291  0.0765  1.1206  1.4043
   30SAPC   C14 3957   2.383   1.684   6.028  0.1670  0.1682 -0.1421
   30SAPC  H14A 3958   2.411   1.724   5.932 -0.0429 -1.2978 -0.8334
   30SAPC  H14B 3959   2.440   1.592   6.025 -2.1250 -1.2671 -1.5923
   30SAPC  H14C 3960   2.278   1.656   6.033 -0.2416  1.3131 -1.8617
   30SAPC   C15 3961   2.579   1.803   6.113  0.5298  0.6882 -0.3879
   30SAPC  H15A 3962   2.637   1.737   6.051  0.9398  0.4343  0.2578
   30SAPC  H15B 3963   2.575   1.902   6.071 -1.1569  0.0629 -1.7304
   30SAPC  H15C 3964   2.640   1.804   6.203 -2.5589  2.4091  1.7950
   30SAPC   C11 3965   2.345   2.011   6.092  0.1460 -0.6947 -0.3394
   30SAPC  H11A 3966   2.261   2.075   6.127  0.3052  0.2775 -1.7045
   30SAPC  H11B 3967   2.314   1.987   5.988 -1.0858  0.7908 -0.3369
   30SAPC     P 3968   2.504   2.179   6.209  0.1828 -0.1062  0.2769
   30SAPC   O13 3969   2.646   2.215   6.196 -0.3260  0.0725 -0.7489
   30SAPC   O14 3970   2.405   2.292   6.201 -0.6509 -0.2587 -0.0834
   30SAPC   O12 3971   2.473   2.071   6.098 -0.5282 -0.2524  0.1694
   30SAPC   O11 3972   2.468   2.092   6.336  0.2922  0.7136 -0.8418
   30SAPC    C1 3973   2.362   2.129   6.417 -0.0055  0.6366 -0.2617
   30SAPC    HA 3974   2.269   2.151   6.359 -1.6787 -3.0926  0.8539
   30SAPC    HB 3975   2.344   2.040   6.481  0.2362 -0.4242 -1.6316
   30SAPC    C2 3976   2.391   2.249   6.519 -0.6268  0.1395  0.2928
   30SAPC    HS 3977   2.426   2.334   6.456  0.2487 -1.1388 -0.9695
   30SAPC   O21 3978   2.485   2.199   6.620 -0.4362 -0.0727 -0.1541
   30SAPC   C21 3979   2.570   2.284   6.674  0.4104  0.8104  0.4844
   30SAPC   O22 3980   2.592   2.397   6.636  0.4899 -0.0929 -0.6981
   30SAPC   C22 3981   2.617   2.233   6.812  0.9878 -0.1026 -0.4643
   30SAPC   H2R 3982   2.611   2.123   6.799  2.0682 -0.2818  0.4644
   30SAPC   H2S 3983   2.725   2.259   6.808  1.3511 -1.3369  0.8863
   30SAPC    C3 3984   2.259   2.302   6.587  0.0197  0.0034 -0.4514
   30SAPC    HX 3985   2.204   2.222   6.640 -0.6071  0.3735 -0.5241
   30SAPC    HY 3986   2.191   2.331   6.503 -1.9475 -2.1103  0.3661
   30SAPC   O31 3987   2.279   2.418   6.673  0.1301  0.1227  0.1672
   30SAPC   C31 3988   2.310   2.540   6.619  0.1992  1.0101  0.0466
   30SAPC   O32 3989   2.336   2.563   6.503 -0.1955 -0.6270  1.0481
   30SAPC   C32 3990   2.301   2.644   6.724  0.2577  0.6019 -0.0110
   30SAPC   H2X 3991   2.365   2.624   6.812 -1.5136 -0.6938  1.0154
   30SAPC   H2Y 3992   2.201   2.632   6.771  0.9796  1.2852  1.7331
   30SAPC   C23 3993   2.550   2.296   6.931 -0.2628 -0.4255  0.3225
   30SAPC   H3R 3994   2.556   2.227   7.018  0.1422 -1.6317 -0.6518
   30SAPC   H3S 3995   2.443   2.311   6.906  0.3056  1.2737 -1.2352
   30SAPC   C24 3996   2.615   2.430   6.978 -0.5524  0.4371 -0.1278
   30SAPC   H4R 3997   2.617   2.498   6.890  2.0777  1.3881  0.6087
   30SAPC   H4S 3998   2.715   2.400   7.015 -1.3823 -0.1914  1.6392
   30SAPC   C25 3999   2.534   2.509   7.081 -0.2996  0.4783  0.1104
   30SAPC   H5R 4000   2.465   2.586   7.042  1.5968  1.9758 -0.3978
   30SAPC   C26 4001   2.530   2.497   7.213  0.2108 -0.9700  0.9434
   30SAPC   H6R 4002   2.464   2.567   7.267 -0.0711  0.2008 -0.8668
   30SAPC   C27 4003   2.602   2.402   7.300 -0.0317  0.5345  0.0078
   30SAPC   H7R 4004   2.680   2.352   7.238 -0.8979 -0.7671 -0.0484
   30SAPC   H7S 4005   2.527   2.327   7.332  0.1150  0.7558  0.8818
   30SAPC   C28 4006   2.659   2.473   7.420  0.2948  0.2493 -0.4672
   30SAPC   H8R 4007   2.725   2.555   7.388 -0.9399  0.6054 -2.1689
   30SAPC   C29 4008   2.628   2.461   7.554  0.0367 -0.7506  0.4401
   30SAPC   H9R 4009   2.673   2.520   7.636 -3.5419  1.2255  1.0866
   30SAPC  C210 4010   2.538   2.367   7.617  0.5957 -0.8394  0.8651
   30SAPC  H10R 4011   2.485   2.328   7.528  0.8387  1.2019 -0.2012
   30SAPC  H10S 4012   2.472   2.418   7.690 -1.5569 -2.1897 -0.0893
   30SAPC  C211 4013   2.606   2.260   7.689 -0.2402  0.6450  0.7755
   30SAPC  H11R 4014   2.608   2.159   7.644  3.4241  0.4426  1.2252
   30SAPC  C212 4015   2.664   2.278   7.803 -0.3372 -0.6639  0.1784
   30SAPC  H12R 4016   2.713   2.196   7.858  1.0275  0.3862  0.5652
   30SAPC  C213 4017   2.661   2.409   7.885  0.3751  0.7663 -0.0293
   30SAPC  H13R 4018   2.609   2.390   7.981  1.2032 -1.6602 -0.0234
   30SAPC  H13S 4019   2.601   2.487   7.833 -0.0829  0.1981 -0.3569
   30SAPC  C214 4020   2.800   2.463   7.899 -0.0774 -0.0690  0.8312
   30SAPC  H14R 4021   2.835   2.519   7.811 -0.7558  0.5443  0.9505
   30SAPC  C215 4022   2.872   2.449   8.011 -0.4408 -0.2157  0.9176
   30SAPC  H15R 4023   2.970   2.498   8.013 -0.3623 -0.3631  0.6354
   30SAPC  C216 4024   2.845   2.383   8.146  0.3763 -0.3752 -0.7018
   30SAPC  H16R 4025   2.915   2.297   8.156 -0.2199 -0.7912 -0.0983
   30SAPC  H16S 4026   2.742   2.341   8.139 -0.2276  1.0860 -0.7617
   30SAPC  C217 4027   2.872   2.477   8.261 -0.6461 -0.2435 -0.6461
   30SAPC  H17R 4028   2.825   2.437   8.353 -1.1662  1.0501 -0.3450
   30SAPC  H17S 4029   2.836   2.580   8.239 -1.4465 -0.8657 -2.2820
   30SAPC  C218 4030   3.020   2.511   8.295 -0.1383  0.5437  0.9702
   30SAPC  H18R 4031   3.051   2.578   8.212 -1.3887 -0.6671 -0.5071
   30SAPC  H18S 4032   3.072   2.416   8.270  0.4295  1.2061 -0.4517
   30SAPC  C219 4033   3.033   2.565   8.434  0.1702 -0.0681 -0.2226
   30SAPC  H19R 4034   3.008   2.491   8.512  0.3060  0.2814  0.1567
   30SAPC  H19S 4035   2.957   2.645   8.444 -0.0225 -0.2329 -0.3624
   30SAPC  C220 4036   3.168   2.629   8.464  0.3993  0.0584 -0.1503
   30SAPC  H20R 4037   3.167   2.709   8.541  0.3734  0.1279 -0.2225
   30SAPC  H20S 4038   3.206   2.673   8.369  2.5335 -1.7167 -0.1770
   30SAPC  H20T 4039   3.242   2.555   8.503 -0.1632  0.3326  1.4787
   30SAPC   C33 4040   2.316   2.788   6.685 -0.3804  0.1941 -0.4343
   30SAPC   H3X 4041   2.257   2.814   6.595  1.2980 -2.0027 -2.2268
   30SAPC   H3Y 4042   2.422   2.795   6.653 -0.1227  1.7659  0.6995
   30SAPC   C34 4043   2.283   2.894   6.794  0.2552  0.4478  0.1857
   30SAPC   H4X 4044   2.187   2.869   6.844  0.2956 -1.3964 -0.6055
   30SAPC   H4Y 4045   2.257   2.990   6.746 -0.7667 -0.2454 -0.6717
   30SAPC   C35 4046   2.400   2.912   6.890  0.0129 -0.0509 -0.1437
   30SAPC   H5X 4047   2.484   2.930   6.819  0.6998 -1.8780  0.1679
   30SAPC   H5Y 4048   2.414   2.814   6.941 -2.5981 -0.1993  0.3639
   30SAPC   C36 4049   2.363   3.010   6.996 -0.0827 -0.0933 -0.1896
   30SAPC   H6X 4050   2.267   2.984   7.045 -0.3729  0.9881 -0.1618
   30SAPC   H6Y 4051   2.358   3.107   6.941  2.5896  0.7095  0.8727
   30SAPC   C37 4052   2.472   3.040   7.102 -0.0201 -0.7138 -0.5864
   30SAPC   H7X 4053   2.442   3.129   7.160  2.7526 -2.2553  3.4071
   30SAPC   H7Y 4054   2.565   3.055   7.043  1.4197 -2.1978  1.2423
   30SAPC   C38 4055   2.486   2.930   7.212 -0.1569 -0.2215 -0.4207
   30SAPC   H8X 4056   2.516   2.838   7.159  1.3196 -0.4749  0.8013
   30SAPC   H8Y 4057   2.388   2.904   7.257  1.1985 -0.9333  2.2057
   30SAPC   C39 4058   2.589   2.967   7.328  1.6743  0.3681 -0.3775
   30SAPC   H9X 4059   2.589   3.078   7.338  0.1173  0.2290  1.7532
   30SAPC   H9Y 4060   2.690   2.939   7.292  1.6727 -0.5142  0.2872
   30SAPC  C310 4061   2.568   2.884   7.458  0.2877  0.1410 -0.4878
   30SAPC  H10X 4062   2.603   2.783   7.431  0.5172  0.7849 -2.6292
   30SAPC  H10Y 4063   2.460   2.869   7.480  0.2652  1.0928  0.1005
   30SAPC  C311 4064   2.642   2.941   7.587  0.5473  0.0190 -0.3161
   30SAPC  H11X 4065   2.581   3.032   7.607 -0.5549 -0.5435 -1.0695
   30SAPC  H11Y 4066   2.745   2.971   7.560 -0.1399  0.5146 -2.5267
   30SAPC  C312 4067   2.639   2.844   7.704  0.2590  0.3347 -0.7206
   30SAPC  H12X 4068   2.694   2.752   7.675 -2.3417 -1.4884 -0.1178
   30SAPC  H12Y 4069   2.530   2.828   7.722  0.5429  1.6319  2.2472
   30SAPC  C313 4070   2.695   2.895   7.843 -0.4244  0.0951 -0.0188
   30SAPC  H13X 4071   2.684   3.006   7.843 -1.0292  0.0796  2.9160
   30SAPC  H13Y 4072   2.800   2.862   7.850 -0.2675  0.5293 -0.2578
   30SAPC  C314 4073   2.628   2.840   7.969  0.2429 -0.4629 -0.1698
   30SAPC  H14X 4074   2.658   2.734   7.985 -2.9624 -1.6329 -1.6828
   30SAPC  H14Y 4075   2.519   2.847   7.950  0.0536  3.0114  1.8252
   30SAPC  C315 4076   2.655   2.918   8.102  0.0693  0.2125 -0.1211
   30SAPC  H15X 4077   2.577   2.876   8.169  1.7539  1.3574  2.6215
   30SAPC  H15Y 4078   2.644   3.028   8.088 -0.2674  0.2698  0.5543
   30SAPC  C316 4079   2.798   2.889   8.150 -0.4804  0.5932 -0.5128
   30SAPC  H16X 4080   2.876   2.922   8.077  0.0228 -0.7343 -0.5845
   30SAPC  H16Y 4081   2.816   2.780   8.153 -0.1608  0.6773  1.5328
   30SAPC  C317 4082   2.830   2.943   8.286  0.3192 -0.3732 -0.8066
   30SAPC  H17X 4083   2.767   2.892   8.362  3.2557 -1.0743  1.2649
   30SAPC  H17Y 4084   2.819   3.053   8.289  1.6954 -0.2374  0.3175
   30SAPC  C318 4085   2.982   2.927   8.326 -0.0770 -0.4200  0.1846
   30SAPC  H18X 4086   2.992   3.003   8.407 -3.6584  0.5718 -0.2134
   30SAPC  H18Y 4087   3.054   2.947   8.245  0.6869 -0.1763  0.9162
   30SAPC  H18Z 4088   3.000   2.832   8.380 -1.8105 -0.3474  0.9310
   31SAPC     N 4089   3.909   2.990   6.231 -0.0547  0.1096 -0.0201
   31SAPC   C12 4090   3.901   3.025   6.379  0.4290 -0.0327 -0.2674
   31SAPC  H12A 4091   3.800   3.010   6.414 -0.7168  0.3569 -3.2547
   31SAPC  H12B 4092   3.916   3.133   6.378 -2.2255  0.3520 -0.7586
   31SAPC   C13 4093   3.804   3.076   6.168 -0.0819 -0.0355 -1.3309
   31SAPC  H13A 4094   3.798   3.052   6.063 -2.2988 -1.4834 -0.9075
   31SAPC  H13B 4095   3.708   3.056   6.211 -0.2621  0.7660 -1.3518
   31SAPC  H13C 4096   3.822   3.182   6.161  0.9280 -0.3229 -3.5565
   31SAPC   C14 4097   4.046   3.024   6.171 -0.3779  0.1845  0.1330
   31SAPC  H14A 4098   4.069   3.127   6.192 -0.9513  0.3040  0.2005
   31SAPC  H14B 4099   4.114   2.954   6.218  0.4817  1.8451  1.4110
   31SAPC  H14C 4100   4.042   3.001   6.066 -0.3592 -0.4425  0.2655
   31SAPC   C15 4101   3.886   2.846   6.210  0.1714  0.3541  0.0260
   31SAPC  H15A 4102   3.910   2.812   6.111  0.1894  0.5568 -0.0389
   31SAPC  H15B 4103   3.945   2.791   6.282 -1.5788 -0.7239  0.6737
   31SAPC  H15C 4104   3.786   2.812   6.232  0.4315 -0.7771 -0.5172
   31SAPC   C11 4105   3.995   2.955   6.478 -0.2541 -0.1864  0.8063
   31SAPC  H11A 4106   3.990   3.018   6.569  1.9467 -0.8168  1.3968
   31SAPC  H11B 4107   4.098   2.964   6.436 -1.5993  2.3129 -2.2182
   31SAPC     P 4108   3.817   2.806   6.592  0.1290  0.2697 -0.0432
   31SAPC   O13 4109   3.717   2.912   6.556  0.5045  0.8632 -0.0579
   31SAPC   O14 4110   3.775   2.667   6.573 -0.2884 -0.6652  0.1970
   31SAPC   O12 4111   3.956   2.823   6.507  0.1579 -0.1277 -0.6932
   31SAPC   O11 4112   3.862   2.822   6.743  0.3881  0.0129  0.0466
   31SAPC    C1 4113   3.967   2.747   6.798 -0.2888  0.3683  0.7189
   31SAPC    HA 4114   3.933   2.647   6.834  1.0240 -0.7430 -1.0911
   31SAPC    HB 4115   4.047   2.721   6.725 -3.5469  1.9816 -3.6263
   31SAPC    C2 4116   4.044   2.829   6.907 -0.0209  0.0063 -0.7161
   31SAPC    HS 4117   4.070   2.928   6.865 -1.4513  1.0044  0.6800
   31SAPC   O21 4118   4.146   2.745   6.949 -0.0736 -0.1356  0.3651
   31SAPC   C21 4119   4.258   2.748   6.881  0.1156 -1.0424  0.3755
   31SAPC   O22 4120   4.276   2.815   6.779  0.2217 -0.2068  0.3048
   31SAPC   C22 4121   4.362   2.650   6.935 -0.3201 -0.6559 -0.0367
   31SAPC   H2R 4122   4.315   2.549   6.933  1.7313 -1.6325  0.7795
   31SAPC   H2S 4123   4.437   2.648   6.853 -1.2896  0.4179 -0.9954
   31SAPC    C3 4124   3.951   2.854   7.028  0.1155 -0.3340  0.4946
   31SAPC    HX 4125   3.920   2.757   7.073  1.4760 -1.1743 -0.3506
   31SAPC    HY 4126   3.861   2.902   6.982 -0.4693 -0.5768  1.3761
   31SAPC   O31 4127   4.008   2.940   7.131 -0.0446 -0.5959  0.5440
   31SAPC   C31 4128   4.024   2.888   7.248 -0.2441  0.5698 -0.7361
   31SAPC   O32 4129   3.989   2.779   7.290 -0.3353 -0.5239  0.6538
   31SAPC   C32 4130   4.067   3.000   7.339 -0.1944  0.3455 -0.3183
   31SAPC   H2X 4131   4.004   3.089   7.317  0.7037  1.4698  1.4788
   31SAPC   H2Y 4132   4.175   3.022   7.327  0.2232 -0.8508  0.9652
   31SAPC   C23 4133   4.438   2.677   7.069  0.3597 -0.1747 -0.3645
   31SAPC   H3R 4134   4.526   2.741   7.046 -0.2214  0.8517  0.2637
   31SAPC   H3S 4135   4.481   2.575   7.087 -2.4388 -1.3188  0.0421
   31SAPC   C24 4136   4.346   2.705   7.190  0.0220  0.3851  0.5938
   31SAPC   H4R 4137   4.264   2.631   7.194 -2.3770  2.6118 -4.1233
   31SAPC   H4S 4138   4.293   2.803   7.190  1.1781  1.0202 -0.4584
   31SAPC   C25 4139   4.413   2.711   7.328 -0.6370  0.0154  0.1880
   31SAPC   H5R 4140   4.478   2.798   7.347 -1.7678  0.6059  1.3872
   31SAPC   C26 4141   4.404   2.613   7.416  0.5880 -0.0903  0.3330
   31SAPC   H6R 4142   4.457   2.618   7.512 -1.0617 -1.0777  1.3236
   31SAPC   C27 4143   4.320   2.493   7.391  0.0271  0.2322 -0.0601
   31SAPC   H7R 4144   4.362   2.411   7.453  0.3783  2.7474  3.1989
   31SAPC   H7S 4145   4.315   2.455   7.287 -0.5656 -1.1715  0.4665
   31SAPC   C28 4146   4.181   2.528   7.443  0.6003  0.0185 -0.0080
   31SAPC   H8R 4147   4.104   2.558   7.369  0.7545 -1.4264 -0.7639
   31SAPC   C29 4148   4.140   2.507   7.566  0.0932 -0.0921 -0.6984
   31SAPC   H9R 4149   4.043   2.547   7.599 -0.4967 -0.2827 -2.1708
   31SAPC  C210 4150   4.208   2.439   7.687  0.2611  0.1355  0.2531
   31SAPC  H10R 4151   4.291   2.509   7.710 -0.8728  2.4717 -2.5454
   31SAPC  H10S 4152   4.251   2.340   7.661 -1.2929 -0.8345  1.2713
   31SAPC  C211 4153   4.106   2.406   7.796 -0.2507  0.1182 -0.0207
   31SAPC  H11R 4154   4.032   2.329   7.768  0.5229  0.1339 -2.2062
   31SAPC  C212 4155   4.094   2.462   7.913  0.5455  0.5710  0.3122
   31SAPC  H12R 4156   4.011   2.424   7.975 -0.3233 -0.7389 -1.6225
   31SAPC  C213 4157   4.176   2.572   7.990  0.4712 -0.3912  0.4224
   31SAPC  H13R 4158   4.123   2.656   8.039 -2.8692 -0.2231 -3.2128
   31SAPC  H13S 4159   4.243   2.619   7.915  0.0972 -1.6482 -0.7104
   31SAPC  C214 4160   4.272   2.511   8.095  0.0031 -1.1975 -0.3855
   31SAPC  H14R 4161   4.371   2.480   8.060  0.8853  1.0145  0.0876
   31SAPC  C215 4162   4.239   2.490   8.221 -0.4709  0.5965  0.3574
   31SAPC  H15R 4163   4.298   2.423   8.287 -1.9283 -1.0006  0.0658
   31SAPC  C216 4164   4.101   2.533   8.270  0.4532 -0.3643 -0.1051
   31SAPC  H16R 4165   4.040   2.599   8.206  1.5147  2.1049  1.3450
   31SAPC  H16S 4166   4.128   2.601   8.354  0.3568 -0.8077  0.2848
   31SAPC  C217 4167   4.020   2.415   8.335  0.5190 -0.5217  0.2205
   31SAPC  H17R 4168   4.098   2.347   8.377 -0.8975 -0.7124  2.6306
   31SAPC  H17S 4169   3.974   2.352   8.256 -0.5404  1.5579 -0.8807
   31SAPC  C218 4170   3.921   2.450   8.444  0.4565  0.3044  0.1612
   31SAPC  H18R 4171   3.860   2.536   8.409 -2.2415 -1.0458  1.3755
   31SAPC  H18S 4172   3.975   2.482   8.536  1.3132  1.2191 -0.6493
   31SAPC  C219 4173   3.827   2.338   8.491  0.7646  0.6649  0.4012
   31SAPC  H19R 4174   3.884   2.253   8.534 -0.9991 -0.3433  0.7961
   31SAPC  H19S 4175   3.767   2.305   8.404 -2.2822 -0.3111  2.7336
   31SAPC  C220 4176   3.717   2.390   8.594  0.5306 -0.0170 -0.0247
   31SAPC  H20R 4177   3.684   2.295   8.641  1.4640 -0.6331 -0.5986
   31SAPC  H20S 4178   3.635   2.447   8.546  0.5448  0.1279  0.1203
   31SAPC  H20T 4179   3.765   2.449   8.676 -0.3595  2.5240 -1.3026
   31SAPC   C33 4180   4.062   2.956   7.494  0.9957  0.4111  0.4624
   31SAPC   H3X 4181   4.142   3.012   7.547  0.5043  1.0261  0.5559
   31SAPC   H3Y 4182   4.072   2.845   7.495 -2.5322  0.0042 -0.8503
   31SAPC   C34 4183   3.919   2.982   7.554  0.3421  0.1093  0.4492
   31SAPC   H4X 4184   3.844   2.922   7.499  1.4623 -2.0371  1.1592
   31SAPC   H4Y 4185   3.901   3.091   7.548 -1.2569 -0.1377  0.7143
   31SAPC   C35 4186   3.903   2.933   7.697 -0.2436  0.4680 -0.6306
   31SAPC   H5X 4187   3.940   2.828   7.702  1.7540  1.2137  0.3238
   31SAPC   H5Y 4188   3.798   2.950   7.730 -1.5105 -0.4081 -3.9443
   31SAPC   C36 4189   3.989   3.011   7.791  0.2172 -0.6760 -0.5361
   31SAPC   H6X 4190   3.958   3.117   7.778  0.0077 -0.3308  2.3604
   31SAPC   H6Y 4191   4.097   2.993   7.771  0.8760  1.8605  0.5052
   31SAPC   C37 4192   3.980   2.977   7.940  0.7263  0.8526 -0.0177
   31SAPC   H7X 4193   3.997   2.867   7.946  1.2252  0.9507  0.3961
   31SAPC   H7Y 4194   3.887   2.997   7.998  0.5803 -0.6692  0.2940
   31SAPC   C38 4195   4.099   3.035   8.019  0.6325 -0.0145 -0.7205
   31SAPC   H8X 4196   4.066   3.140   8.039 -0.8965 -0.8545  1.3634
   31SAPC   H8Y 4197   4.185   3.038   7.948  0.0663 -2.0095 -1.5190
   31SAPC   C39 4198   4.137   2.965   8.146  0.6813  0.0673 -0.4412
   31SAPC   H9X 4199   4.210   3.028   8.202 -0.5591  3.0229 -2.0301
   31SAPC   H9Y 4200   4.182   2.864   8.130  1.1382  0.5201 -2.1433
   31SAPC  C310 4201   4.019   2.955   8.243  0.5538 -0.4473 -0.4752
   31SAPC  H10X 4202   4.050   2.889   8.327  2.3385  0.1601 -0.6374
   31SAPC  H10Y 4203   3.943   2.890   8.195 -2.3107  1.7992  0.8329
   31SAPC  C311 4204   3.966   3.096   8.287  0.4819  0.4126  0.4251
   31SAPC  H11X 4205   3.913   3.133   8.197  0.0877  0.0155  0.4915
   31SAPC  H11Y 4206   4.040   3.176   8.310 -0.7423  2.2882 -1.9438
   31SAPC  C312 4207   3.858   3.083   8.403  0.0840  0.5399 -0.0215
   31SAPC  H12X 4208   3.819   3.181   8.439 -4.3793 -0.7916 -0.8528
   31SAPC  H12Y 4209   3.915   3.035   8.486  0.6861  1.3092  0.0119
   31SAPC  C313 4210   3.734   2.999   8.377 -0.3061  0.2394 -0.3903
   31SAPC  H13X 4211   3.766   2.893   8.386 -1.5153  0.0280  1.7025
   31SAPC  H13Y 4212   3.683   3.034   8.284 -0.8875  1.8080  0.4978
   31SAPC  C314 4213   3.635   3.014   8.495  0.5453 -0.1558 -0.0481
   31SAPC  H14X 4214   3.611   3.123   8.502  2.6450  0.3201  0.0075
   31SAPC  H14Y 4215   3.687   2.985   8.589 -0.1237  1.4490  0.8382
   31SAPC  C315 4216   3.503   2.942   8.485  0.2661  0.5970 -0.1342
   31SAPC  H15X 4217   3.508   2.833   8.463 -0.2992 -0.1425  3.1037
   31SAPC  H15Y 4218   3.439   2.987   8.406  1.0169  0.5206 -0.7830
   31SAPC  C316 4219   3.400   2.935   8.599 -0.0208 -0.3083 -0.2040
   31SAPC  H16X 4220   3.295   2.904   8.583 -0.1310 -0.7977  1.3861
   31SAPC  H16Y 4221   3.395   3.043   8.624 -0.0962 -0.5387  0.7817
   31SAPC  C317 4222   3.450   2.863   8.725 -0.1088  0.3091  1.1216
   31SAPC  H17X 4223   3.375   2.904   8.796  1.0550  1.3207  1.7953
   31SAPC  H17Y 4224   3.549   2.907   8.751  0.0321  0.7309 -0.1123
   31SAPC  C318 4225   3.436   2.716   8.718 -0.3016 -0.0325 -0.6664
   31SAPC  H18X 4226   3.526   2.664   8.677 -1.1975 -1.7300 -0.5177
   31SAPC  H18Y 4227   3.343   2.669   8.680  0.4497 -0.9634 -1.4036
   31SAPC  H18Z 4228   3.413   2.685   8.822 -0.1676  3.1257  0.3491
   32SAPC     N 4229   4.907   4.622   6.205  0.5114 -0.5505 -0.1375
   32SAPC   C12 4230   4.888   4.570   6.064 -0.2744 -0.8929 -0.3847
   32SAPC  H12A 4231   4.857   4.647   5.995  1.0182  0.0239  0.0589
   32SAPC  H12B 4232   4.808   4.497   6.058 -2.2901  0.8870  2.9498
   32SAPC   C13 4233   4.920   4.507   6.308 -0.0504  0.0655  0.1562
   32SAPC  H13A 4234   4.822   4.471   6.333 -0.8825 -1.2447 -4.5071
   32SAPC  H13B 4235   4.982   4.432   6.261  1.6129  1.7735 -0.4240
   32SAPC  H13C 4236   4.957   4.543   6.403  1.4115  0.6223 -0.6094
   32SAPC   C14 4237   5.038   4.700   6.219 -0.7448 -0.0744  0.2067
   32SAPC  H14A 4238   5.108   4.645   6.158 -0.1890  1.4304 -0.5461
   32SAPC  H14B 4239   5.022   4.800   6.182  0.8326  1.2416  2.9369
   32SAPC  H14C 4240   5.065   4.710   6.323  0.3078 -0.6656  0.0013
   32SAPC   C15 4241   4.788   4.705   6.247 -0.7000  0.0337 -0.4891
   32SAPC  H15A 4242   4.785   4.799   6.194  0.8426 -1.5361 -3.5629
   32SAPC  H15B 4243   4.698   4.652   6.222 -0.9981  0.6040 -0.6241
   32SAPC  H15C 4244   4.803   4.722   6.352 -0.3109 -0.1814 -0.5070
   32SAPC   C11 4245   5.013   4.516   5.992  0.1245  0.0891 -0.0117
   32SAPC  H11A 4246   5.081   4.594   5.954  0.4875  0.3899  1.2330
   32SAPC  H11B 4247   4.978   4.459   5.903 -1.3989 -0.2095  0.7493
   32SAPC     P 4248   5.242   4.395   6.071  0.2793 -0.0378 -0.1586
   32SAPC   O13 4249   5.246   4.262   6.008 -0.5172 -0.4166  0.0195
   32SAPC   O14 4250   5.307   4.508   5.996 -0.4891 -0.5926  0.2172
   32SAPC   O12 4251   5.084   4.427   6.079 -0.5156  0.4243 -0.0224
   32SAPC   O11 4252   5.294   4.385   6.222 -0.3535  0.2950 -0.3390
   32SAPC    C1 4253   5.266   4.264   6.297  0.1716  0.0758  0.4364
   32SAPC    HA 4254   5.174   4.216   6.256  0.4905 -1.7754  1.8246
   32SAPC    HB 4255   5.349   4.191   6.287 -0.3943 -0.8740  2.3574
   32SAPC    C2 4256   5.240   4.301   6.441  1.2475  0.6666 -0.1570
   32SAPC    HS 4257   5.143   4.354   6.427  1.2874 -0.0840 -3.9835
   32SAPC   O21 4258   5.351   4.380   6.479 -0.0167  0.1316 -0.5907
   32SAPC   C21 4259   5.307   4.487   6.560 -0.0281 -0.3409 -0.3061
   32SAPC   O22 4260   5.190   4.511   6.587 -0.2594 -0.3923  0.2694
   32SAPC   C22 4261   5.426   4.562   6.618  0.1185 -0.3389  0.2000
   32SAPC   H2R 4262   5.522   4.525   6.576 -0.8236 -2.2346 -0.3709
   32SAPC   H2S 4263   5.408   4.669   6.595  0.0197 -0.5192 -0.5752
   32SAPC    C3 4264   5.229   4.170   6.521  0.3915 -1.1038 -0.4483
   32SAPC    HX 4265   5.328   4.121   6.526  1.7501  1.6588  0.2619
   32SAPC    HY 4266   5.175   4.101   6.452  2.0885 -1.0953 -1.8237
   32SAPC   O31 4267   5.156   4.177   6.644  0.2187 -0.1946  0.1380
   32SAPC   C31 4268   5.224   4.189   6.757  0.4682  0.3738 -0.0963
   32SAPC   O32 4269   5.344   4.194   6.768  0.1342  0.5086 -0.2714
   32SAPC   C32 4270   5.112   4.181   6.862 -0.3559  0.3496  0.5602
   32SAPC   H2X 4271   5.086   4.073   6.872 -0.4828 -0.1587 -4.1541
   32SAPC   H2Y 4272   5.019   4.230   6.826 -0.0099 -0.3239 -1.3061
   32SAPC   C23 4273   5.426   4.567   6.772  0.4171  0.4118 -0.4616
   32SAPC   H3R 4274   5.422   4.464   6.813 -2.4138  0.8794  0.5278
   32SAPC   H3S 4275   5.329   4.612   6.802  1.8773  1.7881  2.3961
   32SAPC   C24 4276   5.543   4.643   6.829 -0.0946 -0.7409  0.3377
   32SAPC   H4R 4277   5.512   4.676   6.931  2.5017  1.9144  0.3282
   32SAPC   H4S 4278   5.548   4.739   6.774 -0.3021 -1.0311 -0.1856
   32SAPC   C25 4279   5.675   4.578   6.826 -0.6120  0.0940  0.7244
   32SAPC   H5R 4280   5.705   4.540   6.728 -0.6144 -1.5757  1.3521
   32SAPC   C26 4281   5.757   4.569   6.934  0.4922  0.6049 -0.1890
   32SAPC   H6R 4282   5.848   4.508   6.920 -1.0322 -1.3525 -1.7580
   32SAPC   C27 4283   5.717   4.620   7.073 -0.0224 -0.7553 -0.5195
   32SAPC   H7R 4284   5.661   4.715   7.060 -0.6114 -1.1921 -1.2356
   32SAPC   H7S 4285   5.816   4.644   7.117  1.0557 -3.5001 -1.3347
   32SAPC   C28 4286   5.654   4.520   7.161  0.1018 -0.0472 -0.4843
   32SAPC   H8R 4287   5.578   4.454   7.117 -0.1637  0.0665 -0.1953
   32SAPC   C29 4288   5.677   4.488   7.294  0.2355  0.1574 -0.4469
   32SAPC   H9R 4289   5.618   4.408   7.340  1.8002  0.2327  1.7803
   32SAPC  C210 4290   5.769   4.558   7.397  0.1365  0.2649 -0.2901
   32SAPC  H10R 4291   5.854   4.592   7.334  0.2179  0.1601 -0.2360
   32SAPC  H10S 4292   5.827   4.498   7.470 -0.6748  0.7055  0.7292
   32SAPC  C211 4293   5.696   4.675   7.472 -0.2633 -0.4018 -0.1555
   32SAPC  H11R 4294   5.656   4.757   7.412 -1.1388 -0.2247  0.6605
   32SAPC  C212 4295   5.676   4.669   7.610 -0.0939 -0.1481  0.2206
   32SAPC  H12R 4296   5.618   4.748   7.659  2.4910  2.4902 -0.8331
   32SAPC  C213 4297   5.715   4.565   7.715  0.4423 -0.2443 -1.2125
   32SAPC  H13R 4298   5.768   4.604   7.804 -1.3700 -0.9899  0.2169
   32SAPC  H13S 4299   5.786   4.496   7.665  0.8298 -0.7004 -0.0337
   32SAPC  C214 4300   5.609   4.476   7.758 -0.5255  0.2343  0.0233
   32SAPC  H14R 4301   5.512   4.477   7.706 -1.0464  0.8072  1.0023
   32SAPC  C215 4302   5.609   4.377   7.850 -0.9882 -0.2658 -0.3081
   32SAPC  H15R 4303   5.520   4.314   7.864  0.3942 -2.1783  0.1738
   32SAPC  C216 4304   5.725   4.325   7.928 -0.3870 -0.2880 -0.2950
   32SAPC  H16R 4305   5.818   4.373   7.892 -0.5750 -0.5561 -1.1605
   32SAPC  H16S 4306   5.725   4.214   7.917  3.4732 -0.1284 -2.5854
   32SAPC  C217 4307   5.702   4.380   8.073  0.2062 -0.0491 -0.5778
   32SAPC  H17R 4308   5.613   4.337   8.124  1.1533  0.8053  1.8794
   32SAPC  H17S 4309   5.683   4.490   8.068 -1.0984 -0.2298  0.1435
   32SAPC  C218 4310   5.819   4.350   8.156 -0.8603 -0.9031  0.4207
   32SAPC  H18R 4311   5.903   4.390   8.096 -1.0382 -1.5810 -0.2922
   32SAPC  H18S 4312   5.830   4.239   8.162 -0.8646 -0.9890 -1.0792
   32SAPC  C219 4313   5.833   4.401   8.296  0.2409 -0.6612 -0.3679
   32SAPC  H19R 4314   5.818   4.320   8.371  1.6934  1.1610  1.9368
   32SAPC  H19S 4315   5.760   4.480   8.320 -1.4281 -1.6492 -2.0321
   32SAPC  C220 4316   5.971   4.455   8.329  0.1977  0.1961 -0.7558
   32SAPC  H20R 4317   5.972   4.496   8.432  1.6415 -2.9144  0.5144
   32SAPC  H20S 4318   5.996   4.530   8.250  2.4419 -1.0986 -1.2945
   32SAPC  H20T 4319   6.051   4.379   8.322  0.7262  0.5519  1.3581
   32SAPC   C33 4320   5.158   4.206   7.009 -0.0894  0.3688 -0.6192
   32SAPC   H3X 4321   5.255   4.164   7.044 -0.4569  0.3620  0.4054
   32SAPC   H3Y 4322   5.077   4.163   7.071  1.6034 -0.4014  1.0969
   32SAPC   C34 4323   5.167   4.359   7.039 -1.0371  1.3390 -0.1720
   32SAPC   H4X 4324   5.063   4.389   7.014 -1.1678  2.0501  1.1493
   32SAPC   H4Y 4325   5.241   4.398   6.966 -0.1857 -0.7804 -0.4692
   32SAPC   C35 4326   5.186   4.382   7.188  0.4591 -0.3813  0.1487
   32SAPC   H5X 4327   5.255   4.308   7.234  2.8033  1.4544 -0.2824
   32SAPC   H5Y 4328   5.086   4.373   7.236  0.3639 -0.1068  0.0035
   32SAPC   C36 4329   5.250   4.520   7.222 -0.3308  0.1619  0.7813
   32SAPC   H6X 4330   5.176   4.601   7.211 -0.3830 -0.3155 -2.9185
   32SAPC   H6Y 4331   5.338   4.543   7.158 -0.8159 -1.5035 -0.5230
   32SAPC   C37 4332   5.290   4.526   7.372  0.4727  0.4144 -0.1647
   32SAPC   H7X 4333   5.337   4.626   7.387 -1.2233  0.9393  1.9388
   32SAPC   H7Y 4334   5.361   4.444   7.396 -0.2802 -0.6809 -1.5925
   32SAPC   C38 4335   5.173   4.512   7.461 -0.2725 -0.5661  0.2603
   32SAPC   H8X 4336   5.104   4.428   7.437  1.3078 -1.7369 -0.2493
   32SAPC   H8Y 4337   5.099   4.593   7.443  0.1287  0.8398  4.4546
   32SAPC   C39 4338   5.205   4.506   7.611  0.7349  0.2247  0.0492
   32SAPC   H9X 4339   5.257   4.602   7.631 -0.4330  0.7301  0.6969
   32SAPC   H9Y 4340   5.267   4.419   7.640  0.4446  0.6105  1.8347
   32SAPC  C310 4341   5.079   4.506   7.698 -0.1546  0.5114  0.5641
   32SAPC  H10X 4342   5.014   4.419   7.674 -0.6302  1.2037 -0.6796
   32SAPC  H10Y 4343   5.016   4.595   7.682 -0.2264  0.4858  0.7048
   32SAPC  C311 4344   5.113   4.501   7.854  0.6897  0.4990  0.2705
   32SAPC  H11X 4345   5.177   4.591   7.870  2.4492 -0.9389  1.4205
   32SAPC  H11Y 4346   5.182   4.416   7.872 -0.8694 -1.1141 -1.2868
   32SAPC  C312 4347   5.004   4.494   7.965 -0.5985  0.4074 -0.2676
   32SAPC  H12X 4348   4.947   4.589   7.969 -1.1399  0.1121 -0.8020
   32SAPC  H12Y 4349   5.052   4.473   8.063  0.8648 -1.3067 -1.3101
   32SAPC  C313 4350   4.913   4.370   7.950  0.3356  0.3753  1.1807
   32SAPC  H13X 4351   4.979   4.281   7.945  0.0411  0.1667  0.9714
   32SAPC  H13Y 4352   4.862   4.380   7.852  2.0585  0.0178  0.2378
   32SAPC  C314 4353   4.812   4.364   8.066  0.4110 -0.2295  0.2248
   32SAPC  H14X 4354   4.742   4.288   8.025 -0.2177 -0.0906  1.0135
   32SAPC  H14Y 4355   4.747   4.452   8.085 -0.1033 -1.2494  3.4804
   32SAPC  C315 4356   4.874   4.307   8.191  0.0926  0.2960  0.3187
   32SAPC  H15X 4357   4.952   4.382   8.218 -2.7108  2.5814  2.4329
   32SAPC  H15Y 4358   4.935   4.216   8.172 -2.3057 -1.8760  2.6329
   32SAPC  C316 4359   4.779   4.289   8.306  0.2232 -0.5253 -0.2619
   32SAPC  H16X 4360   4.686   4.247   8.263  0.0080 -0.7397  0.4050
   32SAPC  H16Y 4361   4.766   4.385   8.362 -3.1929 -1.4876  0.6917
   32SAPC  C317 4362   4.845   4.195   8.405  0.2347  0.1462 -0.5738
   32SAPC  H17X 4363   4.868   4.096   8.361  0.4833 -0.4838  0.9163
   32SAPC  H17Y 4364   4.771   4.172   8.485  0.4492  0.7829 -0.1879
   32SAPC  C318 4365   4.976   4.244   8.476  0.6012 -0.3040  0.7906
   32SAPC  H18X 4366   5.053   4.263   8.398 -0.2551 -1.2004 -0.2865
   32SAPC  H18Y 4367   5.006   4.155   8.534 -1.4536 -0.5086  1.5605
   32SAPC  H18Z 4368   4.959   4.327   8.548 -1.0259  1.1705 -1.2274
   33POPC     N 4369   1.023   6.124  10.627 -0.1011 -0.9809 -0.2266
   33POPC   C12 4370   1.044   6.040  10.503 -0.1398 -0.2315 -0.6032
   33POPC  H12A 4371   1.000   6.090  10.418  0.5563  0.7626 -0.3820
   33POPC  H12B 4372   0.976   5.956  10.514  0.2300 -0.4805 -0.1805
   33POPC   C13 4373   1.084   6.260  10.604 -0.1553  0.8949  0.3678
   33POPC  H13A 4374   1.018   6.327  10.550 -0.5117  0.2814  0.0471
   33POPC  H13B 4375   1.129   6.301  10.694  2.8049  0.8738 -1.0432
   33POPC  H13C 4376   1.172   6.245  10.544 -1.4398 -1.0008 -1.0731
   33POPC   C14 4377   0.880   6.143  10.665  0.0378  0.1494  0.3734
   33POPC  H14A 4378   0.822   6.053  10.682 -1.7410  1.4154  1.2601
   33POPC  H14B 4379   0.880   6.201  10.756  0.8629  1.2008 -0.2903
   33POPC  H14C 4380   0.828   6.200  10.589  3.0540  0.4198 -1.5599
   33POPC   C15 4381   1.091   6.066  10.744 -0.3187 -0.0335 -0.6685
   33POPC  H15A 4382   1.127   6.151  10.800 -1.6351  1.3488 -1.8975
   33POPC  H15B 4383   1.184   6.012  10.729  0.3706  0.2343  2.3134
   33POPC  H15C 4384   1.026   5.998  10.798 -0.6865  0.0033 -1.0663
   33POPC   C11 4385   1.181   5.984  10.465  0.0655  0.0012 -0.0608
   33POPC  H11A 4386   1.242   6.075  10.452  1.3292 -0.8180  0.0059
   33POPC  H11B 4387   1.177   5.932  10.367 -0.0098  1.9737 -1.1273
   33POPC     P 4388   1.350   5.822  10.532  0.3924  0.3368 -0.1595
   33POPC   O13 4389   1.362   5.715  10.638 -0.0076 -0.1694 -0.6624
   33POPC   O14 4390   1.469   5.911  10.511 -0.0576  0.0351  0.0599
   33POPC   O12 4391   1.225   5.899  10.567  0.7623 -0.0136 -0.1290
   33POPC   O11 4392   1.312   5.756  10.394 -0.6358  0.0493  0.0703
   33POPC    C1 4393   1.413   5.726  10.292  0.4479  0.1040 -0.4079
   33POPC    HA 4394   1.509   5.690  10.335 -1.4304 -2.8082  1.6241
   33POPC    HB 4395   1.378   5.642  10.228 -1.3281 -0.3388  1.0955
   33POPC    C2 4396   1.454   5.846  10.204 -0.4680 -0.5825 -0.6344
   33POPC    HS 4397   1.499   5.925  10.267  0.4560 -0.4509 -1.4428
   33POPC   O21 4398   1.334   5.898  10.144 -1.0037  0.0172 -0.0239
   33POPC   C21 4399   1.322   6.040  10.145 -0.7137  0.5439  0.4537
   33POPC   O22 4400   1.397   6.118  10.191 -0.1424 -0.5078 -0.3523
   33POPC   C22 4401   1.192   6.079  10.079  0.5249  0.6517 -0.2584
   33POPC   H2R 4402   1.147   6.152  10.150 -1.4666  1.4013 -2.2371
   33POPC   H2S 4403   1.129   5.989  10.066  1.9395 -0.4593  0.5443
   33POPC    C3 4404   1.550   5.804  10.089  0.1914 -0.9706 -0.0499
   33POPC    HX 4405   1.505   5.722  10.029  0.4624 -1.3773  0.2954
   33POPC    HY 4406   1.636   5.748  10.131 -0.4377 -0.4680  1.9709
   33POPC   O31 4407   1.586   5.919  10.005  0.7449 -0.2786  0.2533
   33POPC   C31 4408   1.681   5.999  10.053 -0.1201  0.2738  0.7560
   33POPC   O32 4409   1.746   5.982  10.153  0.0860 -0.4826  0.1335
   33POPC   C32 4410   1.664   6.132   9.980 -0.0248 -0.7687 -0.3970
   33POPC   H2X 4411   1.764   6.180   9.987 -0.2933  0.1357 -2.4725
   33POPC   H2Y 4412   1.585   6.186  10.037  1.0491  1.3375 -0.8623
   33POPC   C23 4413   1.207   6.139   9.935  0.8126 -0.2506 -0.5496
   33POPC   H3R 4414   1.291   6.211   9.928 -0.6534  1.4748 -0.9448
   33POPC   H3S 4415   1.118   6.205   9.927 -0.0024 -1.3991 -1.1477
   33POPC   C24 4416   1.207   6.040   9.828  0.1215  0.7151  0.2046
   33POPC   H4R 4417   1.135   5.956   9.833 -0.5175  1.0754 -2.1857
   33POPC   H4S 4418   1.313   6.004   9.820 -0.3593 -0.9641  1.1519
   33POPC   C25 4419   1.175   6.111   9.697 -0.2065 -0.0487  0.5674
   33POPC   H5R 4420   1.239   6.202   9.688 -1.1823  0.7612  1.5780
   33POPC   H5S 4421   1.068   6.142   9.690 -0.6298 -1.8690 -1.5800
   33POPC   C26 4422   1.195   6.035   9.565  0.0636 -0.4740  0.8221
   33POPC   H6R 4423   1.146   5.936   9.573 -0.0507 -0.4532  0.3819
   33POPC   H6S 4424   1.299   6.013   9.536 -0.6619 -0.6102 -1.7768
   33POPC   C27 4425   1.138   6.111   9.448 -0.3976 -0.2299 -0.6780
   33POPC   H7R 4426   1.202   6.199   9.431  2.0585 -1.3081  2.3980
   33POPC   H7S 4427   1.033   6.143   9.466  0.4668  1.5112  1.4613
   33POPC   C28 4428   1.134   6.027   9.318  0.2615 -0.2987  0.2459
   33POPC   H8R 4429   1.088   5.927   9.332 -0.2409 -0.2915 -1.2369
   33POPC   H8S 4430   1.240   6.005   9.292 -0.0162 -0.8497 -0.4383
   33POPC   C29 4431   1.067   6.102   9.207  0.2241 -0.3406  0.8653
   33POPC   H91 4432   0.996   6.176   9.246  1.6326  2.5820 -1.9322
   33POPC  C210 4433   1.070   6.069   9.077  0.7390 -0.1798 -0.0928
   33POPC  H101 4434   0.998   6.122   9.012  0.7925  0.5330  0.4226
   33POPC  C211 4435   1.147   5.957   9.017 -0.3850  0.3106 -0.2944
   33POPC  H11R 4436   1.097   5.859   9.026 -0.0199  0.2884  1.8573
   33POPC  H11S 4437   1.240   5.950   9.077 -1.1596 -1.8541  0.7076
   33POPC  C212 4438   1.184   5.972   8.873 -0.2536 -0.3248  0.0965
   33POPC  H12R 4439   1.283   5.925   8.856  0.9635  3.1317 -3.1923
   33POPC  H12S 4440   1.214   6.071   8.834  2.0513 -0.9105  0.3041
   33POPC  C213 4441   1.091   5.907   8.770 -0.4676 -0.5659  0.2012
   33POPC  H13R 4442   0.990   5.942   8.803 -0.3070  0.1333 -0.0391
   33POPC  H13S 4443   1.081   5.797   8.765  2.1648 -0.7388 -2.0239
   33POPC  C214 4444   1.123   5.955   8.626  0.2762 -0.1802 -0.1793
   33POPC  H14R 4445   1.231   5.948   8.602  0.3152  1.2717 -0.4603
   33POPC  H14S 4446   1.111   6.066   8.625 -1.0718 -0.3310 -0.7047
   33POPC  C215 4447   1.030   5.888   8.523  0.4304 -0.3214 -0.2935
   33POPC  H15R 4448   0.991   5.960   8.448  1.6776  1.2332  0.5104
   33POPC  H15S 4449   0.942   5.842   8.572  0.2570  0.5980  0.2510
   33POPC  C216 4450   1.108   5.778   8.450  0.4408  0.4770  0.0459
   33POPC  H16R 4451   1.195   5.826   8.401  1.5814 -1.1412  0.4492
   33POPC  H16S 4452   1.055   5.742   8.359  0.6601 -1.2624  0.5996
   33POPC  C217 4453   1.154   5.657   8.535  0.2477  0.5011  0.3759
   33POPC  H17R 4454   1.067   5.603   8.577 -0.2215  0.5676 -0.4937
   33POPC  H17S 4455   1.221   5.704   8.610  1.0372  1.0900 -0.6749
   33POPC  C218 4456   1.256   5.576   8.449  0.4801  0.2849 -0.1434
   33POPC  H18R 4457   1.332   5.636   8.395  0.0122 -0.5372 -1.7565
   33POPC  H18S 4458   1.207   5.526   8.362  2.5568 -0.3523 -0.9700
   33POPC  H18T 4459   1.295   5.495   8.514  1.4446  1.4499  0.7471
   33POPC   C33 4460   1.626   6.120   9.831 -0.2993 -0.4191  0.0902
   33POPC   H3X 4461   1.522   6.087   9.811 -0.8535  0.8511  0.8140
   33POPC   H3Y 4462   1.703   6.061   9.778 -1.2511 -0.7481 -0.9473
   33POPC   C34 4463   1.623   6.264   9.766 -0.0818  0.4659 -0.5232
   33POPC   H4X 4464   1.721   6.312   9.745  0.6838 -0.9978 -0.3720
   33POPC   H4Y 4465   1.558   6.315   9.840 -2.6670 -1.6313 -1.2548
   33POPC   C35 4466   1.567   6.275   9.629  0.2993 -0.8501  0.3585
   33POPC   H5X 4467   1.593   6.372   9.582  0.9772 -0.2311  1.9745
   33POPC   H5Y 4468   1.456   6.267   9.634  0.3365 -1.0737  0.8038
   33POPC   C36 4469   1.618   6.154   9.547  0.1938  0.6326  0.1602
   33POPC   H6X 4470   1.578   6.060   9.591  1.5627  0.7323  1.6454
   33POPC   H6Y 4471   1.729   6.145   9.551  0.1961  0.4204 -0.3658
   33POPC   C37 4472   1.573   6.164   9.400 -0.2898  0.6111  0.5567
   33POPC   H7X 4473   1.469   6.196   9.421 -1.1382 -0.0498 -2.3762
   33POPC   H7Y 4474   1.580   6.060   9.361 -0.9818  0.3609  1.0973
   33POPC   C38 4475   1.635   6.269   9.308 -0.8899 -0.3651 -0.5497
   33POPC   H8X 4476   1.745   6.254   9.308 -1.2632 -3.2322  1.0094
   33POPC   H8Y 4477   1.607   6.368   9.350 -0.4113 -0.1345 -0.7689
   33POPC   C39 4478   1.573   6.266   9.170 -1.2112  0.0775  1.0643
   33POPC   H9X 4479   1.601   6.359   9.117  1.8017 -1.6633 -0.5843
   33POPC   H9Y 4480   1.462   6.258   9.169 -1.2500  0.6235 -0.0025
   33POPC  C310 4481   1.635   6.153   9.088  0.3124 -1.1660 -0.5809
   33POPC  H10X 4482   1.622   6.059   9.146  2.1672 -0.6578  0.6924
   33POPC  H10Y 4483   1.745   6.166   9.080  0.0635  1.1675 -0.3710
   33POPC  C311 4484   1.580   6.143   8.948  0.0451  0.6963 -0.1566
   33POPC  H11X 4485   1.574   6.245   8.904 -1.0821  1.1177  0.9549
   33POPC  H11Y 4486   1.477   6.105   8.965  0.1821  0.4562  0.1429
   33POPC  C312 4487   1.652   6.037   8.866  0.1778 -0.3441  0.1647
   33POPC  H12X 4488   1.662   5.940   8.920 -3.4640 -1.9149 -1.7720
   33POPC  H12Y 4489   1.760   6.061   8.857  0.0395  0.1556 -0.1906
   33POPC  C313 4490   1.581   5.995   8.734  0.6946  0.4677  0.1187
   33POPC  H13X 4491   1.473   5.971   8.743  1.0141 -0.8930  0.3634
   33POPC  H13Y 4492   1.628   5.899   8.702 -0.2497  0.6323 -1.8347
   33POPC  C314 4493   1.600   6.093   8.617 -0.3021 -0.8454 -0.0159
   33POPC  H14X 4494   1.700   6.141   8.625 -1.5135  1.5463  1.3541
   33POPC  H14Y 4495   1.524   6.172   8.636  0.4702 -0.0581 -0.1555
   33POPC  C315 4496   1.546   6.036   8.480  0.5226  0.1451 -0.4733
   33POPC  H15X 4497   1.436   6.042   8.489  0.5059  0.1582 -0.6832
   33POPC  H15Y 4498   1.569   5.929   8.460 -3.4616 -0.5177 -2.0251
   33POPC  C316 4499   1.585   6.117   8.363  0.6708 -0.6756 -0.4402
   33POPC  H16X 4500   1.550   6.077   8.266  1.6359  2.0696 -1.9842
   33POPC  H16Y 4501   1.693   6.139   8.359  0.5258  0.0934 -0.2358
   33POPC  H16Z 4502   1.530   6.214   8.356 -1.0050 -1.5940 -0.3949
   34POPC     N 4503   0.349   0.384  11.105 -0.2551  0.3769 -0.0973
   34POPC   C12 4504   0.286   0.406  10.964 -0.6776 -0.2680 -0.8831
   34POPC  H12A 4505   0.188   0.451  10.979 -1.2250 -1.1622 -1.7742
   34POPC  H12B 4506   0.267   0.314  10.912 -2.0120 -1.1162  1.0173
   34POPC   C13 4507   0.494   0.339  11.095  0.0701 -0.0599 -0.1097
   34POPC  H13A 4508   0.539   0.332  11.193 -0.9477  2.4929  0.5730
   34POPC  H13B 4509   0.504   0.241  11.050  2.7015  0.4108 -0.6114
   34POPC  H13C 4510   0.550   0.419  11.050 -3.3291  1.2637 -2.2336
   34POPC   C14 4511   0.364   0.512  11.185 -0.2704 -0.3825  0.1586
   34POPC  H14A 4512   0.430   0.581  11.134  0.9229 -3.7428 -3.1042
   34POPC  H14B 4513   0.267   0.560  11.186 -0.8546 -1.5528  1.6071
   34POPC  H14C 4514   0.400   0.504  11.286  0.9446 -1.5352 -0.3531
   34POPC   C15 4515   0.269   0.291  11.182  0.0478 -0.3093 -0.1186
   34POPC  H15A 4516   0.319   0.259  11.272 -1.0873 -0.2460  0.5567
   34POPC  H15B 4517   0.259   0.203  11.120  1.9788  0.0554 -0.9451
   34POPC  H15C 4518   0.171   0.330  11.209  0.6120 -0.0789  1.6523
   34POPC   C11 4519   0.366   0.495  10.857  0.0872 -0.0296 -0.5323
   34POPC  H11A 4520   0.297   0.501  10.770  0.5302  0.7646 -0.8287
   34POPC  H11B 4521   0.461   0.448  10.823  0.4317 -2.3501  3.3481
   34POPC     P 4522   0.286   0.745  10.907  0.0549 -0.0064  0.0056
   34POPC   O13 4523   0.339   0.856  10.988  0.2280 -0.0069 -0.8975
   34POPC   O14 4524   0.149   0.697  10.939  0.2745  0.5752 -0.2598
   34POPC   O12 4525   0.393   0.626  10.909  0.1277  0.3596  0.3417
   34POPC   O11 4526   0.294   0.783  10.758  0.2446  0.8427 -0.1080
   34POPC    C1 4527   0.420   0.816  10.703  0.6476 -0.2830  0.4338
   34POPC    HA 4528   0.508   0.757  10.736  1.7516  0.3532 -1.2911
   34POPC    HB 4529   0.450   0.921  10.727  1.2566 -0.1873 -0.7487
   34POPC    C2 4530   0.410   0.799  10.551  1.0337  0.0543  0.2049
   34POPC    HS 4531   0.335   0.870  10.509 -0.1178 -1.0104  0.4439
   34POPC   O21 4532   0.383   0.666  10.509 -0.1475  0.0503  0.1867
   34POPC   C21 4533   0.248   0.641  10.508 -0.1929  0.2466  0.1261
   34POPC   O22 4534   0.166   0.732  10.533 -0.1552 -0.4078 -0.0226
   34POPC   C22 4535   0.222   0.494  10.484  0.3987  0.4958  0.3930
   34POPC   H2R 4536   0.141   0.463  10.553  0.3825  0.6304  0.4333
   34POPC   H2S 4537   0.308   0.428  10.506 -0.9423 -1.2897  0.4023
   34POPC    C3 4538   0.539   0.850  10.484  0.2845 -0.3807 -1.2304
   34POPC    HX 4539   0.623   0.780  10.503 -0.5055 -1.0715 -0.2178
   34POPC    HY 4540   0.568   0.942  10.539 -2.1530  0.9482 -2.1111
   34POPC   O31 4541   0.518   0.880  10.345 -0.1266 -0.2761 -0.0375
   34POPC   C31 4542   0.548   0.775  10.268  0.1440 -0.0130  0.3759
   34POPC   O32 4543   0.571   0.661  10.302  0.1825  0.9773 -0.5495
   34POPC   C32 4544   0.520   0.821  10.121 -0.5424  0.1517 -0.0054
   34POPC   H2X 4545   0.515   0.932  10.118 -0.1870  0.2566  2.5392
   34POPC   H2Y 4546   0.425   0.772  10.089  0.4032 -0.7978 -1.4451
   34POPC   C23 4547   0.167   0.450  10.349 -0.1723  0.6986 -1.3375
   34POPC   H3R 4548   0.083   0.511  10.309  0.3897  1.7921 -0.8614
   34POPC   H3S 4549   0.151   0.340  10.349 -0.4937  0.7455 -1.6540
   34POPC   C24 4550   0.280   0.456  10.243  0.3646 -0.1089 -0.3225
   34POPC   H4R 4551   0.376   0.410  10.273  0.0024  1.2359  3.1607
   34POPC   H4S 4552   0.291   0.564  10.219  0.8452  0.1662  1.1027
   34POPC   C25 4553   0.243   0.379  10.116  0.2610 -1.0795 -0.6688
   34POPC   H5R 4554   0.137   0.348  10.101 -0.7798  1.1663  1.6605
   34POPC   H5S 4555   0.287   0.279  10.136  0.5413 -0.3204  2.8615
   34POPC   C26 4556   0.291   0.441   9.986  0.2399 -0.4735  0.2485
   34POPC   H6R 4557   0.401   0.435   9.976  0.2876 -4.1159  2.0186
   34POPC   H6S 4558   0.254   0.546   9.987 -1.2111 -0.9525  2.5362
   34POPC   C27 4559   0.240   0.357   9.866  0.7445 -0.1003 -0.0326
   34POPC   H7R 4560   0.130   0.358   9.882  1.0747  2.2059  2.5500
   34POPC   H7S 4561   0.280   0.254   9.871  3.5882  0.9652  0.0887
   34POPC   C28 4562   0.278   0.408   9.736  0.3916  0.0646  0.2037
   34POPC   H8R 4563   0.224   0.503   9.717 -0.8327 -0.6527  0.0492
   34POPC   H8S 4564   0.245   0.328   9.666  3.0011 -1.9346  1.1529
   34POPC   C29 4565   0.422   0.428   9.711 -0.0856 -0.1593  0.5710
   34POPC   H91 4566   0.482   0.448   9.802 -1.0162 -1.6254  1.5314
   34POPC  C210 4567   0.493   0.421   9.595  0.0745  0.0690  0.0923
   34POPC  H101 4568   0.596   0.460   9.600 -0.1281  0.7608 -0.8825
   34POPC  C211 4569   0.450   0.386   9.455  0.0063 -0.4760  0.0832
   34POPC  H11R 4570   0.421   0.279   9.467  0.4962 -0.3384  2.6094
   34POPC  H11S 4571   0.540   0.390   9.389  0.6588 -0.7033  0.9508
   34POPC  C212 4572   0.337   0.465   9.398 -0.1871  0.9203  0.7743
   34POPC  H12R 4573   0.371   0.570   9.379  0.9429  0.1368 -1.7946
   34POPC  H12S 4574   0.249   0.478   9.464 -1.2484  1.8045 -0.7675
   34POPC  C213 4575   0.290   0.403   9.265  1.3118  0.4767  0.6471
   34POPC  H13R 4576   0.234   0.310   9.289  0.5132  0.5188 -1.0329
   34POPC  H13S 4577   0.387   0.374   9.219  1.8859 -1.3715  2.8921
   34POPC  C214 4578   0.198   0.475   9.163 -0.0352  0.1464  0.2920
   34POPC  H14R 4579   0.257   0.549   9.104  0.6542 -0.4406  0.2434
   34POPC  H14S 4580   0.119   0.532   9.218 -1.2329 -1.0726 -0.1544
   34POPC  C215 4581   0.135   0.365   9.074  0.3673 -0.1541 -0.0839
   34POPC  H15R 4582   0.086   0.286   9.135  1.0673 -0.1510  0.4908
   34POPC  H15S 4583   0.218   0.331   9.008 -0.5893  0.6830 -1.7269
   34POPC  C216 4584   0.032   0.419   8.971 -0.9358 -0.2001  0.2209
   34POPC  H16R 4585  -0.054   0.464   9.025 -1.8481 -0.9078 -0.6395
   34POPC  H16S 4586  -0.001   0.328   8.917  0.8170  0.4720 -2.0113
   34POPC  C217 4587   0.078   0.523   8.873  0.1093  0.2024  1.0923
   34POPC  H17R 4588   0.179   0.492   8.841 -1.3518 -1.4580 -2.1582
   34POPC  H17S 4589   0.076   0.624   8.920 -2.2634  0.7787 -0.1567
   34POPC  C218 4590  -0.009   0.517   8.750 -0.2130 -0.3899 -0.1250
   34POPC  H18R 4591   0.012   0.606   8.687  3.2052  1.5845  3.5217
   34POPC  H18S 4592  -0.117   0.534   8.769 -0.4072 -0.2103 -1.3793
   34POPC  H18T 4593   0.008   0.418   8.703 -1.0936 -0.8655  0.5484
   34POPC   C33 4594   0.630   0.767  10.028  0.0084  0.1593  0.5582
   34POPC   H3X 4595   0.658   0.665  10.061  2.7117  0.7095  0.1152
   34POPC   H3Y 4596   0.722   0.823  10.056 -1.9549  1.6809  4.2597
   34POPC   C34 4597   0.618   0.778   9.877 -0.2976  0.5592 -0.2728
   34POPC   H4X 4598   0.520   0.742   9.840 -0.3819  0.6134 -0.1048
   34POPC   H4Y 4599   0.694   0.710   9.834 -0.8440 -0.1745 -0.0836
   34POPC   C35 4600   0.649   0.917   9.819  0.8187 -0.1951 -0.1651
   34POPC   H5X 4601   0.738   0.966   9.863  1.1550 -0.4519 -0.5548
   34POPC   H5Y 4602   0.567   0.986   9.847 -1.3649 -2.0965 -1.6571
   34POPC   C36 4603   0.654   0.912   9.665  0.5666  0.0920  0.5286
   34POPC   H6X 4604   0.573   0.845   9.628  0.9402 -0.1212  0.1076
   34POPC   H6Y 4605   0.750   0.882   9.619 -0.4242  0.1565 -1.6387
   34POPC   C37 4606   0.640   1.057   9.619 -0.3963 -0.3264 -0.3214
   34POPC   H7X 4607   0.715   1.126   9.664 -1.3100  2.0453 -2.3402
   34POPC   H7Y 4608   0.537   1.091   9.642 -0.3338 -0.8062  0.7108
   34POPC   C38 4609   0.638   1.090   9.469  0.1907 -0.1562 -0.0132
   34POPC   H8X 4610   0.735   1.051   9.431 -0.0692  0.7288 -1.6341
   34POPC   H8Y 4611   0.636   1.201   9.462  1.6277 -0.0298  1.2590
   34POPC   C39 4612   0.518   1.025   9.399  0.3270 -0.2934  0.6054
   34POPC   H9X 4613   0.425   1.067   9.442  0.2512  0.1664 -0.0113
   34POPC   H9Y 4614   0.523   0.915   9.415  0.8277 -0.2572  0.7314
   34POPC  C310 4615   0.528   1.055   9.243  0.0447 -0.0253 -0.4177
   34POPC  H10X 4616   0.633   1.043   9.211  0.5070  0.7014  0.7740
   34POPC  H10Y 4617   0.502   1.163   9.233 -1.2120 -0.1847  0.9288
   34POPC  C311 4618   0.419   0.972   9.168 -0.7546 -0.6167  0.0092
   34POPC  H11X 4619   0.322   1.024   9.184 -1.2197 -0.7720 -2.1305
   34POPC  H11Y 4620   0.429   0.864   9.192  1.2405 -0.4362  0.0166
   34POPC  C312 4621   0.425   0.988   9.010  0.0236 -0.0849 -0.4608
   34POPC  H12X 4622   0.521   0.941   8.982  0.2081 -1.8019  2.8386
   34POPC  H12Y 4623   0.417   1.094   8.977  1.3681  0.3838  0.6667
   34POPC  C313 4624   0.318   0.893   8.945  0.2426 -0.0203  0.9322
   34POPC  H13X 4625   0.216   0.924   8.979 -0.2909 -2.0637  1.2366
   34POPC  H13Y 4626   0.331   0.794   8.993 -0.5807 -0.2266  0.7310
   34POPC  C314 4627   0.323   0.879   8.798  0.1431  0.0073  0.4346
   34POPC  H14X 4628   0.275   0.790   8.753 -0.3140  0.6098 -0.2779
   34POPC  H14Y 4629   0.426   0.881   8.757  0.2639  0.3695  0.7551
   34POPC  C315 4630   0.256   1.000   8.732 -0.6272 -0.1146 -0.2497
   34POPC  H15X 4631   0.268   1.095   8.789  0.8214 -1.4932  1.7643
   34POPC  H15Y 4632   0.148   0.974   8.734 -0.8108  0.7191  2.8257
   34POPC  C316 4633   0.291   1.019   8.587 -1.0009 -0.5657 -0.3009
   34POPC  H16X 4634   0.243   1.105   8.537  0.5798 -0.5135 -1.7674
   34POPC  H16Y 4635   0.265   0.932   8.523  1.5218 -1.7433  0.2090
   34POPC  H16Z 4636   0.400   1.040   8.579 -0.9510 -0.5600  0.3545
   35POPC     N 4637   0.002   4.902  11.183  0.0591  0.3212 -0.5271
   35POPC   C12 4638   0.077   4.805  11.097 -0.2541  0.8551  0.4394
   35POPC  H12A 4639   0.129   4.731  11.156 -2.4116 -0.8058  0.2826
   35POPC  H12B 4640   0.156   4.856  11.042  1.0973 -1.8177 -0.1604
   35POPC   C13 4641   0.087   4.992  11.261 -0.1819  0.7275 -0.3726
   35POPC  H13A 4642   0.027   5.055  11.324 -0.4279 -0.7343  0.8659
   35POPC  H13B 4643   0.146   4.941  11.336 -0.0773  1.5425  0.1073
   35POPC  H13C 4644   0.157   5.050  11.201 -0.2873  1.9953  0.7084
   35POPC   C14 4645  -0.088   4.989  11.096 -0.4376  0.6297  0.0302
   35POPC  H14A 4646  -0.143   5.066  11.148  0.6444  1.8925 -0.6783
   35POPC  H14B 4647  -0.035   5.029  11.011 -1.0113  0.5475 -0.3762
   35POPC  H14C 4648  -0.172   4.927  11.069 -0.7163 -0.1311  2.4998
   35POPC   C15 4649  -0.103   4.831  11.279  0.2115  0.8077 -0.9535
   35POPC  H15A 4650  -0.050   4.752  11.331 -1.6742  0.6757  0.8602
   35POPC  H15B 4651  -0.182   4.791  11.217 -0.0551  0.8125 -0.6169
   35POPC  H15C 4652  -0.146   4.905  11.344 -0.3728  0.1258 -0.5531
   35POPC   C11 4653   0.001   4.719  10.997  0.5166  0.2196  0.8275
   35POPC  H11A 4654   0.076   4.674  10.928 -1.0515  0.1166 -0.8287
   35POPC  H11B 4655  -0.061   4.796  10.946  1.0358 -1.0679 -1.8284
   35POPC     P 4656  -0.049   4.509  11.151 -0.2487  0.4807  0.3783
   35POPC   O13 4657  -0.164   4.470  11.233  0.2325 -0.1931 -0.4547
   35POPC   O14 4658   0.074   4.542  11.229 -0.0796 -0.5361  0.2137
   35POPC   O12 4659  -0.092   4.621  11.052  0.2770 -0.2960  0.0558
   35POPC   O11 4660  -0.007   4.393  11.047 -0.4973  0.4469  0.4977
   35POPC    C1 4661  -0.115   4.353  10.964 -0.4261 -0.2380  0.9172
   35POPC    HA 4662  -0.190   4.429  10.934 -2.4789 -2.1695  0.9984
   35POPC    HB 4663  -0.176   4.280  11.021 -1.0905 -0.4569 -0.0571
   35POPC    C2 4664  -0.061   4.254  10.858  0.3233  0.3085 -0.1210
   35POPC    HS 4665  -0.005   4.178  10.917  1.0467  1.1249  0.2518
   35POPC   O21 4666   0.034   4.321  10.773  0.3089  0.1799  0.4282
   35POPC   C21 4667   0.112   4.239  10.701  0.3384  0.1862 -0.3289
   35POPC   O22 4668   0.111   4.116  10.716  0.7945 -0.0816  0.2390
   35POPC   C22 4669   0.180   4.320  10.602  0.1060 -0.1932 -0.4067
   35POPC   H2R 4670   0.227   4.395  10.668  0.7359 -1.3377  0.4696
   35POPC   H2S 4671   0.107   4.364  10.530 -0.4795  0.1687  0.3973
   35POPC    C3 4672  -0.195   4.216  10.771 -0.6355 -0.0713 -0.6038
   35POPC    HX 4673  -0.230   4.317  10.742 -2.7531 -0.4341  0.5904
   35POPC    HY 4674  -0.276   4.179  10.838  0.4126 -2.4446 -0.5908
   35POPC   O31 4675  -0.166   4.130  10.658 -0.0285 -0.2671 -0.3407
   35POPC   C31 4676  -0.277   4.132  10.577 -0.2007 -0.6731 -0.4962
   35POPC   O32 4677  -0.382   4.182  10.605 -0.1512 -0.8816  0.5991
   35POPC   C32 4678  -0.261   4.047  10.451  0.3255  0.4672  0.5478
   35POPC   H2X 4679  -0.349   3.979  10.440 -0.3995  1.1162  2.1066
   35POPC   H2Y 4680  -0.173   3.980  10.465 -0.0127  0.3696  2.3438
   35POPC   C23 4681   0.286   4.232  10.532  0.5097 -0.0988  0.0106
   35POPC   H3R 4682   0.358   4.186  10.604  0.5968  1.9755  1.2857
   35POPC   H3S 4683   0.354   4.302  10.478  1.7738 -2.8627 -2.1423
   35POPC   C24 4684   0.220   4.142  10.421 -0.0700 -0.4480  0.4317
   35POPC   H4R 4685   0.174   4.213  10.348 -1.3225 -1.8578 -0.1637
   35POPC   H4S 4686   0.130   4.098  10.469  0.2059 -0.5100  0.8963
   35POPC   C25 4687   0.305   4.036  10.355 -0.1144  0.0462  0.5569
   35POPC   H5R 4688   0.244   3.973  10.287 -1.4014  2.3405 -0.4340
   35POPC   H5S 4689   0.345   3.970  10.436 -0.0420  0.0835  0.5504
   35POPC   C26 4690   0.421   4.095  10.273  0.3786  0.3234  0.3808
   35POPC   H6R 4691   0.498   4.017  10.255  0.3973  0.2124  0.9263
   35POPC   H6S 4692   0.480   4.155  10.345 -0.6648  2.5496 -0.5830
   35POPC   C27 4693   0.377   4.172  10.145 -0.6725  0.6468 -0.3285
   35POPC   H7R 4694   0.474   4.208  10.105  1.5783 -2.0609  2.4523
   35POPC   H7S 4695   0.305   4.252  10.175 -0.6467  0.9951 -1.1623
   35POPC   C28 4696   0.310   4.093  10.036  0.2010 -0.1066 -0.3289
   35POPC   H8R 4697   0.212   4.049  10.061  0.0930  0.7148  0.7296
   35POPC   H8S 4698   0.371   4.003  10.010 -0.3290 -0.4362 -0.4272
   35POPC   C29 4699   0.277   4.194   9.925 -0.4117 -0.0976 -0.1009
   35POPC   H91 4700   0.228   4.287   9.957  0.9367  0.9297 -0.9343
   35POPC  C210 4701   0.306   4.170   9.797  0.2421  0.0151 -0.5320
   35POPC  H101 4702   0.302   4.255   9.727  0.5217  0.5678  0.1173
   35POPC  C211 4703   0.366   4.044   9.745  0.2262  0.2322 -0.3708
   35POPC  H11R 4704   0.382   3.964   9.821 -0.4457 -0.4773 -0.9665
   35POPC  H11S 4705   0.458   4.067   9.688 -0.1200  3.4447  0.2429
   35POPC  C212 4706   0.260   3.984   9.639 -0.5996  0.1794  0.8227
   35POPC  H12R 4707   0.160   3.976   9.686 -1.1644 -0.4837 -0.4629
   35POPC  H12S 4708   0.300   3.885   9.608  0.1091  0.1149  1.9249
   35POPC  C213 4709   0.240   4.062   9.510  0.1616 -0.2739  0.5314
   35POPC  H13R 4710   0.252   4.172   9.520 -1.0381 -0.4382  4.5858
   35POPC  H13S 4711   0.143   4.039   9.459  0.5825  1.4316 -1.0659
   35POPC  C214 4712   0.339   4.011   9.402 -0.0996  0.1490 -0.2629
   35POPC  H14R 4713   0.315   3.903   9.398  1.8771 -0.2971 -0.4863
   35POPC  H14S 4714   0.441   4.036   9.439 -0.5123  0.9081  0.3747
   35POPC  C215 4715   0.323   4.085   9.270  0.0201  0.3483 -0.1203
   35POPC  H15R 4716   0.348   4.192   9.285  1.3063 -0.0045  0.3189
   35POPC  H15S 4717   0.213   4.082   9.254  0.3101  0.0514 -2.2582
   35POPC  C216 4718   0.410   4.020   9.161  0.2493  0.0243 -0.8331
   35POPC  H16R 4719   0.387   3.913   9.141  3.0866 -0.5972 -0.8897
   35POPC  H16S 4720   0.512   4.026   9.203  0.6172  1.6216 -1.8982
   35POPC  C217 4721   0.420   4.100   9.028  0.5548  0.6858  0.2205
   35POPC  H17R 4722   0.521   4.073   8.992  1.4838  0.3614  2.9086
   35POPC  H17S 4723   0.410   4.210   9.046  0.2194  1.2222 -3.0617
   35POPC  C218 4724   0.320   4.062   8.915  0.8106 -0.2996  0.2096
   35POPC  H18R 4725   0.233   4.128   8.928  1.7553  0.8486  0.8122
   35POPC  H18S 4726   0.287   3.958   8.937  0.2100 -0.0027  0.7086
   35POPC  H18T 4727   0.368   4.072   8.815  0.3404  1.4672  0.1565
   35POPC   C33 4728  -0.251   4.141  10.330 -0.2347  0.2368 -0.1831
   35POPC   H3X 4729  -0.336   4.212  10.337 -0.5234 -0.0959 -0.3310
   35POPC   H3Y 4730  -0.255   4.073  10.242 -2.1463 -0.5813  0.5160
   35POPC   C34 4731  -0.121   4.219  10.317  0.4518  0.3393 -0.4139
   35POPC   H4X 4732  -0.030   4.155  10.316 -0.2053 -0.6061  0.0197
   35POPC   H4Y 4733  -0.110   4.275  10.413  0.9047 -0.3838 -0.0357
   35POPC   C35 4734  -0.105   4.309  10.196  0.0334 -0.0200  0.4620
   35POPC   H5X 4735  -0.018   4.378  10.197  0.1092  0.0221 -3.1633
   35POPC   H5Y 4736  -0.195   4.374  10.188 -0.6066 -1.1184 -1.4039
   35POPC   C36 4737  -0.095   4.220  10.074 -0.8304 -0.3502  0.1303
   35POPC   H6X 4738  -0.180   4.149  10.063 -0.8712 -0.3581  0.5055
   35POPC   H6Y 4739  -0.009   4.151  10.090 -0.0637  0.5569 -0.0218
   35POPC   C37 4740  -0.099   4.307   9.946  0.0068  0.7426  1.1808
   35POPC   H7X 4741  -0.004   4.355   9.917  0.8780 -2.4136 -1.5240
   35POPC   H7Y 4742  -0.181   4.382   9.949  0.3203  1.1639 -0.4269
   35POPC   C38 4743  -0.139   4.215   9.833  0.7619 -0.6573 -0.6038
   35POPC   H8X 4744  -0.234   4.166   9.861 -1.0708  2.2562 -1.4529
   35POPC   H8Y 4745  -0.056   4.142   9.820 -1.1076 -2.7119 -1.2122
   35POPC   C39 4746  -0.131   4.287   9.701 -0.1254  0.3220 -0.0381
   35POPC   H9X 4747  -0.076   4.383   9.710 -0.4090  0.6487 -1.6839
   35POPC   H9Y 4748  -0.236   4.314   9.677 -1.1774 -3.3629  0.1233
   35POPC  C310 4749  -0.076   4.214   9.576  0.8067 -0.1062  0.5929
   35POPC  H10X 4750   0.013   4.156   9.609  0.9252  1.6771  3.5296
   35POPC  H10Y 4751  -0.047   4.289   9.500 -0.1700 -0.7384 -0.4253
   35POPC  C311 4752  -0.193   4.130   9.515 -0.0263  0.3028 -0.6578
   35POPC  H11X 4753  -0.275   4.202   9.496 -0.3951  0.1488  0.3166
   35POPC  H11Y 4754  -0.223   4.062   9.597  1.4562  0.5343  0.0971
   35POPC  C312 4755  -0.156   4.043   9.394 -0.0053 -0.2900  0.3203
   35POPC  H12X 4756  -0.248   3.996   9.355  0.1119 -0.8177  0.6777
   35POPC  H12Y 4757  -0.085   3.966   9.430  0.0221  0.4537  1.9129
   35POPC  C313 4758  -0.099   4.118   9.279  0.6191  0.4703  0.5430
   35POPC  H13X 4759  -0.012   4.179   9.313  1.4153 -0.2859 -0.1020
   35POPC  H13Y 4760  -0.171   4.192   9.238 -1.0204 -2.2979 -1.7333
   35POPC  C314 4761  -0.070   4.022   9.159  0.6175  0.3089  0.4395
   35POPC  H14X 4762  -0.167   3.971   9.145  0.6593  0.8054 -1.7028
   35POPC  H14Y 4763   0.010   3.951   9.192  0.8654 -0.1514 -1.0931
   35POPC  C315 4764  -0.031   4.097   9.031  0.2724 -0.7965 -0.4319
   35POPC  H15X 4765   0.063   4.151   9.051 -0.3625  0.5070 -0.8677
   35POPC  H15Y 4766  -0.118   4.160   9.002  1.1875  2.0766  2.7357
   35POPC  C316 4767  -0.012   3.994   8.908  0.3537 -0.4881  0.0100
   35POPC  H16X 4768  -0.000   4.059   8.818 -2.9090  0.5747  0.3022
   35POPC  H16Y 4769  -0.105   3.934   8.903 -0.4805  0.7467  0.4756
   35POPC  H16Z 4770   0.073   3.928   8.935 -0.5782 -1.1801  1.2974
   36POPC     N 4771   0.576   3.159  10.760 -0.3059 -0.3642  0.2715
   36POPC   C12 4772   0.438   3.128  10.717  0.4891  0.2143 -0.0906
   36POPC  H12A 4773   0.409   3.174  10.624  2.6516  0.8605 -0.4642
   36POPC  H12B 4774   0.370   3.166  10.792  0.0445  1.1527 -0.9598
   36POPC   C13 4775   0.599   3.101  10.888 -0.3424  1.2786 -0.4320
   36POPC  H13A 4776   0.578   2.995  10.883  0.0448  1.1150  1.2695
   36POPC  H13B 4777   0.703   3.117  10.911  0.1552 -0.8034 -1.1537
   36POPC  H13C 4778   0.534   3.145  10.962 -1.3069 -0.7988 -0.0031
   36POPC   C14 4779   0.679   3.107  10.659  0.4695 -0.5252 -0.8653
   36POPC  H14A 4780   0.771   3.160  10.680  1.1932 -2.2951  0.5547
   36POPC  H14B 4781   0.699   3.002  10.674  1.0892 -0.2758  0.0879
   36POPC  H14C 4782   0.642   3.136  10.562 -1.4913  0.7272  0.2201
   36POPC   C15 4783   0.601   3.308  10.775  0.0875  0.1500  0.2494
   36POPC  H15A 4784   0.525   3.347  10.840 -1.5254 -2.4308  0.0062
   36POPC  H15B 4785   0.602   3.352  10.676  0.0662  1.8533  1.0115
   36POPC  H15C 4786   0.695   3.331  10.823 -1.6387  1.1182  3.2132
   36POPC   C11 4787   0.408   2.979  10.698 -0.7336 -0.3355  0.3795
   36POPC  H11A 4788   0.497   2.926  10.658  0.3777  0.4101  1.7747
   36POPC  H11B 4789   0.327   2.971  10.623 -1.6745  1.1439  1.2175
   36POPC     P 4790   0.237   2.949  10.892  0.4725 -0.0822 -0.0865
   36POPC   O13 4791   0.222   3.105  10.893 -0.4806  0.3145  0.7115
   36POPC   O14 4792   0.233   2.880  11.018  0.5380  0.0250  0.2396
   36POPC   O12 4793   0.373   2.916  10.820 -0.0788 -0.5411  0.1594
   36POPC   O11 4794   0.133   2.878  10.782  0.1110 -0.2462 -0.4383
   36POPC    C1 4795   0.134   2.732  10.775 -0.7143 -0.3941  0.2955
   36POPC    HA 4796   0.093   2.691  10.870  0.3979  1.2511  1.5246
   36POPC    HB 4797   0.240   2.701  10.770 -0.1540  1.2941  1.2545
   36POPC    C2 4798   0.067   2.679  10.644 -0.0322 -0.2740 -1.3135
   36POPC    HS 4799   0.066   2.568  10.647 -1.8624 -0.2700 -1.1023
   36POPC   O21 4800   0.148   2.730  10.539 -0.2469 -0.1639 -0.2421
   36POPC   C21 4801   0.252   2.657  10.505  0.4057  0.5178  0.6471
   36POPC   O22 4802   0.270   2.538  10.539  0.4921  0.2246 -0.2263
   36POPC   C22 4803   0.345   2.730  10.415 -0.0911 -0.2303  0.4514
   36POPC   H2R 4804   0.453   2.713  10.435  0.3809  0.4113 -1.4537
   36POPC   H2S 4805   0.331   2.840  10.420  2.1875 -0.0068  3.3654
   36POPC    C3 4806  -0.082   2.720  10.639  0.2670 -0.5149 -0.2152
   36POPC    HX 4807  -0.106   2.825  10.665 -2.0043 -0.3878 -2.5305
   36POPC    HY 4808  -0.126   2.657  10.719  3.7406 -0.8462  1.4823
   36POPC   O31 4809  -0.147   2.683  10.518  0.1792 -0.5464 -0.5533
   36POPC   C31 4810  -0.141   2.767  10.419 -0.2318  0.0162 -0.1948
   36POPC   O32 4811  -0.076   2.872  10.423  0.6524 -0.3098  0.0840
   36POPC   C32 4812  -0.220   2.723  10.292  0.7570 -0.2055 -0.5041
   36POPC   H2X 4813  -0.328   2.731  10.315  1.2502  1.3809  1.3149
   36POPC   H2Y 4814  -0.204   2.614  10.276  3.7175  0.0633  0.3837
   36POPC   C23 4815   0.335   2.688  10.268  0.2602  0.4014  0.7126
   36POPC   H3R 4816   0.243   2.734  10.227  0.4139  0.0617 -0.0117
   36POPC   H3S 4817   0.343   2.578  10.254 -0.3867  0.1026  2.5325
   36POPC   C24 4818   0.458   2.733  10.189  0.2278  0.2564  0.2898
   36POPC   H4R 4819   0.550   2.679  10.220 -0.1312 -0.7213 -0.3233
   36POPC   H4S 4820   0.483   2.840  10.208  1.1001  0.2399 -0.7360
   36POPC   C25 4821   0.435   2.706  10.036  0.4755  0.0516  0.1770
   36POPC   H5R 4822   0.377   2.787   9.988  0.7598  0.3951  0.4152
   36POPC   H5S 4823   0.388   2.605  10.030  0.8419 -0.1499  0.6507
   36POPC   C26 4824   0.571   2.684   9.968  0.1190  0.7802  0.4806
   36POPC   H6R 4825   0.637   2.618  10.028 -2.8036 -1.9830  0.7830
   36POPC   H6S 4826   0.620   2.784   9.970 -0.4083  1.0944 -1.1018
   36POPC   C27 4827   0.562   2.639   9.820 -0.5529 -0.0140  0.8584
   36POPC   H7R 4828   0.520   2.733   9.777  1.4844 -0.1631 -1.5739
   36POPC   H7S 4829   0.491   2.555   9.810 -2.1525  1.4093 -0.0267
   36POPC   C28 4830   0.689   2.606   9.748  0.2405 -0.1421  0.1611
   36POPC   H8R 4831   0.733   2.519   9.800  2.6224 -0.5702 -2.5019
   36POPC   H8S 4832   0.755   2.695   9.760 -0.0128  0.0991 -0.2109
   36POPC   C29 4833   0.651   2.563   9.609 -0.6008 -0.5952 -0.5912
   36POPC   H91 4834   0.592   2.470   9.605  0.9684 -1.5594 -2.6803
   36POPC  C210 4835   0.672   2.632   9.496  0.2997  0.0580 -0.0247
   36POPC  H101 4836   0.636   2.596   9.398  1.4408 -2.8905  0.6011
   36POPC  C211 4837   0.743   2.768   9.489 -0.4634  0.4247 -0.4812
   36POPC  H11R 4838   0.825   2.765   9.565 -0.9631  1.3375  0.0985
   36POPC  H11S 4839   0.674   2.847   9.524  1.1292  1.5242  0.2526
   36POPC  C212 4840   0.813   2.804   9.356  0.0536  0.0432  0.5971
   36POPC  H12R 4841   0.866   2.710   9.331 -1.9372 -1.8630  3.1965
   36POPC  H12S 4842   0.889   2.883   9.373  1.5802 -1.0423 -0.9794
   36POPC  C213 4843   0.721   2.854   9.237  0.3614 -0.1542 -0.4599
   36POPC  H13R 4844   0.685   2.952   9.275  0.7979 -0.0797 -0.2427
   36POPC  H13S 4845   0.645   2.774   9.221  0.8810 -0.5412 -1.0429
   36POPC  C214 4846   0.798   2.882   9.103 -0.1163  0.6974  0.4036
   36POPC  H14R 4847   0.873   2.962   9.121  0.6900  0.3435 -1.3286
   36POPC  H14S 4848   0.727   2.925   9.029 -0.5436  0.9976  0.9877
   36POPC  C215 4849   0.861   2.756   9.043 -0.1799  0.1497 -0.3156
   36POPC  H15R 4850   0.781   2.684   9.015  1.1041 -1.5400  0.2958
   36POPC  H15S 4851   0.914   2.707   9.127 -0.2370 -1.1707 -1.0445
   36POPC  C216 4852   0.950   2.784   8.921 -0.1688 -0.9652 -0.5974
   36POPC  H16R 4853   1.047   2.829   8.949  0.0232 -2.9658  2.1467
   36POPC  H16S 4854   0.898   2.855   8.854 -0.7010 -2.1633 -1.4693
   36POPC  C217 4855   0.956   2.666   8.830  0.0059 -0.0963 -0.4970
   36POPC  H17R 4856   1.014   2.693   8.738  0.6836  0.9187  0.2098
   36POPC  H17S 4857   0.856   2.625   8.807  0.1778  0.7015 -2.8717
   36POPC  C218 4858   1.028   2.548   8.903  0.7753 -0.0921  0.8063
   36POPC  H18R 4859   1.131   2.576   8.935  0.3258  1.8094  0.6722
   36POPC  H18S 4860   1.036   2.456   8.841 -0.5077 -0.2032  0.8051
   36POPC  H18T 4861   0.974   2.527   8.997  1.3494 -2.1116  0.7116
   36POPC   C33 4862  -0.169   2.786  10.162  0.3144 -0.1158 -0.3637
   36POPC   H3X 4863  -0.064   2.752  10.151  0.2459  0.1770 -2.0712
   36POPC   H3Y 4864  -0.156   2.896  10.174 -1.9270  0.1812 -0.4140
   36POPC   C34 4865  -0.241   2.733  10.036  0.0442  0.0265  1.0942
   36POPC   H4X 4866  -0.348   2.758  10.020 -0.1038 -0.4541  1.3322
   36POPC   H4Y 4867  -0.237   2.622  10.043  2.9318  0.0199 -0.0118
   36POPC   C35 4868  -0.169   2.775   9.907 -0.0823 -0.1426 -0.1405
   36POPC   H5X 4869  -0.080   2.711   9.888 -1.1078 -1.7908  0.5159
   36POPC   H5Y 4870  -0.127   2.878   9.909 -1.4871  0.5855 -3.7234
   36POPC   C36 4871  -0.247   2.758   9.776  0.3197  0.0221 -0.4639
   36POPC   H6X 4872  -0.340   2.818   9.782 -0.7430 -1.5423 -1.0185
   36POPC   H6Y 4873  -0.263   2.649   9.765  0.3931 -0.0059 -0.2976
   36POPC   C37 4874  -0.170   2.815   9.654  0.5350  0.5361 -0.1399
   36POPC   H7X 4875  -0.069   2.770   9.654  0.3327  0.0730  0.7712
   36POPC   H7Y 4876  -0.146   2.921   9.674  1.9112 -0.0143  1.2147
   36POPC   C38 4877  -0.228   2.791   9.515 -0.5201 -0.8388  0.1912
   36POPC   H8X 4878  -0.289   2.882   9.495 -0.0038 -0.4003  0.5767
   36POPC   H8Y 4879  -0.283   2.695   9.517 -0.4785 -0.8511  0.9838
   36POPC   C39 4880  -0.117   2.785   9.408 -0.0164 -0.6112 -0.1878
   36POPC   H9X 4881  -0.064   2.688   9.416 -1.0595 -1.1769 -0.0165
   36POPC   H9Y 4882  -0.044   2.867   9.428 -0.3174 -0.0835 -1.1668
   36POPC  C310 4883  -0.168   2.803   9.260 -0.6054  0.2649  0.1234
   36POPC  H10X 4884  -0.086   2.817   9.187 -0.0028 -0.1385  0.7173
   36POPC  H10Y 4885  -0.236   2.891   9.250 -2.1962 -0.6531  2.3652
   36POPC  C311 4886  -0.248   2.685   9.209  0.2203 -0.2064 -0.3341
   36POPC  H11X 4887  -0.310   2.655   9.296 -0.0189  0.4017 -0.2921
   36POPC  H11Y 4888  -0.175   2.605   9.182 -0.3792 -0.3422 -1.5929
   36POPC  C312 4889  -0.355   2.703   9.097 -0.4204 -0.0054  0.4693
   36POPC  H12X 4890  -0.431   2.777   9.131  0.8439  0.6995  1.7819
   36POPC  H12Y 4891  -0.409   2.606   9.086 -0.4064  0.2940 -2.7509
   36POPC  C313 4892  -0.284   2.746   8.971  0.0384 -0.7009  0.2901
   36POPC  H13X 4893  -0.231   2.841   8.994 -0.4223 -0.4135  0.1785
   36POPC  H13Y 4894  -0.362   2.776   8.898  0.5175  2.2617  0.9089
   36POPC  C314 4895  -0.173   2.652   8.916 -0.5570 -0.2388  0.4388
   36POPC  H14X 4896  -0.081   2.642   8.977  1.4292  1.7871 -2.1037
   36POPC  H14Y 4897  -0.138   2.695   8.820  0.5718 -0.8029  0.5757
   36POPC  C315 4898  -0.222   2.509   8.898 -0.0525  0.0249 -0.6150
   36POPC  H15X 4899  -0.309   2.505   8.829 -1.3086 -1.4127  1.0133
   36POPC  H15Y 4900  -0.264   2.468   8.992 -0.4854  1.4488 -0.1788
   36POPC  C316 4901  -0.109   2.408   8.852 -0.2735 -0.6617 -0.0157
   36POPC  H16X 4902  -0.091   2.428   8.744  0.9481  0.0925  0.3168
   36POPC  H16Y 4903  -0.143   2.303   8.848  0.7472 -0.9520 -1.5482
   36POPC  H16Z 4904  -0.017   2.403   8.914 -0.0656 -0.5170 -0.3095
   37POPC     N 4905   6.680   4.795   6.575  0.0713 -0.9692 -0.4427
   37POPC   C12 4906   6.666   4.867   6.442  0.2139 -0.4259  0.2331
   37POPC  H12A 4907   6.701   4.816   6.353  0.8533  0.0312  0.2216
   37POPC  H12B 4908   6.739   4.946   6.448 -0.1178 -0.3397  4.3361
   37POPC   C13 4909   6.634   4.883   6.689 -0.5719 -0.6982  0.8727
   37POPC  H13A 4910   6.693   4.974   6.683  0.3273 -1.3170  0.3242
   37POPC  H13B 4911   6.529   4.910   6.682  0.0040  1.2744 -0.6601
   37POPC  H13C 4912   6.656   4.837   6.784 -0.2321 -0.9675  0.6648
   37POPC   C14 4913   6.609   4.665   6.586  0.1318  0.3567 -0.5302
   37POPC  H14A 4914   6.637   4.606   6.673 -0.0606  0.9613 -0.0601
   37POPC  H14B 4915   6.502   4.675   6.592  0.0098 -1.3687  0.4844
   37POPC  H14C 4916   6.630   4.598   6.504  1.9010 -0.1984  0.3397
   37POPC   C15 4917   6.827   4.775   6.597 -0.2719 -0.7382  0.6431
   37POPC  H15A 4918   6.869   4.710   6.521  1.0498  0.0650  0.6780
   37POPC  H15B 4919   6.843   4.737   6.696 -1.3650 -1.3641  0.5949
   37POPC  H15C 4920   6.881   4.868   6.588  1.1608 -1.5559  0.6819
   37POPC   C11 4921   6.529   4.936   6.409  0.2324 -1.0724  0.0097
   37POPC  H11A 4922   6.535   5.009   6.326 -1.2969  0.2408  1.0233
   37POPC  H11B 4923   6.498   4.986   6.503  0.0265 -0.8914 -0.1554
   37POPC     P 4924   6.288   4.822   6.459  0.0516 -0.3092  0.1943
   37POPC   O13 4925   6.253   4.680   6.463  0.1397  0.2027 -0.0553
   37POPC   O14 4926   6.182   4.909   6.397 -0.1661 -0.0473  0.8377
   37POPC   O12 4927   6.430   4.841   6.373 -0.1830 -0.0964 -0.0370
   37POPC   O11 4928   6.320   4.885   6.602 -0.4334  0.7955 -0.6217
   37POPC    C1 4929   6.227   4.993   6.646 -0.3972  0.2521  0.7779
   37POPC    HA 4930   6.123   4.959   6.664 -1.1276  1.3265 -1.1689
   37POPC    HB 4931   6.220   5.073   6.568  0.8500  1.0245  1.4394
   37POPC    C2 4932   6.284   5.070   6.772 -0.0578 -0.7483  0.3684
   37POPC    HS 4933   6.355   5.137   6.720 -1.6350  2.8413  2.6878
   37POPC   O21 4934   6.357   4.982   6.862 -0.2593 -0.1957  0.2746
   37POPC   C21 4935   6.295   4.885   6.925 -0.0287 -0.0755 -0.2533
   37POPC   O22 4936   6.182   4.855   6.903  0.6336  0.3015  0.5491
   37POPC   C22 4937   6.407   4.807   6.979 -0.1264 -0.1972 -0.3545
   37POPC   H2R 4938   6.475   4.788   6.894  1.6445 -2.8008  1.5570
   37POPC   H2S 4939   6.362   4.708   7.001 -0.9862  0.4263  0.7728
   37POPC    C3 4940   6.177   5.144   6.853 -0.3793 -0.6769  0.4064
   37POPC    HX 4941   6.090   5.077   6.870 -0.8766 -1.0865 -3.3882
   37POPC    HY 4942   6.127   5.218   6.788 -1.5779 -0.8318  1.1543
   37POPC   O31 4943   6.230   5.209   6.971  0.1263 -0.0863 -0.3079
   37POPC   C31 4944   6.302   5.315   6.956  0.6712 -0.2628 -0.9104
   37POPC   O32 4945   6.296   5.393   6.865 -0.2599 -0.2218  0.7083
   37POPC   C32 4946   6.359   5.357   7.088 -0.6578  0.1256  0.1141
   37POPC   H2X 4947   6.302   5.444   7.128  0.4641  1.2397 -0.6802
   37POPC   H2Y 4948   6.462   5.398   7.083 -0.3580 -0.5643  0.5241
   37POPC   C23 4949   6.459   4.857   7.110  0.5288  0.3422 -0.0679
   37POPC   H3R 4950   6.380   4.862   7.188  0.9495 -0.5942  0.4289
   37POPC   H3S 4951   6.499   4.960   7.106  3.6161 -0.8178 -0.6985
   37POPC   C24 4952   6.560   4.763   7.173 -0.0963  0.0302 -0.1305
   37POPC   H4R 4953   6.647   4.767   7.104 -1.0192 -0.5290 -1.3364
   37POPC   H4S 4954   6.521   4.659   7.171 -2.3186  0.8545 -2.4820
   37POPC   C25 4955   6.591   4.795   7.317 -0.2538 -0.2235 -0.8911
   37POPC   H5R 4956   6.501   4.787   7.382  0.0621 -0.2817 -0.4586
   37POPC   H5S 4957   6.625   4.900   7.330  0.2314 -0.3894 -0.8191
   37POPC   C26 4958   6.696   4.700   7.375 -0.1644  0.3320  0.2374
   37POPC   H6R 4959   6.794   4.734   7.333  2.2464 -1.7899  3.9245
   37POPC   H6S 4960   6.688   4.595   7.339 -2.4539  0.3637  0.5784
   37POPC   C27 4961   6.712   4.715   7.527 -0.0895  0.3377  0.8197
   37POPC   H7R 4962   6.625   4.662   7.571  1.2128 -1.1714  1.6368
   37POPC   H7S 4963   6.703   4.822   7.555 -0.7851  0.0019  1.9145
   37POPC   C28 4964   6.837   4.643   7.589 -0.8252  0.4831 -0.2473
   37POPC   H8R 4965   6.924   4.706   7.559 -0.4355  0.2590  0.4033
   37POPC   H8S 4966   6.856   4.540   7.552  2.3857  1.2558 -0.8624
   37POPC   C29 4967   6.838   4.633   7.738 -0.3074 -0.7503  0.2823
   37POPC   H91 4968   6.742   4.612   7.786  0.0735 -1.4019  0.7734
   37POPC  C210 4969   6.941   4.662   7.824 -0.2733 -0.2967  1.0992
   37POPC  H101 4970   6.925   4.636   7.930  1.4064 -0.8879  1.2261
   37POPC  C211 4971   7.088   4.696   7.788 -0.0899 -0.4685 -0.0241
   37POPC  H11R 4972   7.114   4.691   7.680  3.7251  3.0381  0.5811
   37POPC  H11S 4973   7.153   4.619   7.834  0.4988  1.6319  2.8191
   37POPC  C212 4974   7.137   4.832   7.857 -0.4286  1.0486  0.6125
   37POPC  H12R 4975   7.094   4.834   7.960  0.0375  0.5923  0.8191
   37POPC  H12S 4976   7.101   4.921   7.802 -1.0407  0.4317 -0.0009
   37POPC  C213 4977   7.290   4.822   7.878  1.0930  0.3531  0.2693
   37POPC  H13R 4978   7.329   4.791   7.779  0.7129 -0.1839  0.2840
   37POPC  H13S 4979   7.308   4.735   7.945  0.4479  1.4966  1.9740
   37POPC  C214 4980   7.356   4.952   7.935 -0.8125  0.2695  0.1297
   37POPC  H14R 4981   7.309   4.965   8.035 -4.0470 -1.3490 -1.0758
   37POPC  H14S 4982   7.323   5.039   7.873 -1.3515  0.0878  0.1573
   37POPC  C215 4983   7.514   4.948   7.942  0.2605 -0.0540  0.4076
   37POPC  H15R 4984   7.541   4.919   7.838 -1.5780  2.6434 -0.8579
   37POPC  H15S 4985   7.542   4.865   8.010 -0.1800 -1.7000 -1.3669
   37POPC  C216 4986   7.602   5.072   7.978  0.4634  0.2179  0.0632
   37POPC  H16R 4987   7.566   5.155   7.914 -0.2520  0.2781  0.5434
   37POPC  H16S 4988   7.704   5.039   7.950  0.3730 -0.4374  0.5124
   37POPC  C217 4989   7.619   5.097   8.124 -0.9434  0.1950 -0.3113
   37POPC  H17R 4990   7.651   5.004   8.178 -5.1006 -2.5903 -2.3643
   37POPC  H17S 4991   7.528   5.131   8.178  0.9828 -0.4630  3.5678
   37POPC  C218 4992   7.722   5.204   8.154 -0.9067 -0.3916 -0.2891
   37POPC  H18R 4993   7.725   5.215   8.264  1.6290 -0.0739 -0.3461
   37POPC  H18S 4994   7.702   5.301   8.103 -3.1061  0.2554  1.6987
   37POPC  H18T 4995   7.823   5.168   8.127 -1.6651 -1.3442 -1.9242
   37POPC   C33 4996   6.362   5.242   7.189 -0.5603 -0.3470 -0.1754
   37POPC   H3X 4997   6.433   5.170   7.143 -0.5464 -0.1139 -0.5222
   37POPC   H3Y 4998   6.262   5.194   7.194 -0.6047 -0.3147 -0.6583
   37POPC   C34 4999   6.417   5.285   7.324 -0.3852 -0.4853  0.2716
   37POPC   H4X 5000   6.334   5.334   7.378  2.3375  3.6776  0.8526
   37POPC   H4Y 5001   6.498   5.359   7.306 -0.2741 -0.9081 -1.0344
   37POPC   C35 5002   6.477   5.164   7.396  0.6909 -0.3140  0.0722
   37POPC   H5X 5003   6.571   5.142   7.341  0.7415 -0.0541  0.0558
   37POPC   H5Y 5004   6.408   5.079   7.379  0.8625 -0.8424  1.8439
   37POPC   C36 5005   6.509   5.185   7.545 -0.0537 -0.4776  0.3479
   37POPC   H6X 5006   6.422   5.211   7.609 -0.3241  1.3001 -0.7119
   37POPC   H6Y 5007   6.567   5.280   7.548  1.0277 -1.1641  1.5959
   37POPC   C37 5008   6.585   5.075   7.615 -0.4693  0.0706  0.0435
   37POPC   H7X 5009   6.672   5.050   7.551  1.4444  0.7169  2.3302
   37POPC   H7Y 5010   6.516   4.988   7.621 -2.4446  1.5885  0.0717
   37POPC   C38 5011   6.616   5.116   7.761 -0.2228  0.0326  0.1951
   37POPC   H8X 5012   6.521   5.123   7.819 -0.4797 -0.6932 -0.1317
   37POPC   H8Y 5013   6.663   5.215   7.778 -1.1130  0.0113  3.1309
   37POPC   C39 5014   6.695   5.001   7.825  0.3932 -0.0559 -0.2846
   37POPC   H9X 5015   6.789   4.987   7.768 -0.2871 -0.7165 -1.2584
   37POPC   H9Y 5016   6.647   4.903   7.807 -0.7206  0.5419 -0.6387
   37POPC  C310 5017   6.717   5.032   7.970  0.1635  0.2197 -0.2453
   37POPC  H10X 5018   6.742   4.937   8.022  1.1893 -0.4972 -2.0004
   37POPC  H10Y 5019   6.617   5.068   8.001 -0.1502 -2.2785  1.9081
   37POPC  C311 5020   6.815   5.145   7.994 -0.1884 -0.1016 -0.3124
   37POPC  H11X 5021   6.783   5.240   7.945 -0.5989  0.2709  0.6545
   37POPC  H11Y 5022   6.911   5.111   7.951  0.9863 -0.0876  2.2299
   37POPC  C312 5023   6.849   5.192   8.139 -0.7785 -0.8040 -0.2559
   37POPC  H12X 5024   6.767   5.238   8.199  0.9638 -0.1865  1.6948
   37POPC  H12Y 5025   6.937   5.260   8.139 -2.5791  1.6076 -0.2128
   37POPC  C313 5026   6.908   5.072   8.215 -0.0372  1.0590 -0.2376
   37POPC  H13X 5027   6.991   5.041   8.149  0.2567  2.3737 -0.4830
   37POPC  H13Y 5028   6.823   5.000   8.218  0.6276  0.2862  0.1144
   37POPC  C314 5029   6.976   5.100   8.354 -0.1900  0.4035  0.8053
   37POPC  H14X 5030   7.060   5.171   8.345  1.5811 -1.5873  1.3261
   37POPC  H14Y 5031   7.018   5.009   8.401 -1.0627 -0.5822 -0.3223
   37POPC  C315 5032   6.877   5.166   8.459  0.1970  0.5205 -0.5452
   37POPC  H15X 5033   6.834   5.262   8.421 -0.3641  0.8964  1.0054
   37POPC  H15Y 5034   6.944   5.199   8.541  0.9732  0.0437 -0.9760
   37POPC  C316 5035   6.759   5.078   8.495 -1.0145  0.5464 -0.7182
   37POPC  H16X 5036   6.690   5.050   8.414 -2.3964  2.0077 -0.0716
   37POPC  H16Y 5037   6.684   5.126   8.561 -0.0633  1.4509 -0.2825
   37POPC  H16Z 5038   6.801   4.986   8.543  0.5505  1.7372  0.2526
   38POPC     N 5039   1.599   1.359   6.268  0.6706  0.2048  0.7845
   38POPC   C12 5040   1.578   1.234   6.356  0.2031  0.3378 -0.1026
   38POPC  H12A 5041   1.669   1.216   6.412  0.9159 -2.3466 -2.0293
   38POPC  H12B 5042   1.565   1.151   6.288 -0.2429  1.8100 -1.8580
   38POPC   C13 5043   1.728   1.340   6.193  0.0087 -0.6316  0.0900
   38POPC  H13A 5044   1.719   1.419   6.121 -0.9826 -0.5520  0.2958
   38POPC  H13B 5045   1.818   1.342   6.254 -0.0248  0.7750  0.1112
   38POPC  H13C 5046   1.725   1.244   6.145  0.1312 -0.7324  0.2816
   38POPC   C14 5047   1.492   1.381   6.170  0.1053  0.3030  0.5415
   38POPC  H14A 5048   1.476   1.307   6.093  1.3299 -0.7186  1.2395
   38POPC  H14B 5049   1.401   1.387   6.226  0.6099  0.2075  1.3829
   38POPC  H14C 5050   1.518   1.470   6.115 -0.8829 -0.2657 -0.8887
   38POPC   C15 5051   1.605   1.485   6.346  0.7060  0.1048 -0.9094
   38POPC  H15A 5052   1.680   1.480   6.423  1.1388  1.3122 -1.2557
   38POPC  H15B 5053   1.510   1.520   6.385 -0.3317 -1.7531 -1.6884
   38POPC  H15C 5054   1.642   1.560   6.278  2.9784  0.1010  0.2807
   38POPC   C11 5055   1.457   1.237   6.449 -0.5264  0.6631 -0.4680
   38POPC  H11A 5056   1.474   1.313   6.529 -2.6121  0.4001  0.2560
   38POPC  H11B 5057   1.457   1.137   6.497 -0.0313 -0.6593 -3.1043
   38POPC     P 5058   1.239   1.376   6.426 -0.0612  0.3757  0.0153
   38POPC   O13 5059   1.109   1.360   6.347 -0.2801  0.4315  0.5388
   38POPC   O14 5060   1.311   1.507   6.408  0.8318 -0.2688  0.2879
   38POPC   O12 5061   1.332   1.254   6.379  0.9296 -0.2088 -0.3456
   38POPC   O11 5062   1.210   1.361   6.583 -0.8507  0.1861  0.1631
   38POPC    C1 5063   1.170   1.234   6.634 -0.0637 -0.1130  0.1061
   38POPC    HA 5064   1.206   1.223   6.738  1.2848 -2.1484 -0.5391
   38POPC    HB 5065   1.205   1.147   6.573  0.3419  0.3087 -0.2629
   38POPC    C2 5066   1.012   1.230   6.636  0.6219 -0.0058 -0.0790
   38POPC    HS 5067   0.969   1.289   6.552 -2.5134 -1.3697  0.4741
   38POPC   O21 5068   0.970   1.288   6.762 -0.1302  0.2569 -0.2559
   38POPC   C21 5069   0.845   1.329   6.771 -0.4032  0.1879 -0.7727
   38POPC   O22 5070   0.771   1.351   6.677 -0.1737 -0.0770 -0.5531
   38POPC   C22 5071   0.797   1.337   6.924 -1.0207  0.7899  0.1147
   38POPC   H2R 5072   0.887   1.307   6.984  1.1644  1.5319 -2.6910
   38POPC   H2S 5073   0.729   1.250   6.936 -1.8372  1.1517 -1.8674
   38POPC    C3 5074   0.959   1.090   6.634  0.1715 -0.1424  0.5985
   38POPC    HX 5075   0.971   1.049   6.532 -0.7936  0.7680  0.1086
   38POPC    HY 5076   0.849   1.076   6.644  0.1863 -0.3787  0.4398
   38POPC   O31 5077   1.033   1.004   6.721 -0.0867  0.1393 -0.2234
   38POPC   C31 5078   0.982   0.983   6.838 -0.1221  0.4558  0.0613
   38POPC   O32 5079   0.882   1.038   6.882  0.8754 -0.3538 -1.0776
   38POPC   C32 5080   1.063   0.873   6.903  0.0144 -0.0731 -0.5914
   38POPC   H2X 5081   1.168   0.872   6.865  0.8028  0.3647  1.5263
   38POPC   H2Y 5082   1.024   0.774   6.870 -1.4207  0.8932 -1.8878
   38POPC   C23 5083   0.738   1.475   6.964  0.1934 -0.4927 -0.1947
   38POPC   H3R 5084   0.649   1.504   6.905  0.5913 -1.6980 -1.4392
   38POPC   H3S 5085   0.816   1.550   6.938  0.2607 -0.9117 -1.2260
   38POPC   C24 5086   0.680   1.468   7.106  0.0401 -0.4483  0.0901
   38POPC   H4R 5087   0.586   1.408   7.108 -1.1068  1.3515  2.3192
   38POPC   H4S 5088   0.655   1.573   7.131 -0.5468 -0.9825  1.7660
   38POPC   C25 5089   0.776   1.407   7.220 -1.0594 -0.2506  0.3197
   38POPC   H5R 5090   0.878   1.434   7.188 -1.3469  0.1875 -0.2425
   38POPC   H5S 5091   0.762   1.297   7.213 -1.9163 -0.0002 -2.5849
   38POPC   C26 5092   0.749   1.457   7.359  0.0599  0.5760 -0.3920
   38POPC   H6R 5093   0.643   1.441   7.390  0.4959  3.1644  2.7518
   38POPC   H6S 5094   0.768   1.567   7.358  1.5629  0.3288 -0.1831
   38POPC   C27 5095   0.847   1.384   7.455 -0.3558 -0.2296 -0.3341
   38POPC   H7R 5096   0.946   1.378   7.404 -0.1050 -0.8136  0.2194
   38POPC   H7S 5097   0.812   1.279   7.458 -0.5488 -0.1969 -1.2323
   38POPC   C28 5098   0.871   1.456   7.591  0.0470  0.0640  0.5714
   38POPC   H8R 5099   0.877   1.567   7.593 -0.1648  0.0624  3.2499
   38POPC   H8S 5100   0.973   1.427   7.624  1.7043  2.4036 -2.2803
   38POPC   C29 5101   0.760   1.406   7.686  0.2808 -0.0165  0.5823
   38POPC   H91 5102   0.663   1.407   7.633 -0.3560 -1.6683  1.6850
   38POPC  C210 5103   0.772   1.374   7.815  0.3555  0.1141  0.1150
   38POPC  H101 5104   0.686   1.331   7.869  0.0582 -0.4618 -0.8088
   38POPC  C211 5105   0.897   1.394   7.893  0.3709  0.3493  0.3025
   38POPC  H11R 5106   0.860   1.457   7.976 -1.5626  0.3379 -0.5324
   38POPC  H11S 5107   0.978   1.452   7.843 -0.4243  1.8492  0.7187
   38POPC  C212 5108   0.949   1.263   7.951 -0.3820  0.0225 -0.0305
   38POPC  H12R 5109   0.999   1.200   7.874  1.5514 -0.8741  1.8994
   38POPC  H12S 5110   0.861   1.209   7.991 -0.9673  0.3364 -0.8848
   38POPC  C213 5111   1.054   1.285   8.063 -0.5299 -0.5939 -0.1893
   38POPC  H13R 5112   1.114   1.373   8.032 -0.0158 -0.5016  1.0256
   38POPC  H13S 5113   1.115   1.195   8.084  1.4761  0.8172  0.1950
   38POPC  C214 5114   0.986   1.313   8.198  0.3677  0.1352 -0.0583
   38POPC  H14R 5115   0.913   1.230   8.213 -0.2849  0.9101  1.0885
   38POPC  H14S 5116   0.933   1.410   8.193 -2.4962 -1.3712 -0.3545
   38POPC  C215 5117   1.074   1.304   8.320  0.2288 -0.6665  0.1098
   38POPC  H15R 5118   1.031   1.363   8.403 -0.2976 -0.9973  0.0725
   38POPC  H15S 5119   1.167   1.350   8.280  0.4861 -1.2297  0.0650
   38POPC  C216 5120   1.099   1.161   8.373 -0.2761  0.4151  0.4558
   38POPC  H16R 5121   1.148   1.091   8.301 -0.8299 -0.7107  1.1570
   38POPC  H16S 5122   1.005   1.114   8.409 -0.2586  0.0050 -0.0222
   38POPC  C217 5123   1.194   1.161   8.492  0.8594  0.1782  0.4400
   38POPC  H17R 5124   1.143   1.235   8.558  0.7536  0.9458 -0.4967
   38POPC  H17S 5125   1.287   1.216   8.465  0.7271  0.5139  0.6559
   38POPC  C218 5126   1.225   1.029   8.556  0.3890 -1.0395  0.2335
   38POPC  H18R 5127   1.300   0.973   8.496  1.1491  0.3865 -0.1810
   38POPC  H18S 5128   1.130   0.975   8.577 -0.4414  0.3258  0.0798
   38POPC  H18T 5129   1.279   1.054   8.650  2.8862  1.7026 -1.8252
   38POPC   C33 5130   1.064   0.884   7.055 -0.5501  0.4401 -0.1304
   38POPC   H3X 5131   0.960   0.886   7.094 -0.4092 -0.7335  0.3085
   38POPC   H3Y 5132   1.125   0.973   7.083  1.9535 -0.6029 -2.0537
   38POPC   C34 5133   1.136   0.762   7.112 -0.1369  0.0498 -0.6743
   38POPC   H4X 5134   1.239   0.754   7.072 -0.1357 -1.1844 -0.4608
   38POPC   H4Y 5135   1.081   0.670   7.083  0.5393 -0.6267  0.1702
   38POPC   C35 5136   1.164   0.772   7.266 -0.4322  0.3195 -0.1507
   38POPC   H5X 5137   1.237   0.853   7.286 -2.3674  1.9617  0.4442
   38POPC   H5Y 5138   1.212   0.681   7.308  0.9976  1.9565  1.8950
   38POPC   C36 5139   1.041   0.810   7.345  0.2853  0.4382  0.3087
   38POPC   H6X 5140   0.974   0.722   7.335  0.4067  0.1817  1.6146
   38POPC   H6Y 5141   1.004   0.911   7.318  1.6761  0.5527 -1.2256
   38POPC   C37 5142   1.072   0.797   7.500 -0.3305  0.1642  0.4550
   38POPC   H7X 5143   1.121   0.699   7.518 -1.1041  0.0960  2.3400
   38POPC   H7Y 5144   0.975   0.809   7.555 -0.1898  1.1150  0.4985
   38POPC   C38 5145   1.165   0.906   7.559  0.0586 -0.5882  0.1554
   38POPC   H8X 5146   1.124   1.007   7.540 -2.1493 -1.5311 -0.1913
   38POPC   H8Y 5147   1.268   0.901   7.516 -0.9547  2.3295 -2.8128
   38POPC   C39 5148   1.176   0.882   7.714 -0.1565 -0.5957 -0.3562
   38POPC   H9X 5149   1.229   0.784   7.724 -2.3981 -1.9042 -1.0788
   38POPC   H9Y 5150   1.074   0.878   7.756  0.2338 -0.8562  0.5955
   38POPC  C310 5151   1.267   0.990   7.774  0.3649 -0.0364 -0.2628
   38POPC  H10X 5152   1.201   1.079   7.765  0.5305  0.2970  1.6489
   38POPC  H10Y 5153   1.354   0.996   7.705  1.4292 -0.1271  1.0565
   38POPC  C311 5154   1.317   0.967   7.912 -0.3750  0.4786 -0.0266
   38POPC  H11X 5155   1.390   0.883   7.917 -0.6566  0.0554 -2.5739
   38POPC  H11Y 5156   1.230   0.943   7.976  0.3338  0.3252  0.8982
   38POPC  C312 5157   1.385   1.090   7.965 -0.2416  0.0561  0.6159
   38POPC  H12X 5158   1.299   1.146   8.009 -0.0103 -0.4052  1.6540
   38POPC  H12Y 5159   1.455   1.144   7.897 -1.1307  1.4102  0.7499
   38POPC  C313 5160   1.464   1.061   8.100  0.0018 -0.1557 -0.0871
   38POPC  H13X 5161   1.550   0.994   8.081 -0.1728 -0.4127  0.0346
   38POPC  H13Y 5162   1.392   1.010   8.167  0.1313  0.3322  0.4195
   38POPC  C314 5163   1.512   1.198   8.150 -0.7650 -0.5383  0.2235
   38POPC  H14X 5164   1.429   1.271   8.163  0.8082  0.7420  3.8810
   38POPC  H14Y 5165   1.582   1.227   8.069 -0.3109  0.0038  0.8017
   38POPC  C315 5166   1.578   1.186   8.289  1.0674 -0.4604 -0.5910
   38POPC  H15X 5167   1.515   1.124   8.356  1.2848  0.3711  0.4020
   38POPC  H15Y 5168   1.586   1.289   8.332 -1.8935 -1.0419  1.4839
   38POPC  C316 5169   1.714   1.125   8.282 -0.4167 -0.4018 -0.0175
   38POPC  H16X 5170   1.772   1.157   8.192 -2.2283 -0.4414 -1.2190
   38POPC  H16Y 5171   1.714   1.014   8.296 -2.1388 -0.0883  2.9466
   38POPC  H16Z 5172   1.774   1.152   8.371 -0.7197  0.9836 -0.2300
   39POPC     N 5173   3.569   4.739   6.417 -0.3352  0.1972  0.3720
   39POPC   C12 5174   3.597   4.760   6.275 -0.0320  0.4882  0.5378
   39POPC  H12A 5175   3.520   4.706   6.222  0.1246 -0.9915  1.7487
   39POPC  H12B 5176   3.684   4.703   6.245 -0.5103 -0.8083  1.5740
   39POPC   C13 5177   3.547   4.594   6.440  0.0911 -0.5789  0.1306
   39POPC  H13A 5178   3.635   4.533   6.425  0.5492 -0.1829  1.1952
   39POPC  H13B 5179   3.527   4.574   6.544 -0.0241 -0.0708  0.2049
   39POPC  H13C 5180   3.461   4.556   6.386 -0.4913 -1.8859  1.9318
   39POPC   C14 5181   3.693   4.774   6.499  0.1565 -0.2885 -0.4968
   39POPC  H14A 5182   3.679   4.738   6.600  1.2588  1.8917  0.4585
   39POPC  H14B 5183   3.776   4.719   6.456  0.4164  0.8798 -1.4978
   39POPC  H14C 5184   3.712   4.880   6.494 -1.1284 -0.0336 -0.1446
   39POPC   C15 5185   3.444   4.803   6.464 -0.2846 -0.7543 -0.2340
   39POPC  H15A 5186   3.435   4.791   6.571 -1.3210  2.2155  0.0524
   39POPC  H15B 5187   3.362   4.754   6.413 -0.3861 -0.9640  0.1318
   39POPC  H15C 5188   3.431   4.902   6.424 -0.3878 -0.9377 -0.6589
   39POPC   C11 5189   3.610   4.907   6.224  0.3769 -0.6299 -0.0979
   39POPC  H11A 5190   3.613   4.895   6.113 -0.6289  1.8312 -0.4224
   39POPC  H11B 5191   3.711   4.950   6.243  0.0890  1.2063 -2.4941
   39POPC     P 5192   3.520   5.153   6.274  0.2930 -0.0891 -0.1708
   39POPC   O13 5193   3.391   5.226   6.282 -0.1389  0.3208  0.0265
   39POPC   O14 5194   3.613   5.206   6.171 -0.5859 -0.0676 -0.9236
   39POPC   O12 5195   3.502   4.998   6.259 -0.6340 -0.2980 -0.9234
   39POPC   O11 5196   3.594   5.165   6.412  0.3602  0.6118  0.3744
   39POPC    C1 5197   3.530   5.210   6.537 -0.1709  0.3363  0.2767
   39POPC    HA 5198   3.493   5.122   6.595 -3.4807  0.3158 -1.7547
   39POPC    HB 5199   3.436   5.263   6.514 -0.0604  2.0170  3.3784
   39POPC    C2 5200   3.638   5.309   6.607  0.1996  0.4708 -0.1963
   39POPC    HS 5201   3.728   5.251   6.636  1.5793  0.9524 -3.2587
   39POPC   O21 5202   3.566   5.363   6.715  0.2649 -0.1280 -0.4096
   39POPC   C21 5203   3.572   5.314   6.836  0.3438  0.3026 -0.3206
   39POPC   O22 5204   3.631   5.211   6.869 -0.2411  0.3247  0.1255
   39POPC   C22 5205   3.506   5.411   6.929  0.6408 -0.0812  0.7463
   39POPC   H2R 5206   3.400   5.417   6.897  0.5659 -0.3278  0.9512
   39POPC   H2S 5207   3.547   5.513   6.911 -1.2597  0.9711  2.2830
   39POPC    C3 5208   3.694   5.419   6.509 -0.4475  0.7716  0.8459
   39POPC    HX 5209   3.612   5.484   6.469 -1.2678 -0.8531 -0.1587
   39POPC    HY 5210   3.746   5.379   6.420  2.1615  0.8419  2.2983
   39POPC   O31 5211   3.776   5.501   6.587  0.0178 -0.0299 -0.1483
   39POPC   C31 5212   3.896   5.456   6.614 -0.1643  0.4472 -0.1588
   39POPC   O32 5213   3.944   5.352   6.570 -0.5739  0.7208 -0.0619
   39POPC   C32 5214   3.970   5.551   6.706 -0.4760 -0.4764  0.4347
   39POPC   H2X 5215   4.035   5.611   6.639 -0.1746 -0.9413  0.3135
   39POPC   H2Y 5216   3.898   5.618   6.758 -1.2670 -1.7331  0.9761
   39POPC   C23 5217   3.518   5.374   7.076  0.5856 -1.0960 -0.0055
   39POPC   H3R 5218   3.464   5.277   7.081 -1.5103  0.0776  0.7162
   39POPC   H3S 5219   3.441   5.436   7.126  0.8967  1.6469 -2.7590
   39POPC   C24 5220   3.656   5.367   7.133  0.4843  0.7461 -0.1322
   39POPC   H4R 5221   3.724   5.452   7.117  0.8877  0.5554  0.5613
   39POPC   H4S 5222   3.707   5.283   7.081  1.2156  0.6243  0.7751
   39POPC   C25 5223   3.651   5.340   7.290  0.0294 -0.4428 -0.1177
   39POPC   H5R 5224   3.551   5.311   7.329 -0.1500 -0.3483 -0.5030
   39POPC   H5S 5225   3.657   5.442   7.333 -0.7713 -0.4255 -0.0225
   39POPC   C26 5226   3.763   5.267   7.348  0.6998 -0.3756 -0.1542
   39POPC   H6R 5227   3.788   5.180   7.284 -1.3331 -0.2970 -1.0734
   39POPC   H6S 5228   3.753   5.231   7.452  2.1852 -0.1596  0.0753
   39POPC   C27 5229   3.892   5.354   7.354 -0.0007  0.3059  0.0162
   39POPC   H7R 5230   3.878   5.429   7.435  0.2898  0.4340 -0.0528
   39POPC   H7S 5231   3.908   5.424   7.269 -1.4094 -1.1826 -1.5106
   39POPC   C28 5232   4.022   5.279   7.402 -0.8717 -0.1955 -0.6416
   39POPC   H8R 5233   4.044   5.197   7.331 -1.9666 -0.0586 -1.1580
   39POPC   H8S 5234   4.005   5.235   7.503  0.6296  1.6570  0.4594
   39POPC   C29 5235   4.150   5.362   7.403  0.2522  0.2070  0.1628
   39POPC   H91 5236   4.194   5.388   7.305  1.5356  1.0078  0.9464
   39POPC  C210 5237   4.223   5.399   7.509 -0.1812  1.0159 -0.1977
   39POPC  H101 5238   4.306   5.470   7.501 -0.2528  1.1890  0.5163
   39POPC  C211 5239   4.195   5.357   7.654 -0.2438 -0.9687 -0.5116
   39POPC  H11R 5240   4.244   5.261   7.678 -0.4213 -0.8031  0.5217
   39POPC  H11S 5241   4.085   5.339   7.660 -0.7608  1.1726 -2.6759
   39POPC  C212 5242   4.229   5.470   7.756 -0.6537  0.1781  1.1853
   39POPC  H12R 5243   4.183   5.569   7.735  0.0314  0.5252  1.3155
   39POPC  H12S 5244   4.337   5.493   7.752 -0.8561  0.6957 -2.3766
   39POPC  C213 5245   4.197   5.443   7.901  0.2286  0.4671  0.5153
   39POPC  H13R 5246   4.284   5.396   7.953 -1.8947 -1.0843  2.7918
   39POPC  H13S 5247   4.122   5.362   7.909  0.3606  0.2721 -0.1539
   39POPC  C214 5248   4.146   5.561   7.980 -0.0343  0.8098  0.0007
   39POPC  H14R 5249   4.067   5.612   7.920  1.2922  1.6605 -1.0450
   39POPC  H14S 5250   4.221   5.639   8.008  0.7652 -0.7996  2.4627
   39POPC  C215 5251   4.084   5.508   8.111  0.0499  0.0022 -0.0546
   39POPC  H15R 5252   4.011   5.427   8.090  0.6499 -0.5866  0.1293
   39POPC  H15S 5253   4.035   5.596   8.159  2.2742  0.8488  0.6950
   39POPC  C216 5254   4.194   5.453   8.206  0.5933 -0.6272  0.9041
   39POPC  H16R 5255   4.284   5.514   8.185 -1.6755  2.4640 -0.3013
   39POPC  H16S 5256   4.221   5.354   8.163 -0.2858 -1.1759  1.5912
   39POPC  C217 5257   4.153   5.426   8.350  1.0010 -0.1465 -0.2009
   39POPC  H17R 5258   4.147   5.524   8.402  1.1404 -0.3105  0.1252
   39POPC  H17S 5259   4.225   5.355   8.396  3.4514  1.9059 -0.7922
   39POPC  C218 5260   4.009   5.372   8.369  0.7690 -0.2761  0.0113
   39POPC  H18R 5261   3.928   5.442   8.339  0.8352 -0.4477 -0.5759
   39POPC  H18S 5262   3.996   5.344   8.476  0.1615  1.4697  0.4006
   39POPC  H18T 5263   3.996   5.287   8.298 -1.3059  1.0357 -1.2132
   39POPC   C33 5264   4.042   5.473   6.825 -0.0800 -0.0743  0.1537
   39POPC   H3X 5265   4.084   5.542   6.901  1.5957 -1.2144  0.2835
   39POPC   H3Y 5266   4.123   5.420   6.770  0.3058  0.0951  0.5512
   39POPC   C34 5267   3.951   5.377   6.900 -0.4613  1.1017 -0.7127
   39POPC   H4X 5268   3.913   5.287   6.848 -0.5808  1.1260 -0.6672
   39POPC   H4Y 5269   3.867   5.445   6.927 -1.4090  0.3430 -1.7205
   39POPC   C35 5270   4.020   5.323   7.027 -0.2275 -0.4818  0.7412
   39POPC   H5X 5271   3.933   5.275   7.077 -1.6241  0.2317 -0.9651
   39POPC   H5Y 5272   4.060   5.398   7.099 -0.4373  2.7162 -2.3159
   39POPC   C36 5273   4.121   5.211   6.987  1.2176  0.4063 -0.3374
   39POPC   H6X 5274   4.193   5.256   6.915 -0.7866 -0.8190 -3.1966
   39POPC   H6Y 5275   4.064   5.135   6.929  0.9780 -1.4924  2.2750
   39POPC   C37 5276   4.186   5.149   7.104 -0.2088  0.4099  0.4052
   39POPC   H7X 5277   4.107   5.101   7.166 -2.1308  0.5389 -1.8280
   39POPC   H7Y 5278   4.233   5.237   7.153  3.8951 -1.4304 -0.0484
   39POPC   C38 5279   4.285   5.043   7.064 -0.1222 -0.3638 -0.1731
   39POPC   H8X 5280   4.366   5.089   7.003 -1.2087  2.1915  0.2320
   39POPC   H8Y 5281   4.244   4.960   7.003  0.8838 -1.6454  0.8811
   39POPC   C39 5282   4.344   4.981   7.187 -0.0385  0.7391 -0.4645
   39POPC   H9X 5283   4.396   4.885   7.167 -0.2694  0.0235  2.0904
   39POPC   H9Y 5284   4.272   4.958   7.269  1.3365  2.3771  1.2821
   39POPC  C310 5285   4.461   5.072   7.248 -0.2068 -0.3493  0.2274
   39POPC  H10X 5286   4.424   5.174   7.272 -2.4629 -0.6156 -1.8923
   39POPC  H10Y 5287   4.527   5.082   7.159 -1.1934 -2.0551 -0.7261
   39POPC  C311 5288   4.540   5.011   7.363  0.3914  0.1235 -0.0030
   39POPC  H11X 5289   4.618   5.087   7.387 -1.7553  2.3091  0.2737
   39POPC  H11Y 5290   4.605   4.928   7.329  0.4576 -0.2120  0.9310
   39POPC  C312 5291   4.457   4.990   7.488 -0.1334  0.0300  0.0410
   39POPC  H12X 5292   4.385   4.906   7.489  0.8129 -0.7991  1.7512
   39POPC  H12Y 5293   4.413   5.082   7.532  0.1285 -0.4539  1.3558
   39POPC  C313 5294   4.544   4.958   7.617 -0.3590 -0.2269  0.5499
   39POPC  H13X 5295   4.635   5.022   7.616 -0.1432 -0.5366 -1.1997
   39POPC  H13Y 5296   4.589   4.857   7.603 -1.4042 -0.4603 -1.3127
   39POPC  C314 5297   4.466   4.962   7.748  0.1520 -0.3106  0.2250
   39POPC  H14X 5298   4.369   4.911   7.728 -0.9873  0.7296  2.9484
   39POPC  H14Y 5299   4.434   5.063   7.779  1.6326  0.1830  0.1749
   39POPC  C315 5300   4.529   4.889   7.862  0.4872  0.3192 -0.2405
   39POPC  H15X 5301   4.482   4.923   7.957 -1.2725 -1.3407 -0.4676
   39POPC  H15Y 5302   4.637   4.911   7.869  0.9005 -1.3159 -1.2388
   39POPC  C316 5303   4.507   4.736   7.851  0.7320  0.2380  0.5697
   39POPC  H16X 5304   4.564   4.679   7.927  1.5256  0.0864 -0.1346
   39POPC  H16Y 5305   4.552   4.719   7.751  0.3253  0.9001  0.2678
   39POPC  H16Z 5306   4.401   4.702   7.851  0.3537  1.3771  0.0393
   40POPC     N 5307   3.575   2.492   6.350 -0.1425 -0.3985 -0.1340
   40POPC   C12 5308   3.598   2.428   6.488  0.3121 -0.6189 -0.3894
   40POPC  H12A 5309   3.518   2.467   6.549 -0.2632 -2.0711 -0.1901
   40POPC  H12B 5310   3.692   2.467   6.523 -0.9183  0.2655  2.0353
   40POPC   C13 5311   3.579   2.639   6.365  0.0164 -0.5943 -0.0208
   40POPC  H13A 5312   3.486   2.669   6.411 -0.2586 -1.8771  0.2648
   40POPC  H13B 5313   3.659   2.675   6.428  1.2991  0.6159 -2.2354
   40POPC  H13C 5314   3.590   2.689   6.270 -0.1019  1.0943  0.8384
   40POPC   C14 5315   3.678   2.439   6.251  0.4368  0.1887  0.2590
   40POPC  H14A 5316   3.661   2.334   6.233 -1.1851  0.6198 -0.9014
   40POPC  H14B 5317   3.676   2.494   6.158 -1.2621  0.2380  0.3114
   40POPC  H14C 5318   3.773   2.456   6.298  1.1378  1.1923 -1.4856
   40POPC   C15 5319   3.445   2.454   6.286  0.4127 -0.4023  0.2594
   40POPC  H15A 5320   3.434   2.485   6.184  0.8484  0.0428  0.3458
   40POPC  H15B 5321   3.357   2.484   6.340 -0.1476 -0.8871 -0.3864
   40POPC  H15C 5322   3.434   2.346   6.287 -1.2336 -0.2350  0.2942
   40POPC   C11 5323   3.590   2.273   6.502 -0.5495  0.6599 -0.0176
   40POPC  H11A 5324   3.486   2.243   6.477 -0.3075 -0.2848  0.0877
   40POPC  H11B 5325   3.604   2.251   6.610 -2.1640 -0.6252 -0.0361
   40POPC     P 5326   3.840   2.205   6.486 -0.0735 -0.4074 -0.0173
   40POPC   O13 5327   3.945   2.209   6.376  0.1864  0.2058  0.2639
   40POPC   O14 5328   3.848   2.080   6.563  0.4893 -0.4587 -0.2189
   40POPC   O12 5329   3.697   2.214   6.425 -0.5170  0.1387  0.8085
   40POPC   O11 5330   3.852   2.335   6.583 -0.8748 -0.7766 -0.3066
   40POPC    C1 5331   3.847   2.338   6.721 -0.5100  0.5290  0.7540
   40POPC    HA 5332   3.771   2.265   6.754  0.4088  0.5660  3.0125
   40POPC    HB 5333   3.826   2.441   6.756  0.0808  0.9648 -0.1441
   40POPC    C2 5334   3.985   2.283   6.772  0.5791  0.0169 -0.5483
   40POPC    HS 5335   4.002   2.176   6.747 -0.4633 -0.2820 -0.0120
   40POPC   O21 5336   4.004   2.311   6.914 -0.5970 -0.5036  0.1615
   40POPC   C21 5337   3.968   2.219   6.997 -0.5987 -0.1741 -0.3586
   40POPC   O22 5338   3.923   2.106   6.965  0.0735 -0.5840 -0.0368
   40POPC   C22 5339   3.975   2.275   7.133 -0.8630 -0.8060 -0.0072
   40POPC   H2R 5340   3.949   2.383   7.125  1.7072 -0.0896  0.8425
   40POPC   H2S 5341   4.084   2.289   7.150 -0.8721  1.2908 -1.4404
   40POPC    C3 5342   4.093   2.369   6.715  0.2849 -0.1820  0.0604
   40POPC    HX 5343   4.065   2.472   6.745 -0.9105 -0.4172 -0.2390
   40POPC    HY 5344   4.095   2.376   6.605 -1.0534  0.6029  0.0760
   40POPC   O31 5345   4.229   2.345   6.773  0.4545  0.4895 -0.1359
   40POPC   C31 5346   4.283   2.231   6.739  0.4452 -0.4936  1.0402
   40POPC   O32 5347   4.231   2.145   6.663 -0.7213  0.0095  1.3187
   40POPC   C32 5348   4.416   2.214   6.811 -0.1039 -0.1762 -0.4451
   40POPC   H2X 5349   4.478   2.305   6.799 -2.1816  1.1281 -1.4595
   40POPC   H2Y 5350   4.458   2.122   6.763 -0.8495 -0.3152 -0.8473
   40POPC   C23 5351   3.916   2.189   7.239  0.2032  0.1212 -0.2040
   40POPC   H3R 5352   3.924   2.081   7.215 -0.8191 -0.4845  2.0207
   40POPC   H3S 5353   3.807   2.210   7.242  0.7745  3.1513  0.7482
   40POPC   C24 5354   3.980   2.211   7.376  0.0506 -0.2488 -0.5509
   40POPC   H4R 5355   3.940   2.302   7.426 -2.5219  0.8276 -4.3911
   40POPC   H4S 5356   4.087   2.215   7.346  0.5316 -0.6229  1.0556
   40POPC   C25 5357   3.948   2.090   7.460  0.0201 -0.4914  0.1690
   40POPC   H5R 5358   3.979   1.996   7.410  0.2767 -0.2858 -0.0556
   40POPC   H5S 5359   3.838   2.078   7.471  0.1029 -1.3443  0.0776
   40POPC   C26 5360   4.023   2.078   7.597 -0.2005 -0.5345 -0.5194
   40POPC   H6R 5361   3.990   2.167   7.654 -0.5961  0.7269 -2.6298
   40POPC   H6S 5362   4.133   2.096   7.591 -0.0320 -0.9118  1.2823
   40POPC   C27 5363   3.980   1.952   7.672 -0.5083  0.1726  0.6013
   40POPC   H7R 5364   4.014   1.865   7.612  0.1741  0.9042 -0.0801
   40POPC   H7S 5365   3.869   1.943   7.672 -0.6048  1.1683 -0.6377
   40POPC   C28 5366   4.048   1.913   7.803 -0.0951 -0.4999 -0.1341
   40POPC   H8R 5367   4.151   1.872   7.792 -0.9386 -2.3931 -1.3844
   40POPC   H8S 5368   3.994   1.822   7.838 -0.2771 -0.4313 -0.2392
   40POPC   C29 5369   4.050   2.031   7.897 -0.4451  0.6732  1.1930
   40POPC   H91 5370   4.146   2.084   7.906  0.3872 -0.9746  2.4525
   40POPC  C210 5371   3.951   2.075   7.982  0.0943  0.1234  0.1023
   40POPC  H101 5372   3.973   2.168   8.037  0.3869 -1.0697  2.0379
   40POPC  C211 5373   3.810   2.020   7.989 -0.4790 -0.5420 -0.0095
   40POPC  H11R 5374   3.797   1.933   7.921  1.2380  0.9464 -2.3403
   40POPC  H11S 5375   3.744   2.095   7.940 -1.4927 -3.4645 -3.2972
   40POPC  C212 5376   3.755   1.988   8.130 -0.0912 -0.5861 -0.2977
   40POPC  H12R 5377   3.657   1.949   8.095  0.5026 -1.6512 -0.7957
   40POPC  H12S 5378   3.731   2.074   8.196 -3.0139 -0.4689 -1.4643
   40POPC  C213 5379   3.827   1.868   8.190  0.2920  0.6961 -0.1961
   40POPC  H13R 5380   3.922   1.903   8.235  0.5694  0.6482 -0.7478
   40POPC  H13S 5381   3.853   1.800   8.106 -0.4330 -0.4018  0.4485
   40POPC  C214 5382   3.743   1.790   8.295  0.4983  0.3425 -0.3844
   40POPC  H14R 5383   3.644   1.786   8.245 -0.2742 -0.1295  1.1734
   40POPC  H14S 5384   3.720   1.849   8.386 -0.5179 -0.4657 -0.1027
   40POPC  C215 5385   3.792   1.650   8.324  0.1124 -0.9009 -0.1665
   40POPC  H15R 5386   3.878   1.653   8.394 -0.1299 -0.3183  0.1150
   40POPC  H15S 5387   3.833   1.607   8.231  0.4512  0.6482 -0.7460
   40POPC  C216 5388   3.697   1.552   8.396 -0.2960  0.9008 -0.1942
   40POPC  H16R 5389   3.757   1.461   8.417  0.1041  1.4433  1.0175
   40POPC  H16S 5390   3.616   1.518   8.327  0.0148 -1.0742  0.3949
   40POPC  C217 5391   3.634   1.603   8.521 -0.7973 -0.5227  0.0089
   40POPC  H17R 5392   3.585   1.516   8.569 -0.2375 -0.8794 -0.0659
   40POPC  H17S 5393   3.560   1.684   8.502  0.2976  0.2220 -1.1545
   40POPC  C218 5394   3.739   1.655   8.619 -0.7178  0.1892 -0.2987
   40POPC  H18R 5395   3.775   1.753   8.582  0.2400 -0.4553 -1.0614
   40POPC  H18S 5396   3.820   1.581   8.637 -0.3110  0.4670 -0.9907
   40POPC  H18T 5397   3.697   1.673   8.721  3.4441 -0.6089  1.6389
   40POPC   C33 5398   4.399   2.191   6.964 -0.8720  0.0012 -0.0062
   40POPC   H3X 5399   4.349   2.093   6.985  0.8584 -1.0854 -0.8352
   40POPC   H3Y 5400   4.327   2.271   6.989 -3.2839 -1.6946 -1.2812
   40POPC   C34 5401   4.530   2.195   7.044 -0.4432  0.2962 -0.1831
   40POPC   H4X 5402   4.574   2.295   7.060 -0.2781  0.1296  0.3872
   40POPC   H4Y 5403   4.605   2.145   6.979  1.8935  1.7871  1.3129
   40POPC   C35 5404   4.535   2.126   7.177  0.2768  0.1986  0.0142
   40POPC   H5X 5405   4.636   2.136   7.222  0.8281  0.6598 -1.3078
   40POPC   H5Y 5406   4.521   2.020   7.148  1.0971  0.3100 -0.7769
   40POPC   C36 5407   4.420   2.173   7.268  1.0863 -0.2886  0.4901
   40POPC   H6X 5408   4.329   2.164   7.204  0.9811  0.7196  0.4779
   40POPC   H6Y 5409   4.437   2.280   7.292  0.3013 -0.4984  2.0287
   40POPC   C37 5410   4.391   2.102   7.404 -0.3730  0.9369 -0.3232
   40POPC   H7X 5411   4.362   1.995   7.399 -1.6144  1.1008  2.4801
   40POPC   H7Y 5412   4.304   2.155   7.449  0.5300  1.7526  0.4946
   40POPC   C38 5413   4.510   2.125   7.504 -0.4048 -0.1983 -0.5278
   40POPC   H8X 5414   4.530   2.233   7.487  1.3204 -0.3810  0.2727
   40POPC   H8Y 5415   4.591   2.057   7.470 -0.4775 -1.0935  1.0659
   40POPC   C39 5416   4.461   2.107   7.648  0.2357 -0.1472  0.4849
   40POPC   H9X 5417   4.457   1.997   7.659 -0.2843 -0.3539 -1.6109
   40POPC   H9Y 5418   4.356   2.143   7.653  0.2293  0.3191 -2.3277
   40POPC  C310 5419   4.573   2.152   7.746  0.4662 -0.4648  0.9251
   40POPC  H10X 5420   4.674   2.142   7.701  0.4669  0.5179  0.6903
   40POPC  H10Y 5421   4.562   2.090   7.837  1.8735  0.1461  1.5270
   40POPC  C311 5422   4.539   2.296   7.784 -0.2937  0.0311  0.5698
   40POPC  H11X 5423   4.433   2.289   7.818 -0.9008 -0.1674 -1.2990
   40POPC  H11Y 5424   4.541   2.357   7.692 -0.5628 -2.0153 -0.8205
   40POPC  C312 5425   4.631   2.359   7.887 -0.4608  0.2214  0.2130
   40POPC  H12X 5426   4.597   2.457   7.927  2.2980  0.8626  1.0786
   40POPC  H12Y 5427   4.728   2.376   7.836 -0.8923 -1.3529 -1.1790
   40POPC  C313 5428   4.652   2.267   8.011  0.0770  0.5695 -0.3419
   40POPC  H13X 5429   4.714   2.179   7.986 -0.1826  1.1192 -3.0386
   40POPC  H13Y 5430   4.548   2.241   8.043  1.0367 -1.9191  0.9163
   40POPC  C314 5431   4.717   2.352   8.124 -0.4542 -1.1764  0.7426
   40POPC  H14X 5432   4.654   2.443   8.132 -1.3616 -1.7343  0.0760
   40POPC  H14Y 5433   4.819   2.384   8.095 -1.5412  3.2162  1.3577
   40POPC  C315 5434   4.731   2.271   8.250  0.6026  0.0710  0.1326
   40POPC  H15X 5435   4.740   2.164   8.219 -2.5605 -0.4754  0.9089
   40POPC  H15Y 5436   4.638   2.275   8.310  0.4412 -0.1437 -0.0998
   40POPC  C316 5437   4.856   2.314   8.335 -0.5373 -0.2543 -0.1014
   40POPC  H16X 5438   4.869   2.251   8.425 -1.3610 -0.7850 -0.3446
   40POPC  H16Y 5439   4.854   2.422   8.358 -0.4206 -0.3496  0.3562
   40POPC  H16Z 5440   4.953   2.297   8.283  0.1883  1.3779  0.6724
   41CHL1    C3 5441   1.718   6.619  10.027 -0.7490 -0.0070 -0.2581
   41CHL1    H3 5442   1.675   6.518  10.013  0.1800 -0.4345 -0.0622
   41CHL1    O3 5443   1.721   6.657  10.162  0.1629 -0.0658  0.2554
   41CHL1   H3' 5444   1.640   6.702  10.186 -0.3522 -1.7412  1.7464
   41CHL1    C4 5445   1.859   6.620   9.961  0.1909 -0.1796 -0.5043
   41CHL1   H4A 5446   1.922   6.709   9.985 -0.4418 -0.7627  3.6626
   41CHL1   H4B 5447   1.913   6.535  10.008 -1.4918 -1.3404 -0.6298
   41CHL1    C5 5448   1.860   6.616   9.809  0.2905  0.6923 -0.2727
   41CHL1    C6 5449   1.924   6.515   9.744  0.5461 -0.0942  0.0869
   41CHL1    H6 5450   1.972   6.438   9.806 -0.1401 -0.4358  0.2040
   41CHL1    C7 5451   1.923   6.492   9.592  0.7362  0.6649 -0.1426
   41CHL1   H7A 5452   2.017   6.462   9.541 -0.4282 -1.3976 -1.1613
   41CHL1   H7B 5453   1.846   6.416   9.566  1.9547 -0.3056 -1.0271
   41CHL1    C8 5454   1.871   6.620   9.519  0.0309  0.3772  0.0675
   41CHL1    H8 5455   1.952   6.696   9.517  0.5912 -0.2242 -2.7253
   41CHL1   C14 5456   1.850   6.591   9.372 -1.1195  0.2504 -0.3903
   41CHL1   H14 5457   1.778   6.507   9.371  2.2782 -2.7838 -0.0345
   41CHL1   C15 5458   1.974   6.553   9.289  0.4804  0.1968 -0.5334
   41CHL1  H15A 5459   2.060   6.619   9.315  0.9669 -0.4110 -0.5758
   41CHL1  H15B 5460   2.013   6.450   9.306 -0.9739 -1.0846 -4.5259
   41CHL1   C16 5461   1.931   6.581   9.149 -0.2816 -0.1774 -0.7073
   41CHL1  H16A 5462   1.992   6.660   9.099  0.5734  1.4975  2.8448
   41CHL1  H16B 5463   1.922   6.493   9.082  0.0501 -0.9175  0.2266
   41CHL1   C17 5464   1.785   6.636   9.150 -0.6111 -0.2435  0.0120
   41CHL1   H17 5465   1.713   6.552   9.143  1.8093 -2.4845  1.1570
   41CHL1   C13 5466   1.779   6.700   9.295  0.0168  0.0076  0.5630
   41CHL1   C18 5467   1.852   6.831   9.285  0.6985 -0.1827  0.8686
   41CHL1  H18A 5468   1.790   6.915   9.250  0.3740 -1.3838 -1.5149
   41CHL1  H18B 5469   1.883   6.872   9.383  1.5649 -1.2046  1.0419
   41CHL1  H18C 5470   1.940   6.812   9.220 -0.6853 -0.6103 -0.9128
   41CHL1   C12 5471   1.640   6.701   9.359  0.4584  0.5447  1.1150
   41CHL1  H12A 5472   1.568   6.763   9.302  0.2615 -1.4588 -0.8727
   41CHL1  H12B 5473   1.596   6.599   9.352 -0.9232  1.1407  1.0024
   41CHL1   C11 5474   1.640   6.742   9.504  0.3582  0.1547  0.2082
   41CHL1  H11A 5475   1.681   6.845   9.507  1.2911 -0.1925 -0.2792
   41CHL1  H11B 5476   1.536   6.750   9.542  0.4270  0.4304  0.3407
   41CHL1    C9 5477   1.737   6.660   9.589  0.6056 -0.2185 -0.4323
   41CHL1    H9 5478   1.682   6.564   9.582 -2.0999  1.2497  0.2300
   41CHL1   C10 5479   1.758   6.702   9.736 -0.2982  0.0594 -0.2548
   41CHL1   C19 5480   1.825   6.835   9.736  0.8409  0.4912  0.0173
   41CHL1  H19A 5481   1.839   6.879   9.837 -0.9468  1.0074  0.0503
   41CHL1  H19B 5482   1.925   6.834   9.687  0.5471 -0.8745 -0.5677
   41CHL1  H19C 5483   1.752   6.904   9.689  2.1674  0.5079 -2.0512
   41CHL1    C1 5484   1.623   6.706   9.806  0.5695  0.3176 -0.6679
   41CHL1   H1A 5485   1.557   6.789   9.772  0.6468  1.6670  2.3336
   41CHL1   H1B 5486   1.572   6.610   9.781  0.6999  0.6023 -2.0694
   41CHL1    C2 5487   1.636   6.723   9.959  0.0370  0.1535  0.4988
   41CHL1   H2A 5488   1.529   6.716   9.988  0.0142  0.5611  0.5164
   41CHL1   H2B 5489   1.669   6.825   9.987 -0.8301  0.1788  1.4397
   41CHL1   C20 5490   1.749   6.721   9.023 -0.1053  0.4021 -0.3869
   41CHL1   H20 5491   1.799   6.819   9.032 -1.5987  1.0630  1.1003
   41CHL1   C21 5492   1.601   6.748   9.018  0.5304  0.7573  0.7637
   41CHL1  H21A 5493   1.553   6.648   9.031 -0.0778  0.9407 -0.0358
   41CHL1  H21B 5494   1.567   6.775   8.915 -0.4668 -0.0975  0.8615
   41CHL1  H21C 5495   1.567   6.822   9.093  4.0551  1.1557  2.0437
   41CHL1   C22 5496   1.805   6.654   8.892 -0.6835 -0.0033  0.3635
   41CHL1  H22A 5497   1.765   6.727   8.818 -0.4705 -0.0908  0.1601
   41CHL1  H22B 5498   1.916   6.652   8.889 -0.6858  1.4457 -2.3662
   41CHL1   C23 5499   1.753   6.514   8.863 -0.2094  0.4915 -0.4044
   41CHL1  H23A 5500   1.782   6.454   8.952 -0.2944 -0.2404 -0.8700
   41CHL1  H23B 5501   1.642   6.522   8.857 -0.0386  2.0429 -2.1799
   41CHL1   C24 5502   1.799   6.457   8.732  0.0734 -0.4439 -0.2392
   41CHL1  H24A 5503   1.752   6.360   8.706  3.8735 -1.7895 -2.4147
   41CHL1  H24B 5504   1.763   6.526   8.653  0.1235 -1.8015 -1.4762
   41CHL1   C25 5505   1.956   6.432   8.714  0.3242  0.0027 -0.0663
   41CHL1   H25 5506   2.006   6.530   8.730  0.4060 -0.2865  1.5489
   41CHL1   C26 5507   2.020   6.335   8.812  0.6917  0.5902  0.2800
   41CHL1  H26A 5508   2.004   6.227   8.793  0.1935  0.5683  0.8059
   41CHL1  H26B 5509   2.129   6.350   8.795  0.6647  1.0162  0.4758
   41CHL1  H26C 5510   2.001   6.360   8.919  0.4868 -0.6971  0.5564
   41CHL1   C27 5511   1.973   6.386   8.569 -0.2895 -0.4862  0.2744
   41CHL1  H27A 5512   1.913   6.293   8.568  1.7375 -1.8190 -0.0607
   41CHL1  H27B 5513   1.930   6.460   8.498 -2.5900 -1.4713  0.6267
   41CHL1  H27C 5514   2.076   6.358   8.537  0.3121  2.6120 -0.7433
   42CHL1    C3 5515   2.133   5.965   9.914  0.9023 -0.3722 -0.3475
   42CHL1    H3 5516   2.226   6.011   9.872  1.1844 -1.1120 -0.5419
   42CHL1    O3 5517   2.126   5.984  10.059  0.2371 -0.6684 -0.0919
   42CHL1   H3' 5518   2.110   6.078  10.069  1.9626 -0.3912  0.1652
   42CHL1    C4 5519   2.018   6.042   9.842 -0.1512  0.0984  0.0455
   42CHL1   H4A 5520   1.917   6.018   9.881 -0.7077  1.5498 -0.4670
   42CHL1   H4B 5521   2.034   6.149   9.863 -2.2580  0.1618  1.4185
   42CHL1    C5 5522   2.004   6.011   9.692 -0.1759  0.1827  0.1950
   42CHL1    C6 5523   2.020   6.113   9.606 -0.1620  0.5249 -0.3686
   42CHL1    H6 5524   2.021   6.218   9.639  2.0683 -0.6604  3.6701
   42CHL1    C7 5525   2.027   6.084   9.459 -0.1964 -0.8368 -0.1333
   42CHL1   H7A 5526   1.986   6.167   9.399 -0.1980 -0.2080  0.7232
   42CHL1   H7B 5527   2.131   6.083   9.420 -0.3760  3.0839 -0.9237
   42CHL1    C8 5528   1.973   5.945   9.412 -0.2121  0.0821 -0.2940
   42CHL1    H8 5529   1.863   5.957   9.424 -0.1614  0.4115 -0.1430
   42CHL1   C14 5530   2.019   5.913   9.271 -0.0156  0.1492  0.1846
   42CHL1   H14 5531   2.129   5.898   9.277 -0.1990 -1.7349 -0.8244
   42CHL1   C15 5532   2.010   6.021   9.166  0.3292  0.7665  0.4267
   42CHL1  H15A 5533   1.925   6.090   9.179 -0.0782  0.8979 -2.6449
   42CHL1  H15B 5534   2.103   6.080   9.177  0.1760  1.0070  0.4248
   42CHL1   C16 5535   2.010   5.934   9.040 -0.5923  0.0690 -0.0357
   42CHL1  H16A 5536   1.910   5.955   8.997 -0.5913  0.2327  0.0398
   42CHL1  H16B 5537   2.084   5.973   8.968 -0.5602  1.6264  0.8205
   42CHL1   C17 5538   2.019   5.783   9.073 -0.1129 -0.5422 -0.2980
   42CHL1   H17 5539   2.129   5.769   9.084 -0.1692 -1.4004 -0.7707
   42CHL1   C13 5540   1.955   5.781   9.217  0.6383  0.5521  1.2477
   42CHL1   C18 5541   1.803   5.793   9.211 -1.0506 -0.1218  0.4319
   42CHL1  H18A 5542   1.766   5.692   9.181 -1.4467 -0.1441  0.9770
   42CHL1  H18B 5543   1.767   5.822   9.312  0.9352 -0.3905  1.2357
   42CHL1  H18C 5544   1.768   5.867   9.135  0.5697  0.0189 -0.1854
   42CHL1   C12 5545   2.001   5.669   9.306 -0.4190  0.4394 -0.0368
   42CHL1  H12A 5546   1.958   5.570   9.280  1.3309 -0.9524  2.0800
   42CHL1  H12B 5547   2.112   5.656   9.299 -0.6660 -1.5291 -0.5383
   42CHL1   C11 5548   1.980   5.699   9.456  0.1715  0.4000  0.0057
   42CHL1  H11A 5549   1.869   5.692   9.465  0.2030  0.6766  0.6294
   42CHL1  H11B 5550   2.032   5.620   9.514 -1.0177  0.1150  0.7082
   42CHL1    C9 5551   2.024   5.841   9.508  0.1449 -0.1464 -0.3419
   42CHL1    H9 5552   2.134   5.838   9.489  0.1518 -1.0850 -0.1615
   42CHL1   C10 5553   2.003   5.861   9.656 -0.5140 -0.5153  0.3490
   42CHL1   C19 5554   1.861   5.812   9.695  0.0907  0.2678 -0.2480
   42CHL1  H19A 5555   1.786   5.857   9.626 -1.3005  2.4008  2.5363
   42CHL1  H19B 5556   1.844   5.703   9.689  1.4104  0.0886 -0.7637
   42CHL1  H19C 5557   1.836   5.837   9.801  0.8204  0.6280 -0.1618
   42CHL1    C1 5558   2.117   5.787   9.736 -0.2609 -0.1668  0.0867
   42CHL1   H1A 5559   2.113   5.676   9.726  0.9764 -0.4245  2.0132
   42CHL1   H1B 5560   2.219   5.803   9.695 -0.0393  1.8100  1.3489
   42CHL1    C2 5561   2.121   5.817   9.887  0.2464 -0.4794 -0.2777
   42CHL1   H2A 5562   2.207   5.766   9.937 -1.3282  0.3591  3.4168
   42CHL1   H2B 5563   2.033   5.783   9.945  0.4573 -0.0319  0.2998
   42CHL1   C20 5564   1.964   5.686   8.963  0.3528 -0.6915  0.7027
   42CHL1   H20 5565   1.860   5.716   8.939  0.2199 -1.5561  0.1736
   42CHL1   C21 5566   1.970   5.537   9.006  1.3571  0.0496  0.5437
   42CHL1  H21A 5567   2.072   5.514   9.044  1.3220 -3.3791 -1.2294
   42CHL1  H21B 5568   1.950   5.471   8.918  2.1203  0.2679  0.2039
   42CHL1  H21C 5569   1.881   5.514   9.067 -0.0435 -1.1374 -1.8701
   42CHL1   C22 5570   2.037   5.686   8.824 -0.0756 -0.0372 -0.4772
   42CHL1  H22A 5571   2.066   5.789   8.797  0.9423 -0.3977 -0.7903
   42CHL1  H22B 5572   2.123   5.618   8.838 -2.3673 -3.1443 -0.8437
   42CHL1   C23 5573   1.953   5.641   8.705  0.4497 -0.0545  0.8539
   42CHL1  H23A 5574   1.928   5.534   8.721 -0.4621  0.0044 -0.1843
   42CHL1  H23B 5575   1.863   5.705   8.713  1.0526  1.1190 -1.4125
   42CHL1   C24 5576   2.021   5.662   8.569 -0.2832 -0.4803 -0.9383
   42CHL1  H24A 5577   1.938   5.646   8.496 -0.5142  0.2435 -0.8394
   42CHL1  H24B 5578   2.047   5.769   8.559  3.5508 -1.1575  0.9305
   42CHL1   C25 5579   2.133   5.568   8.537 -0.0002  0.9809  0.0966
   42CHL1   H25 5580   2.208   5.578   8.618  0.4796 -1.8115  0.0492
   42CHL1   C26 5581   2.089   5.417   8.528 -1.0311 -0.0182 -0.2296
   42CHL1  H26A 5582   2.003   5.401   8.460 -0.4598  1.2470 -1.2754
   42CHL1  H26B 5583   2.166   5.360   8.473 -2.5785 -1.5189 -0.8764
   42CHL1  H26C 5584   2.062   5.371   8.626  0.1075 -0.4989 -0.1359
   42CHL1   C27 5585   2.204   5.606   8.403 -0.3095  0.2396 -0.3128
   42CHL1  H27A 5586   2.203   5.716   8.391  0.1359 -0.0824 -3.8734
   42CHL1  H27B 5587   2.311   5.573   8.407  0.1111  1.2195 -2.5923
   42CHL1  H27C 5588   2.146   5.572   8.315 -0.1726  1.6013 -0.9429
   43CHL1    C3 5589   2.352   6.578  10.025 -0.5324 -0.8023 -0.2435
   43CHL1    H3 5590   2.428   6.658  10.016 -1.3521  0.1730  1.2099
   43CHL1    O3 5591   2.286   6.583  10.151 -0.4212  0.2406 -0.1534
   43CHL1   H3' 5592   2.198   6.618  10.138 -0.5942  0.1854  0.8223
   43CHL1    C4 5593   2.239   6.597   9.921 -0.1577  0.6092  0.5542
   43CHL1   H4A 5594   2.164   6.520   9.948 -1.0547  2.0070  2.1678
   43CHL1   H4B 5595   2.201   6.702   9.927 -2.2842 -0.0589 -0.4605
   43CHL1    C5 5596   2.276   6.570   9.776 -0.2061 -0.0096  0.5998
   43CHL1    C6 5597   2.259   6.656   9.683 -0.0760  0.5178  0.2026
   43CHL1    H6 5598   2.206   6.751   9.701 -1.5288 -0.2723  0.1707
   43CHL1    C7 5599   2.300   6.647   9.538 -0.2414 -0.1323 -0.7502
   43CHL1   H7A 5600   2.227   6.679   9.461  0.8246  1.5309 -1.1160
   43CHL1   H7B 5601   2.390   6.713   9.530  0.3178 -0.5951  1.4939
   43CHL1    C8 5602   2.349   6.500   9.505 -0.1382  0.9931 -0.3978
   43CHL1    H8 5603   2.259   6.437   9.493 -1.0627  2.0586  0.8637
   43CHL1   C14 5604   2.422   6.492   9.371  0.2259 -0.1387  0.3529
   43CHL1   H14 5605   2.508   6.561   9.382  0.7564 -1.0561  2.2008
   43CHL1   C15 5606   2.358   6.542   9.240 -0.6415 -0.1230  0.4574
   43CHL1  H15A 5607   2.265   6.485   9.221 -0.0785 -0.2930 -1.9236
   43CHL1  H15B 5608   2.338   6.651   9.236 -0.4538 -0.0398  1.5166
   43CHL1   C16 5609   2.455   6.495   9.128 -0.0968  0.3664  0.4339
   43CHL1  H16A 5610   2.388   6.473   9.042  0.1400 -0.4202  0.4438
   43CHL1  H16B 5611   2.516   6.584   9.102  1.2558 -0.2906  1.2940
   43CHL1   C17 5612   2.544   6.388   9.194 -1.0220  0.3816 -0.5651
   43CHL1   H17 5613   2.638   6.436   9.227  0.4155 -1.6614 -1.5697
   43CHL1   C13 5614   2.482   6.358   9.329  0.2655 -0.1187  0.0355
   43CHL1   C18 5615   2.367   6.252   9.311  0.4637 -0.8108  0.4321
   43CHL1  H18A 5616   2.296   6.240   9.395  0.2404 -0.7144  0.2569
   43CHL1  H18B 5617   2.307   6.274   9.221  0.0710 -1.4583  0.5387
   43CHL1  H18C 5618   2.410   6.151   9.296  1.0780 -0.9979  3.1727
   43CHL1   C12 5619   2.586   6.312   9.442  0.1567  0.0841 -0.6281
   43CHL1  H12A 5620   2.607   6.206   9.414  1.3495 -0.4715  2.2103
   43CHL1  H12B 5621   2.671   6.383   9.449 -0.6424  0.8445  1.7721
   43CHL1   C11 5622   2.514   6.320   9.580  0.3960  0.0287  0.6105
   43CHL1  H11A 5623   2.436   6.241   9.566 -0.9455  2.0911 -4.8941
   43CHL1  H11B 5624   2.590   6.297   9.658  1.1061 -0.6102 -0.2490
   43CHL1    C9 5625   2.438   6.450   9.616  0.1562 -0.0917  0.2198
   43CHL1    H9 5626   2.513   6.532   9.617 -0.9448  0.9280  2.8331
   43CHL1   C10 5627   2.367   6.448   9.756  1.0455  0.3744 -0.7756
   43CHL1   C19 5628   2.288   6.319   9.755 -0.6645  0.4210 -0.5141
   43CHL1  H19A 5629   2.346   6.225   9.750 -2.4362 -0.7153 -0.3112
   43CHL1  H19B 5630   2.225   6.319   9.846 -0.9070  0.0534 -0.6770
   43CHL1  H19C 5631   2.226   6.327   9.662 -0.3207 -0.6435 -0.8410
   43CHL1    C1 5632   2.475   6.434   9.871  0.2425 -0.5032 -0.6522
   43CHL1   H1A 5633   2.544   6.351   9.844  0.4846 -0.4981 -0.0597
   43CHL1   H1B 5634   2.543   6.521   9.854 -0.4447  0.1854  0.0761
   43CHL1    C2 5635   2.413   6.441  10.004  0.2059 -0.2330  0.3040
   43CHL1   H2A 5636   2.489   6.421  10.083  0.6122  0.5373  0.1143
   43CHL1   H2B 5637   2.332   6.368  10.024 -0.8389  0.7972 -0.1478
   43CHL1   C20 5638   2.594   6.267   9.113 -1.0395 -0.5668  0.6641
   43CHL1   H20 5639   2.594   6.176   9.177 -1.1172 -0.3797  0.9371
   43CHL1   C21 5640   2.739   6.295   9.063 -0.0517 -0.5224  0.0573
   43CHL1  H21A 5641   2.774   6.221   8.989  0.1471  1.6498 -2.0783
   43CHL1  H21B 5642   2.817   6.294   9.142  0.8367  0.0517 -0.7963
   43CHL1  H21C 5643   2.746   6.394   9.012  0.8065 -2.3710 -3.5836
   43CHL1   C22 5644   2.505   6.238   8.993  0.2444 -0.3394 -0.0609
   43CHL1  H22A 5645   2.401   6.246   9.031  0.1223  1.2708 -0.6822
   43CHL1  H22B 5646   2.519   6.316   8.915  2.7552 -0.8167 -0.1130
   43CHL1   C23 5647   2.517   6.099   8.930  0.3633  0.3709  0.4149
   43CHL1  H23A 5648   2.624   6.074   8.910  0.3634  1.0868 -0.4973
   43CHL1  H23B 5649   2.467   6.035   9.006  1.3689 -0.0743  0.7076
   43CHL1   C24 5650   2.430   6.081   8.802  0.0793  0.5129  0.3331
   43CHL1  H24A 5651   2.323   6.105   8.819 -0.1826  0.9472 -1.7857
   43CHL1  H24B 5652   2.479   6.143   8.724  0.7344 -1.9745 -1.3138
   43CHL1   C25 5653   2.418   5.941   8.733 -0.0671  0.0398 -0.1129
   43CHL1   H25 5654   2.357   5.881   8.805  0.0790 -1.9135 -1.5791
   43CHL1   C26 5655   2.335   5.944   8.603  0.0082  0.1479  0.3725
   43CHL1  H26A 5656   2.300   5.840   8.582  1.2454 -0.2733  0.3336
   43CHL1  H26B 5657   2.240   6.000   8.612 -1.5348 -2.6596  2.1733
   43CHL1  H26C 5658   2.394   5.983   8.518  0.3313 -0.8741  0.1136
   43CHL1   C27 5659   2.553   5.873   8.714 -0.3758 -0.1512 -0.2052
   43CHL1  H27A 5660   2.596   5.862   8.815  1.2110  0.1120 -0.8413
   43CHL1  H27B 5661   2.536   5.774   8.667 -0.2511 -1.0625  1.6479
   43CHL1  H27C 5662   2.628   5.920   8.647 -1.9148  0.7242 -1.3838
   44CHL1    C3 5663   2.863   6.735  10.167 -0.2626  0.5223  0.2493
   44CHL1    H3 5664   2.899   6.840  10.166 -1.3931  0.9203 -1.5920
   44CHL1    O3 5665   2.842   6.687  10.301 -0.5614 -0.6074 -0.0704
   44CHL1   H3' 5666   2.817   6.595  10.287  0.5208 -0.7203 -1.3813
   44CHL1    C4 5667   2.731   6.724  10.085 -0.2351  0.1737  0.5212
   44CHL1   H4A 5668   2.680   6.628  10.111  0.0235  0.2172  1.1974
   44CHL1   H4B 5669   2.669   6.804  10.128  1.2086  0.8578  1.3715
   44CHL1    C5 5670   2.746   6.746   9.937  0.0107  0.1088 -0.2320
   44CHL1    C6 5671   2.672   6.843   9.881  0.4533  0.0530 -0.5908
   44CHL1    H6 5672   2.593   6.887   9.943 -0.1796 -1.4952 -0.2900
   44CHL1    C7 5673   2.675   6.871   9.739  0.9400  0.7807  0.2648
   44CHL1   H7A 5674   2.570   6.862   9.703  0.9270  1.1335  0.2152
   44CHL1   H7B 5675   2.718   6.972   9.721  2.1006  0.0246 -1.3767
   44CHL1    C8 5676   2.767   6.770   9.659 -0.6491  0.1222  0.3056
   44CHL1    H8 5677   2.705   6.678   9.652 -2.2218  1.0799  1.3285
   44CHL1   C14 5678   2.798   6.838   9.522 -0.2401 -0.7900  0.5993
   44CHL1   H14 5679   2.856   6.933   9.530 -2.2211  0.6742 -1.6079
   44CHL1   C15 5680   2.681   6.883   9.438 -0.1655 -0.4487 -0.1695
   44CHL1  H15A 5681   2.612   6.796   9.442  0.4763 -0.9915 -0.9136
   44CHL1  H15B 5682   2.619   6.969   9.470 -0.9925 -1.5621  1.3175
   44CHL1   C16 5683   2.728   6.883   9.292 -0.1496 -0.1661  0.4745
   44CHL1  H16A 5684   2.660   6.822   9.230  0.6821 -0.6987  0.0841
   44CHL1  H16B 5685   2.734   6.988   9.256  0.1136 -0.1425  0.5830
   44CHL1   C17 5686   2.873   6.832   9.291 -0.0077 -0.0594 -0.1351
   44CHL1   H17 5687   2.933   6.925   9.305  1.5227 -1.1449  0.7346
   44CHL1   C13 5688   2.878   6.748   9.425 -0.5600  0.0837 -0.0278
   44CHL1   C18 5689   2.806   6.609   9.399  0.1689  0.3691 -0.9178
   44CHL1  H18A 5690   2.786   6.555   9.493  0.8966  0.9644 -0.4150
   44CHL1  H18B 5691   2.709   6.628   9.347 -0.4866  1.4157  0.6541
   44CHL1  H18C 5692   2.878   6.553   9.335 -1.1166 -0.9157 -1.2592
   44CHL1   C12 5693   3.017   6.717   9.496 -0.6703  0.2084  0.1116
   44CHL1  H12A 5694   3.072   6.643   9.433 -0.2838  1.5083 -1.1174
   44CHL1  H12B 5695   3.066   6.815   9.515 -2.1705  1.1244 -0.6073
   44CHL1   C11 5696   2.996   6.668   9.636  0.1408  0.6484 -0.1885
   44CHL1  H11A 5697   2.964   6.562   9.624  3.4387 -0.5925  1.4160
   44CHL1  H11B 5698   3.096   6.658   9.684  0.1922  0.4617 -0.3311
   44CHL1    C9 5699   2.893   6.740   9.734  0.3073 -0.3843 -0.6853
   44CHL1    H9 5700   2.933   6.840   9.762 -1.0917  0.4000 -1.4852
   44CHL1   C10 5701   2.862   6.665   9.867  0.0850 -0.1691  0.4575
   44CHL1   C19 5702   2.819   6.514   9.845  0.1611 -0.7971  0.0317
   44CHL1  H19A 5703   2.773   6.471   9.937  0.3169  0.4399  0.6877
   44CHL1  H19B 5704   2.753   6.501   9.757 -0.4523  2.3492 -0.0284
   44CHL1  H19C 5705   2.901   6.443   9.819  1.6506  0.6700  0.6911
   44CHL1    C1 5706   2.992   6.673   9.953 -0.3517 -0.1592 -0.2256
   44CHL1   H1A 5707   3.070   6.610   9.904 -0.9936  0.0584 -1.5675
   44CHL1   H1B 5708   3.038   6.775   9.946 -0.2565 -0.1858  0.0104
   44CHL1    C2 5709   2.977   6.644  10.104  0.1893  0.5672  0.2852
   44CHL1   H2A 5710   3.080   6.653  10.144  1.4919  2.0688 -3.2928
   44CHL1   H2B 5711   2.938   6.541  10.116  1.5876 -0.3450 -2.6773
   44CHL1   C20 5712   2.915   6.765   9.160 -0.3273 -0.1110 -0.2621
   44CHL1   H20 5713   2.859   6.671   9.140 -1.4839  0.6259 -0.4876
   44CHL1   C21 5714   3.066   6.726   9.161  0.1236 -0.2644 -0.3393
   44CHL1  H21A 5715   3.114   6.697   9.065  0.2290  0.7109 -0.5879
   44CHL1  H21B 5716   3.073   6.646   9.237  0.8921 -0.2108 -0.3436
   44CHL1  H21C 5717   3.118   6.816   9.202 -0.4588 -0.4746  0.8561
   44CHL1   C22 5718   2.881   6.851   9.034  0.5517  0.9072  0.5234
   44CHL1  H22A 5719   2.772   6.868   9.030  0.2303 -1.2842 -0.6502
   44CHL1  H22B 5720   2.936   6.947   9.047 -0.9989  1.9232 -0.2260
   44CHL1   C23 5721   2.921   6.794   8.904  0.7776 -0.0355  0.7087
   44CHL1  H23A 5722   3.026   6.761   8.890  0.5570 -0.0673 -0.8888
   44CHL1  H23B 5723   2.868   6.697   8.898  0.2431  0.1424  2.2268
   44CHL1   C24 5724   2.877   6.877   8.784 -0.2336 -0.8420 -0.9172
   44CHL1  H24A 5725   2.767   6.887   8.772 -0.2384  0.3748  0.0586
   44CHL1  H24B 5726   2.920   6.979   8.793 -0.7471 -0.6527 -0.5691
   44CHL1   C25 5727   2.922   6.824   8.639  0.1394  0.2581 -0.2453
   44CHL1   H25 5728   3.033   6.818   8.637  0.2464  1.8342  0.6703
   44CHL1   C26 5729   2.862   6.687   8.600 -0.0610  0.1308 -0.5734
   44CHL1  H26A 5730   2.864   6.662   8.492 -1.6664 -2.2710 -0.1045
   44CHL1  H26B 5731   2.915   6.601   8.647 -1.2711 -0.0015  0.5934
   44CHL1  H26C 5732   2.753   6.693   8.624  0.2097  1.8956  0.2508
   44CHL1   C27 5733   2.888   6.926   8.528  0.2650 -0.0348  0.3030
   44CHL1  H27A 5734   2.778   6.936   8.534  0.1049  0.4505 -2.8040
   44CHL1  H27B 5735   2.942   7.022   8.542  3.0907 -1.5361  0.1892
   44CHL1  H27C 5736   2.915   6.882   8.429 -1.7200 -1.9849  0.5825
   45CHL1    C3 5737   6.687   5.461  10.248 -0.6602 -0.5879 -0.0856
   45CHL1    H3 5738   6.703   5.570  10.244  3.1587 -1.1105 -0.7951
   45CHL1    O3 5739   6.708   5.433  10.385 -0.1860  0.3269  0.1570
   45CHL1   H3' 5740   6.801   5.452  10.402  0.2742  2.5649 -4.1044
   45CHL1    C4 5741   6.543   5.433  10.218  0.3350  0.1338  0.2035
   45CHL1   H4A 5742   6.518   5.325  10.226 -0.8585  0.1627 -2.5852
   45CHL1   H4B 5743   6.488   5.496  10.292  1.9956 -0.3539  1.8758
   45CHL1    C5 5744   6.504   5.479  10.082  0.5530 -0.0081 -0.4673
   45CHL1    C6 5745   6.404   5.567  10.064 -0.3353  0.6918 -0.3934
   45CHL1    H6 5746   6.334   5.585  10.147 -0.3578  2.4747 -0.7947
   45CHL1    C7 5747   6.360   5.630   9.937 -0.6495  0.7268  0.6802
   45CHL1   H7A 5748   6.249   5.617   9.940 -0.2083 -3.8906  1.5623
   45CHL1   H7B 5749   6.372   5.740   9.939 -1.9789  0.8688  2.3212
   45CHL1    C8 5750   6.425   5.573   9.813 -0.2442  0.2674  1.2368
   45CHL1    H8 5751   6.434   5.665   9.751  1.6448 -0.8952 -0.2731
   45CHL1   C14 5752   6.331   5.482   9.732 -0.5261 -1.0799 -0.4609
   45CHL1   H14 5753   6.291   5.405   9.802 -0.8085 -2.0978 -1.7346
   45CHL1   C15 5754   6.208   5.570   9.678 -0.3120  0.0043  0.9283
   45CHL1  H15A 5755   6.113   5.513   9.684 -0.0833 -0.4904  0.0485
   45CHL1  H15B 5756   6.194   5.663   9.737  2.5853  1.9856 -1.3192
   45CHL1   C16 5757   6.243   5.604   9.527  0.1121  0.0808  0.4421
   45CHL1  H16A 5758   6.161   5.557   9.469 -1.2069  1.1549  1.3850
   45CHL1  H16B 5759   6.255   5.713   9.507  2.1497 -0.2036 -0.0288
   45CHL1   C17 5760   6.387   5.541   9.503  0.6908  0.7275  0.4705
   45CHL1   H17 5761   6.457   5.616   9.547  2.4450 -1.5068  1.6392
   45CHL1   C13 5762   6.395   5.426   9.605 -0.4134  0.3050 -0.0085
   45CHL1   C18 5763   6.311   5.305   9.561 -0.1082  0.2667 -0.4200
   45CHL1  H18A 5764   6.308   5.218   9.629  2.2747  0.0163 -0.5812
   45CHL1  H18B 5765   6.208   5.338   9.537  0.2638  1.8904  0.1280
   45CHL1  H18C 5766   6.347   5.266   9.464  0.8523  0.3642 -0.1117
   45CHL1   C12 5767   6.536   5.378   9.625 -0.7286 -0.1510 -0.3418
   45CHL1  H12A 5768   6.533   5.280   9.677  0.4367 -0.4857 -0.8723
   45CHL1  H12B 5769   6.593   5.359   9.532  0.3997  0.6015  0.1703
   45CHL1   C11 5770   6.629   5.474   9.709  0.2716  0.2560 -0.0567
   45CHL1  H11A 5771   6.732   5.433   9.714  0.4855  0.6852 -0.8061
   45CHL1  H11B 5772   6.632   5.557   9.635 -0.0545  1.6286  1.4505
   45CHL1    C9 5773   6.573   5.522   9.836  0.1672 -0.0026  0.5184
   45CHL1    H9 5774   6.627   5.618   9.852  0.2677  0.2789 -1.3668
   45CHL1   C10 5775   6.596   5.440   9.962  0.2774  0.0823  0.2392
   45CHL1   C19 5776   6.566   5.288   9.935 -0.2041 -0.2622 -0.7116
   45CHL1  H19A 5777   6.602   5.230  10.023  0.3849  0.1644 -0.6645
   45CHL1  H19B 5778   6.457   5.271   9.919 -0.5742  0.1719  1.2096
   45CHL1  H19C 5779   6.617   5.249   9.845  0.9548 -0.0460 -0.1552
   45CHL1    C1 5780   6.744   5.445  10.002  0.2433 -0.3763  0.4538
   45CHL1   H1A 5781   6.810   5.390   9.931  1.3987 -0.0076  1.2181
   45CHL1   H1B 5782   6.787   5.547   9.999  1.1088 -0.7263  0.7190
   45CHL1    C2 5783   6.781   5.396  10.145  0.2857  0.1990  0.3574
   45CHL1   H2A 5784   6.887   5.427  10.156  0.6159 -0.9667  0.5496
   45CHL1   H2B 5785   6.776   5.286  10.156  1.6846  0.2717  1.8936
   45CHL1   C20 5786   6.411   5.518   9.353  0.0956  0.1367 -0.2314
   45CHL1   H20 5787   6.508   5.464   9.341  0.1362  0.1568  0.0089
   45CHL1   C21 5788   6.440   5.652   9.295  0.3841 -0.1677  0.7259
   45CHL1  H21A 5789   6.467   5.643   9.188  1.6044 -0.4971  1.0515
   45CHL1  H21B 5790   6.522   5.703   9.352  0.4445 -1.9484  2.2807
   45CHL1  H21C 5791   6.355   5.724   9.295  0.3929 -0.1578  0.7539
   45CHL1   C22 5792   6.303   5.445   9.272 -0.3499  0.0404 -0.0523
   45CHL1  H22A 5793   6.286   5.340   9.304 -0.1128  0.0842  0.2198
   45CHL1  H22B 5794   6.205   5.496   9.280  0.0553  1.1077 -1.7929
   45CHL1   C23 5795   6.350   5.412   9.123  0.0948  0.4704 -0.0708
   45CHL1  H23A 5796   6.381   5.507   9.073 -1.9780  1.2517  0.0458
   45CHL1  H23B 5797   6.437   5.344   9.126  1.1936  1.8814  0.7104
   45CHL1   C24 5798   6.227   5.359   9.046  0.3482  0.2949  0.8742
   45CHL1  H24A 5799   6.201   5.253   9.069 -0.9548  0.4907  0.3399
   45CHL1  H24B 5800   6.142   5.427   9.067  0.5371  0.5555  0.7904
   45CHL1   C25 5801   6.252   5.360   8.896  0.2003 -0.4044 -0.7034
   45CHL1   H25 5802   6.350   5.308   8.887  0.2113 -0.2604 -1.4486
   45CHL1   C26 5803   6.144   5.280   8.822  0.5319  0.4201  0.1835
   45CHL1  H26A 5804   6.049   5.337   8.830  0.9303  1.1093  0.0524
   45CHL1  H26B 5805   6.165   5.263   8.714  2.1336  0.0119  0.5395
   45CHL1  H26C 5806   6.126   5.181   8.869 -0.6789 -0.5303 -2.1934
   45CHL1   C27 5807   6.267   5.501   8.829 -0.3048  0.3383 -0.0779
   45CHL1  H27A 5808   6.363   5.552   8.853 -0.1529  0.3892 -0.8070
   45CHL1  H27B 5809   6.277   5.488   8.719  0.0018  1.9568 -0.2427
   45CHL1  H27C 5810   6.175   5.553   8.862  0.4820  1.1287  0.9160
   46CHL1    C3 5811   2.338   3.363  10.035 -0.3602  0.4811 -0.3146
   46CHL1    H3 5812   2.402   3.279  10.068  0.0434  0.1443 -1.9403
   46CHL1    O3 5813   2.294   3.440  10.149 -0.0116 -0.2477 -0.0977
   46CHL1   H3' 5814   2.267   3.373  10.212 -0.9817 -0.8234 -1.0845
   46CHL1    C4 5815   2.398   3.449   9.931 -0.3781 -0.1924  0.0320
   46CHL1   H4A 5816   2.322   3.527   9.906  0.2568 -0.6205 -3.5412
   46CHL1   H4B 5817   2.487   3.507   9.962 -0.7191 -0.5064  1.6324
   46CHL1    C5 5818   2.437   3.359   9.809  0.5194 -0.0409 -0.0079
   46CHL1    C6 5819   2.565   3.359   9.768 -1.0827 -0.4009  0.1842
   46CHL1    H6 5820   2.639   3.433   9.802  1.2406 -2.1805 -0.9082
   46CHL1    C7 5821   2.607   3.256   9.667  0.2527 -0.5929 -0.4299
   46CHL1   H7A 5822   2.667   3.305   9.587 -0.9939 -0.3385 -1.2212
   46CHL1   H7B 5823   2.676   3.176   9.703  0.3274 -0.2113  0.2778
   46CHL1    C8 5824   2.500   3.194   9.579  0.6588  0.0464  0.6265
   46CHL1    H8 5825   2.462   3.281   9.521 -0.5568  0.8461  2.5683
   46CHL1   C14 5826   2.548   3.082   9.491 -0.1111  0.7890 -0.2050
   46CHL1   H14 5827   2.562   2.992   9.555 -2.2136 -0.1787 -1.0617
   46CHL1   C15 5828   2.686   3.092   9.416 -0.3333  0.3946  0.1301
   46CHL1  H15A 5829   2.728   3.193   9.392  1.1996 -0.1987  0.2263
   46CHL1  H15B 5830   2.762   3.056   9.489  0.1920 -1.1143 -1.1340
   46CHL1   C16 5831   2.671   3.001   9.291  0.2030 -0.4383  0.2718
   46CHL1  H16A 5832   2.676   3.051   9.193  1.1825 -0.8329  0.1135
   46CHL1  H16B 5833   2.744   2.918   9.279 -0.7322 -1.4811  1.5985
   46CHL1   C17 5834   2.526   2.932   9.303  0.1131 -0.1877  0.7404
   46CHL1   H17 5835   2.538   2.850   9.378 -2.0482 -0.0711  1.2585
   46CHL1   C13 5836   2.445   3.037   9.388  0.9718  0.7024  0.0209
   46CHL1   C18 5837   2.405   3.157   9.295 -0.2233  0.7061 -0.1118
   46CHL1  H18A 5838   2.347   3.231   9.354 -1.5472 -1.2171  1.0618
   46CHL1  H18B 5839   2.498   3.202   9.254 -0.2021 -1.0358 -2.0454
   46CHL1  H18C 5840   2.344   3.128   9.207 -0.0681 -2.8710  0.8632
   46CHL1   C12 5841   2.323   2.983   9.469  0.0541 -0.2721  0.4586
   46CHL1  H12A 5842   2.247   2.965   9.391  0.7311 -2.6666  0.3245
   46CHL1  H12B 5843   2.350   2.884   9.511  1.2707  0.0040  0.3502
   46CHL1   C11 5844   2.275   3.078   9.583 -0.0676 -0.3007 -0.0641
   46CHL1  H11A 5845   2.222   3.158   9.525  0.3972 -0.3711 -0.5895
   46CHL1  H11B 5846   2.196   3.023   9.637  1.5604 -3.3521 -0.6968
   46CHL1    C9 5847   2.384   3.152   9.666 -0.1528  0.1266 -0.8358
   46CHL1    H9 5848   2.428   3.078   9.737 -1.3482  0.7282  0.5461
   46CHL1   C10 5849   2.333   3.258   9.761 -0.1356  0.1424 -0.4621
   46CHL1   C19 5850   2.243   3.360   9.687 -0.2157 -0.1508  0.0338
   46CHL1  H19A 5851   2.277   3.377   9.583  2.3326  1.8187  1.1343
   46CHL1  H19B 5852   2.139   3.322   9.675 -0.3952 -0.0688  1.3171
   46CHL1  H19C 5853   2.242   3.464   9.726 -0.2242 -0.5417  1.0937
   46CHL1    C1 5854   2.253   3.186   9.879 -1.0067  0.5316  0.3364
   46CHL1   H1A 5855   2.160   3.138   9.842  0.4265 -2.4775  0.5577
   46CHL1   H1B 5856   2.325   3.117   9.927  1.8247  2.4748 -0.9718
   46CHL1    C2 5857   2.214   3.291   9.983  0.2551 -0.3666  0.0779
   46CHL1   H2A 5858   2.163   3.248  10.072  0.1825  0.4262  0.4247
   46CHL1   H2B 5859   2.139   3.358   9.936 -0.0750 -0.3147  0.6722
   46CHL1   C20 5860   2.463   2.876   9.172 -0.7027 -0.2990 -0.7602
   46CHL1   H20 5861   2.444   2.968   9.114 -0.9912 -0.6025 -1.1481
   46CHL1   C21 5862   2.322   2.811   9.182  0.0933 -0.4984 -0.4891
   46CHL1  H21A 5863   2.282   2.773   9.086  1.5025  0.2619 -1.3937
   46CHL1  H21B 5864   2.245   2.880   9.224 -0.4292 -1.6364  0.4677
   46CHL1  H21C 5865   2.328   2.728   9.255  0.6726 -2.0282 -2.2550
   46CHL1   C22 5866   2.567   2.795   9.081 -0.0565 -0.7517  0.0522
   46CHL1  H22A 5867   2.664   2.847   9.065 -0.4239 -0.2026 -0.4185
   46CHL1  H22B 5868   2.574   2.697   9.133 -2.6367  0.2605  2.4233
   46CHL1   C23 5869   2.529   2.775   8.935  0.3607  0.6192 -0.0812
   46CHL1  H23A 5870   2.448   2.699   8.941 -0.3004  1.4233  1.4373
   46CHL1  H23B 5871   2.497   2.870   8.887 -0.6228 -0.0121 -0.6832
   46CHL1   C24 5872   2.642   2.719   8.855 -0.0898  0.0505  0.6770
   46CHL1  H24A 5873   2.740   2.765   8.880 -1.0706  1.7603  1.4771
   46CHL1  H24B 5874   2.661   2.611   8.874 -2.5670 -0.6848 -0.8429
   46CHL1   C25 5875   2.620   2.730   8.704 -0.0390 -0.3085 -0.5813
   46CHL1   H25 5876   2.568   2.827   8.687  0.4124 -0.2255 -1.5211
   46CHL1   C26 5877   2.740   2.714   8.613 -0.5305 -0.3396 -0.1628
   46CHL1  H26A 5878   2.812   2.798   8.620  2.5755 -2.7216 -2.0044
   46CHL1  H26B 5879   2.805   2.625   8.626  1.8752  1.2935 -0.6916
   46CHL1  H26C 5880   2.708   2.706   8.507  0.6092  0.9004 -0.6157
   46CHL1   C27 5881   2.516   2.627   8.660 -0.7323  0.7891 -0.1993
   46CHL1  H27A 5882   2.421   2.629   8.718 -0.1784 -1.2619  0.8641
   46CHL1  H27B 5883   2.493   2.626   8.552  0.9478  0.2889 -0.5600
   46CHL1  H27C 5884   2.553   2.524   8.683 -1.4091  0.7864  0.9464
   47CHL1    C3 5885   3.139   6.141  10.022 -0.1736 -0.2701 -0.4004
   47CHL1    H3 5886   3.246   6.164  10.003 -0.3910  0.2821 -0.9615
   47CHL1    O3 5887   3.099   6.172  10.157 -0.4199  0.4360 -0.1098
   47CHL1   H3' 5888   3.006   6.190  10.145 -0.4876  0.2699  0.1578
   47CHL1    C4 5889   3.049   6.234   9.932 -0.0905  0.2500  0.3579
   47CHL1   H4A 5890   2.943   6.213   9.960 -0.9778  1.6817 -1.8070
   47CHL1   H4B 5891   3.070   6.336   9.973 -0.7517  0.2178  0.7864
   47CHL1    C5 5892   3.063   6.211   9.785 -0.3421 -0.1318 -0.4474
   47CHL1    C6 5893   3.096   6.308   9.695  0.4334  0.2552 -0.2789
   47CHL1    H6 5894   3.093   6.412   9.732 -0.4844  0.2830 -0.4210
   47CHL1    C7 5895   3.129   6.281   9.548  0.1727 -0.2357  0.6892
   47CHL1   H7A 5896   3.072   6.351   9.483  0.0736 -1.7113 -0.8352
   47CHL1   H7B 5897   3.238   6.286   9.527 -0.0361  0.6541 -0.2300
   47CHL1    C8 5898   3.073   6.147   9.505  0.1449 -0.2925 -0.3408
   47CHL1    H8 5899   2.964   6.167   9.501 -0.1117 -0.5854  3.4048
   47CHL1   C14 5900   3.129   6.111   9.365 -0.5555 -0.2616 -0.2948
   47CHL1   H14 5901   3.235   6.082   9.376 -0.5520 -0.4157 -0.7587
   47CHL1   C15 5902   3.126   6.219   9.250 -0.0236  0.3134 -0.0242
   47CHL1  H15A 5903   3.024   6.261   9.264 -0.7464 -1.0432 -1.0970
   47CHL1  H15B 5904   3.215   6.285   9.263  0.1503 -0.1493  1.2304
   47CHL1   C16 5905   3.128   6.138   9.126  0.4079 -0.7960  0.0559
   47CHL1  H16A 5906   3.048   6.161   9.053  1.1487  1.6460 -0.0466
   47CHL1  H16B 5907   3.221   6.158   9.068 -0.3058 -1.0508 -1.1834
   47CHL1   C17 5908   3.125   5.983   9.164  0.2117  0.1556 -0.7947
   47CHL1   H17 5909   3.231   5.953   9.182  0.8882  2.1349 -1.3043
   47CHL1   C13 5910   3.066   5.985   9.307  0.3723  0.1416 -0.2830
   47CHL1   C18 5911   2.909   6.004   9.291  0.5910 -0.1459  0.4017
   47CHL1  H18A 5912   2.886   6.071   9.206 -1.3240 -0.1889  0.8717
   47CHL1  H18B 5913   2.856   5.907   9.277 -2.4241  1.2419  1.7950
   47CHL1  H18C 5914   2.867   6.050   9.383  0.9421  2.7971 -0.8697
   47CHL1   C12 5915   3.100   5.867   9.396 -0.6680  0.2839 -0.3829
   47CHL1  H12A 5916   3.027   5.788   9.368 -0.1617  0.4440 -2.1808
   47CHL1  H12B 5917   3.202   5.828   9.376  0.1388  1.8308  0.6578
   47CHL1   C11 5918   3.066   5.898   9.544  0.5255 -0.4161 -0.2921
   47CHL1  H11A 5919   2.956   5.888   9.535  0.4503  0.2786 -0.1677
   47CHL1  H11B 5920   3.100   5.813   9.606 -1.8643 -0.8892  0.4228
   47CHL1    C9 5921   3.111   6.037   9.601 -0.0358  0.1558  0.0654
   47CHL1    H9 5922   3.221   6.033   9.611 -0.1231 -2.4624  0.3354
   47CHL1   C10 5923   3.055   6.062   9.747 -0.1668  0.2566 -0.2968
   47CHL1   C19 5924   2.907   6.025   9.759  0.3373 -0.3470 -0.3633
   47CHL1  H19A 5925   2.873   6.048   9.862  0.0453 -2.6821  0.1004
   47CHL1  H19B 5926   2.839   6.066   9.681 -1.1978 -0.0830  1.0876
   47CHL1  H19C 5927   2.890   5.916   9.750  1.3120 -0.4962 -0.4534
   47CHL1    C1 5928   3.135   5.967   9.841  0.8137  0.1422 -0.5290
   47CHL1   H1A 5929   3.101   5.864   9.818  1.3421 -0.2630  0.4684
   47CHL1   H1B 5930   3.243   5.975   9.814 -0.4213  1.4195 -5.5355
   47CHL1    C2 5931   3.119   5.989   9.992  0.0205 -0.0543  0.8779
   47CHL1   H2A 5932   3.187   5.925  10.052  2.1824  0.2656 -1.1859
   47CHL1   H2B 5933   3.012   5.971  10.019  0.0723 -0.1455  1.0281
   47CHL1   C20 5934   3.074   5.883   9.065 -0.4345 -0.3019  0.6570
   47CHL1   H20 5935   2.963   5.893   9.054 -0.4198 -0.8989 -0.0562
   47CHL1   C21 5936   3.107   5.733   9.099 -0.3827 -0.0858  0.4596
   47CHL1  H21A 5937   3.216   5.720   9.116 -0.6351 -1.1877  1.2988
   47CHL1  H21B 5938   3.066   5.663   9.024 -0.4934 -0.0269  0.4660
   47CHL1  H21C 5939   3.052   5.696   9.188  0.3158  0.4938  1.1445
   47CHL1   C22 5940   3.121   5.909   8.916  0.4754  0.7525 -0.3205
   47CHL1  H22A 5941   3.115   6.018   8.896  0.4680  0.2385 -3.2737
   47CHL1  H22B 5942   3.225   5.877   8.896 -0.3514 -1.6193 -1.0928
   47CHL1   C23 5943   3.028   5.840   8.812  0.5290  0.0121  0.6903
   47CHL1  H23A 5944   3.007   5.733   8.833 -1.1241  0.2913  0.5197
   47CHL1  H23B 5945   2.935   5.899   8.825  1.0811  1.0651 -0.1427
   47CHL1   C24 5946   3.069   5.850   8.663  0.1568  0.2475  0.0951
   47CHL1  H24A 5947   3.041   5.955   8.645  1.0668  0.8864  2.2262
   47CHL1  H24B 5948   3.179   5.831   8.665 -0.0548 -0.9639  2.7236
   47CHL1   C25 5949   3.008   5.747   8.574 -0.3538  0.0777  0.2481
   47CHL1   H25 5950   3.014   5.643   8.613  2.4848  0.3683  0.6932
   47CHL1   C26 5951   2.856   5.777   8.581 -0.1604  0.4064 -0.6501
   47CHL1  H26A 5952   2.833   5.878   8.540  3.2204  1.0299 -1.1381
   47CHL1  H26B 5953   2.820   5.780   8.686 -3.6712 -1.9468 -1.6671
   47CHL1  H26C 5954   2.797   5.699   8.528 -1.7555  3.2896 -3.3189
   47CHL1   C27 5955   3.050   5.750   8.429  0.9034  0.5382 -0.4262
   47CHL1  H27A 5956   3.156   5.717   8.424  0.6132 -0.5065  0.0187
   47CHL1  H27B 5957   2.994   5.679   8.364 -0.3252  1.3888 -0.3115
   47CHL1  H27C 5958   3.041   5.853   8.391 -2.0337 -0.3339 -2.3047
   48CHL1    C3 5959   3.942   6.773  10.060  0.1411  0.1086  0.6096
   48CHL1    H3 5960   3.958   6.882  10.075 -3.0255  0.6881  0.1262
   48CHL1    O3 5961   3.892   6.732  10.187  0.3380 -0.4937  0.4436
   48CHL1   H3' 5962   3.870   6.639  10.179 -1.3494  0.0149 -0.9277
   48CHL1    C4 5963   3.830   6.756   9.955  0.2346  0.4411 -0.2320
   48CHL1   H4A 5964   3.767   6.666   9.970  1.8555 -0.7506 -0.3512
   48CHL1   H4B 5965   3.767   6.844   9.979  1.0034  0.3097  2.3912
   48CHL1    C5 5966   3.879   6.754   9.814  0.1377 -0.0997 -0.2854
   48CHL1    C6 5967   3.807   6.808   9.714  0.6436  0.1535  0.3560
   48CHL1    H6 5968   3.705   6.845   9.733 -0.1230 -0.6126 -2.0547
   48CHL1    C7 5969   3.837   6.795   9.567  1.2617 -0.3843  0.1278
   48CHL1   H7A 5970   3.742   6.758   9.523  0.1152  0.8393  1.5442
   48CHL1   H7B 5971   3.854   6.894   9.519  1.3558 -0.2432  0.4529
   48CHL1    C8 5972   3.951   6.703   9.532 -1.2484 -0.2021 -0.2428
   48CHL1    H8 5973   3.913   6.598   9.531 -0.8645 -0.3774  1.4846
   48CHL1   C14 5974   4.008   6.719   9.394 -0.1719  0.0091 -0.1023
   48CHL1   H14 5975   4.039   6.826   9.388 -1.9769  0.4364 -3.3932
   48CHL1   C15 5976   3.909   6.714   9.272  0.1648  0.0616 -0.3088
   48CHL1  H15A 5977   3.836   6.631   9.274  0.4466 -0.1648  1.4259
   48CHL1  H15B 5978   3.853   6.810   9.261 -0.8209 -0.3968  0.5344
   48CHL1   C16 5979   4.005   6.708   9.151  0.1376  0.1393 -0.0442
   48CHL1  H16A 5980   3.979   6.620   9.089  1.1765  0.2304 -0.6302
   48CHL1  H16B 5981   3.993   6.804   9.096  1.4177  0.5648  0.3871
   48CHL1   C17 5982   4.148   6.685   9.199  0.6925  0.3567 -0.1868
   48CHL1   H17 5983   4.187   6.787   9.214 -0.7764  0.7118  1.4868
   48CHL1   C13 5984   4.126   6.634   9.345  0.1232 -0.5064  0.1862
   48CHL1   C18 5985   4.084   6.482   9.356  1.3333 -0.5883 -0.2130
   48CHL1  H18A 5986   4.174   6.417   9.345  1.6778 -1.1124  4.5335
   48CHL1  H18B 5987   4.043   6.449   9.454  2.7780 -0.7443  0.3612
   48CHL1  H18C 5988   4.008   6.459   9.278  1.4989  1.1628 -0.9126
   48CHL1   C12 5989   4.243   6.654   9.450  0.1489  0.3582 -0.6591
   48CHL1  H12A 5990   4.320   6.578   9.424 -0.2659 -0.3265  0.0817
   48CHL1  H12B 5991   4.287   6.756   9.451  1.8635 -0.3697 -0.7966
   48CHL1   C11 5992   4.198   6.623   9.593 -1.0698 -0.4634  0.0364
   48CHL1  H11A 5993   4.164   6.518   9.602 -0.0929 -0.8673 -0.8949
   48CHL1  H11B 5994   4.286   6.644   9.657 -0.5269 -0.2530 -0.7770
   48CHL1    C9 5995   4.067   6.710   9.638  0.0880 -0.1658  0.4577
   48CHL1    H9 5996   4.096   6.817   9.634 -3.6844  0.9922  1.5652
   48CHL1   C10 5997   4.015   6.679   9.782 -0.4564  0.2460 -0.7047
   48CHL1   C19 5998   3.977   6.523   9.798 -0.3640  0.7648  0.7621
   48CHL1  H19A 5999   3.936   6.481   9.703  3.8738 -0.8587 -0.4346
   48CHL1  H19B 6000   4.068   6.463   9.821  1.5336  2.0408 -3.0078
   48CHL1  H19C 6001   3.908   6.504   9.883 -0.2957 -0.9187  0.4722
   48CHL1    C1 6002   4.124   6.718   9.895  0.4889 -0.3395  0.7841
   48CHL1   H1A 6003   4.207   6.650   9.865 -2.0044 -2.2053 -2.2840
   48CHL1   H1B 6004   4.142   6.824   9.867 -1.2309 -0.6290 -1.6191
   48CHL1    C2 6005   4.069   6.693  10.033  0.5166  0.0802  0.7171
   48CHL1   H2A 6006   4.150   6.711  10.108  1.0176 -0.0435  0.2127
   48CHL1   H2B 6007   4.045   6.585  10.034 -0.3151  0.2190 -1.6830
   48CHL1   C20 6008   4.238   6.610   9.105 -0.5041 -0.4057 -0.2654
   48CHL1   H20 6009   4.195   6.509   9.090 -0.2594 -0.3594 -1.3059
   48CHL1   C21 6010   4.383   6.590   9.152 -0.9053 -0.2178  0.0523
   48CHL1  H21A 6011   4.443   6.548   9.069 -1.3556  1.7018 -1.2835
   48CHL1  H21B 6012   4.394   6.517   9.236  0.3780  0.8948  0.8687
   48CHL1  H21C 6013   4.427   6.683   9.194 -1.2928 -0.1979  0.4237
   48CHL1   C22 6014   4.240   6.685   8.969 -0.8233 -0.4301  0.0751
   48CHL1  H22A 6015   4.146   6.729   8.929  1.1612  2.4892 -1.5314
   48CHL1  H22B 6016   4.316   6.766   8.971  0.0573 -1.0530 -3.6257
   48CHL1   C23 6017   4.270   6.574   8.860 -0.4702  0.5049 -0.1523
   48CHL1  H23A 6018   4.358   6.512   8.891 -0.8412  0.7165  1.3986
   48CHL1  H23B 6019   4.185   6.502   8.854  0.8186 -1.2643  1.9727
   48CHL1   C24 6020   4.300   6.643   8.720  0.2449  0.7220 -0.6680
   48CHL1  H24A 6021   4.203   6.682   8.683 -0.7843 -0.8770  0.2733
   48CHL1  H24B 6022   4.380   6.719   8.738  1.0190 -0.1565 -0.3290
   48CHL1   C25 6023   4.360   6.541   8.618  0.3663  0.4707  0.2897
   48CHL1   H25 6024   4.446   6.495   8.670  1.5203  2.0572 -0.1731
   48CHL1   C26 6025   4.272   6.422   8.583 -0.2017  0.1924 -0.4720
   48CHL1  H26A 6026   4.189   6.470   8.525  0.9014  1.6935 -0.8583
   48CHL1  H26B 6027   4.330   6.352   8.520 -0.3211  0.3966 -0.8173
   48CHL1  H26C 6028   4.223   6.378   8.672 -1.6585 -2.2701 -2.4410
   48CHL1   C27 6029   4.409   6.618   8.491 -0.7505 -0.0093 -0.6086
   48CHL1  H27A 6030   4.342   6.691   8.441 -1.4917  0.1773  0.6188
   48CHL1  H27B 6031   4.509   6.664   8.509 -0.7195  0.0989 -1.0533
   48CHL1  H27C 6032   4.435   6.537   8.420 -1.2479 -2.2127  1.6622
   49CHL1    C3 6033   2.043   2.794  10.108  0.0661  0.0649 -0.2298
   49CHL1    H3 6034   1.950   2.845  10.075  0.6558  2.0176  1.0785
   49CHL1    O3 6035   2.064   2.811  10.247  0.7126  0.3745  0.5187
   49CHL1   H3' 6036   2.156   2.838  10.257  1.4396 -2.1844  1.2205
   49CHL1    C4 6037   2.034   2.643  10.085 -0.0897 -0.1198  0.6809
   49CHL1   H4A 6038   2.134   2.596  10.098 -0.1084  0.4050  2.9369
   49CHL1   H4B 6039   1.968   2.591  10.157  1.7937 -0.6008  2.1159
   49CHL1    C5 6040   1.985   2.617   9.946 -0.5186 -0.2488 -0.4340
   49CHL1    C6 6041   1.868   2.549   9.927  0.5968 -0.8332 -0.1364
   49CHL1    H6 6042   1.815   2.509  10.014 -0.6397  1.4132  0.1825
   49CHL1    C7 6043   1.815   2.520   9.788 -0.2888  0.6519  0.7342
   49CHL1   H7A 6044   1.785   2.414   9.778  2.7783 -0.1282 -0.7168
   49CHL1   H7B 6045   1.723   2.581   9.777 -2.1619 -1.8885  1.9245
   49CHL1    C8 6046   1.919   2.549   9.675  0.2658 -0.5696  0.0144
   49CHL1    H8 6047   1.987   2.461   9.667  0.3526 -0.2041 -4.0302
   49CHL1   C14 6048   1.839   2.574   9.540 -0.2506 -0.5081 -0.7049
   49CHL1   H14 6049   1.753   2.642   9.555 -0.9532 -1.7079  0.8920
   49CHL1   C15 6050   1.768   2.449   9.476 -0.3075  0.1745 -0.5883
   49CHL1  H15A 6051   1.838   2.364   9.489  1.1246  1.4985  0.7315
   49CHL1  H15B 6052   1.675   2.430   9.534 -0.3915 -0.3598 -0.8963
   49CHL1   C16 6053   1.738   2.495   9.330  0.1910  0.8651  0.2422
   49CHL1  H16A 6054   1.763   2.413   9.259  1.2849  1.8378 -0.5230
   49CHL1  H16B 6055   1.637   2.534   9.305  1.2449  3.1670 -0.6236
   49CHL1   C17 6056   1.828   2.619   9.315  0.6385 -0.5442  0.4410
   49CHL1   H17 6057   1.766   2.704   9.348  1.6480  0.5915 -0.5354
   49CHL1   C13 6058   1.933   2.621   9.427  0.2292  0.1469  0.3689
   49CHL1   C18 6059   2.043   2.519   9.402 -0.0455 -0.4472  0.1338
   49CHL1  H18A 6060   2.097   2.567   9.318 -2.8463  0.6307 -1.1092
   49CHL1  H18B 6061   2.104   2.503   9.494 -1.6635 -2.6437  0.8886
   49CHL1  H18C 6062   2.020   2.417   9.365 -1.0131  0.2622 -1.2316
   49CHL1   C12 6063   1.994   2.760   9.464 -0.2749  0.4518 -0.2345
   49CHL1  H12A 6064   2.051   2.804   9.380  0.4872 -1.1287 -0.5610
   49CHL1  H12B 6065   1.908   2.829   9.483 -0.2893  0.6808 -1.1165
   49CHL1   C11 6066   2.071   2.749   9.590 -0.0557  0.0618  0.4561
   49CHL1  H11A 6067   2.165   2.697   9.562 -0.2823  0.0076 -0.2266
   49CHL1  H11B 6068   2.089   2.857   9.610  2.6113 -0.2607 -0.0796
   49CHL1    C9 6069   1.991   2.683   9.700  0.1254  0.1079 -0.2548
   49CHL1    H9 6070   1.906   2.752   9.717  0.7991  0.9679 -0.3574
   49CHL1   C10 6071   2.068   2.672   9.834  0.6063 -0.6051  0.6008
   49CHL1   C19 6072   2.199   2.587   9.818 -0.5060 -0.4477 -0.3870
   49CHL1  H19A 6073   2.278   2.652   9.775  0.2151  0.4351  2.1707
   49CHL1  H19B 6074   2.245   2.545   9.910 -2.3123  0.1020  0.8092
   49CHL1  H19C 6075   2.174   2.496   9.758 -1.1413 -0.2142 -0.4872
   49CHL1    C1 6076   2.124   2.814   9.875  0.6108  0.1936 -0.5006
   49CHL1   H1A 6077   2.210   2.837   9.809  0.2371  0.1020 -1.0196
   49CHL1   H1B 6078   2.045   2.889   9.854  2.3092  2.2154  0.1046
   49CHL1    C2 6079   2.162   2.851  10.027  0.1102 -0.0146 -0.3823
   49CHL1   H2A 6080   2.164   2.962  10.027 -0.5561  0.0089  1.3751
   49CHL1   H2B 6081   2.257   2.806  10.063 -1.0075 -1.6280  0.6113
   49CHL1   C20 6082   1.885   2.654   9.178 -0.6421  0.0765  0.8022
   49CHL1   H20 6083   1.989   2.693   9.188 -0.0012 -2.1245  3.3166
   49CHL1   C21 6084   1.809   2.777   9.120  0.0441 -0.8550  0.5156
   49CHL1  H21A 6085   1.831   2.858   9.192  1.7627 -0.6380 -0.2275
   49CHL1  H21B 6086   1.699   2.764   9.116 -0.2033  0.7985  1.6443
   49CHL1  H21C 6087   1.858   2.805   9.024 -3.0617 -0.9593 -1.1671
   49CHL1   C22 6088   1.889   2.534   9.073 -0.0538  0.3344  0.0588
   49CHL1  H22A 6089   1.935   2.442   9.115  1.9981  0.6562 -1.4237
   49CHL1  H22B 6090   1.782   2.509   9.054  0.2216  0.4907 -1.6913
   49CHL1   C23 6091   1.944   2.564   8.934  0.2021  0.6601 -1.0045
   49CHL1  H23A 6092   1.882   2.641   8.884 -0.6093  0.0310 -0.9854
   49CHL1  H23B 6093   2.050   2.595   8.926  0.2493  0.4284 -1.2870
   49CHL1   C24 6094   1.945   2.437   8.845 -0.4406  1.3848 -0.2448
   49CHL1  H24A 6095   2.009   2.362   8.896 -0.4138  0.8652 -1.0298
   49CHL1  H24B 6096   1.847   2.385   8.852  0.3354 -0.1529 -0.5640
   49CHL1   C25 6097   1.979   2.466   8.699  0.4829 -0.3159  1.0374
   49CHL1   H25 6098   1.902   2.538   8.664  0.3731 -0.3530  1.2025
   49CHL1   C26 6099   2.122   2.515   8.675  0.0247 -0.0727  0.3424
   49CHL1  H26A 6100   2.197   2.439   8.706 -0.2706  0.7843  3.3889
   49CHL1  H26B 6101   2.139   2.523   8.566 -2.0286  1.8340  0.1465
   49CHL1  H26C 6102   2.146   2.614   8.719 -0.1004 -0.6782  1.8210
   49CHL1   C27 6103   1.967   2.341   8.610  0.0456  0.1066  0.5500
   49CHL1  H27A 6104   1.865   2.299   8.618 -1.6292  3.7132 -1.0860
   49CHL1  H27B 6105   1.980   2.363   8.502 -0.2459  3.1585  1.1170
   49CHL1  H27C 6106   2.045   2.271   8.649 -0.0462 -0.1818  0.2270
   50CHL1    C3 6107   5.325   4.263  10.150 -1.1266  0.1392  0.1173
   50CHL1    H3 6108   5.365   4.160  10.141 -1.8291  0.0642 -2.5002
   50CHL1    O3 6109   5.328   4.296  10.286 -0.2170 -0.2570 -0.4390
   50CHL1   H3' 6110   5.256   4.250  10.330  0.2905 -0.5996  0.0365
   50CHL1    C4 6111   5.419   4.360  10.072  0.5918  0.5002  0.1145
   50CHL1   H4A 6112   5.390   4.466  10.093 -1.1433  0.2073 -0.6814
   50CHL1   H4B 6113   5.522   4.361  10.115  0.2772  0.0604  0.8919
   50CHL1    C5 6114   5.413   4.331   9.923 -0.3015 -0.5180  0.6920
   50CHL1    C6 6115   5.524   4.294   9.852  1.4525 -0.3014  0.1939
   50CHL1    H6 6116   5.628   4.303   9.888  1.0153  0.4477  1.2858
   50CHL1    C7 6117   5.522   4.269   9.705 -0.1996 -0.1916  0.0042
   50CHL1   H7A 6118   5.597   4.337   9.660  0.9734 -0.9111  0.8548
   50CHL1   H7B 6119   5.548   4.163   9.686 -1.1724 -0.2376 -1.0869
   50CHL1    C8 6120   5.391   4.297   9.629 -0.4140 -0.4035 -0.4269
   50CHL1    H8 6121   5.388   4.408   9.626 -1.5012 -0.3669  1.2686
   50CHL1   C14 6122   5.378   4.239   9.493 -0.5370  0.3034  0.5503
   50CHL1   H14 6123   5.392   4.130   9.505  0.2718  0.3155 -0.2132
   50CHL1   C15 6124   5.493   4.260   9.398  0.0364  0.2066  1.0755
   50CHL1  H15A 6125   5.525   4.366   9.388 -0.3330  0.2196 -0.0101
   50CHL1  H15B 6126   5.575   4.187   9.418 -1.1778 -1.5015 -0.0661
   50CHL1   C16 6127   5.428   4.231   9.254  0.3583  0.9923  0.9345
   50CHL1  H16A 6128   5.413   4.325   9.196  0.6141  1.1175  1.0693
   50CHL1  H16B 6129   5.483   4.146   9.209  2.3996  1.4775  2.4749
   50CHL1   C17 6130   5.280   4.184   9.288 -0.6656  0.6706  0.0547
   50CHL1   H17 6131   5.282   4.074   9.303  0.2271  0.3884 -1.9435
   50CHL1   C13 6132   5.245   4.249   9.418 -1.1282  0.7454 -0.2794
   50CHL1   C18 6133   5.227   4.398   9.404  0.7924  0.1636  0.5233
   50CHL1  H18A 6134   5.212   4.446   9.503  0.0078  2.7572 -0.8080
   50CHL1  H18B 6135   5.316   4.453   9.367  1.6359 -1.3504  0.2622
   50CHL1  H18C 6136   5.137   4.425   9.344 -0.6616 -0.9754  2.1605
   50CHL1   C12 6137   5.139   4.188   9.510  0.1068 -0.0741 -0.0466
   50CHL1  H12A 6138   5.039   4.213   9.469  0.3937 -1.0964 -1.4085
   50CHL1  H12B 6139   5.157   4.078   9.519  1.9273  0.3315  1.5718
   50CHL1   C11 6140   5.141   4.255   9.657 -0.0530 -0.1969  0.4184
   50CHL1  H11A 6141   5.102   4.358   9.644  0.8296 -0.1077 -1.8301
   50CHL1  H11B 6142   5.063   4.204   9.717 -1.0984  1.1778  0.2476
   50CHL1    C9 6143   5.273   4.250   9.719 -0.1044 -0.0281 -0.1109
   50CHL1    H9 6144   5.294   4.143   9.739  1.7338 -0.2731 -3.0115
   50CHL1   C10 6145   5.277   4.324   9.857 -0.1877  0.1959 -0.4135
   50CHL1   C19 6146   5.227   4.463   9.842  0.0764  0.2672 -0.3446
   50CHL1  H19A 6147   5.279   4.508   9.754  1.8246 -0.9469  0.0479
   50CHL1  H19B 6148   5.119   4.461   9.816 -0.1665  1.7520  0.5308
   50CHL1  H19C 6149   5.244   4.525   9.932  1.2325 -0.5046 -0.0187
   50CHL1    C1 6150   5.183   4.231   9.946  0.1813  0.1611  0.0298
   50CHL1   H1A 6151   5.076   4.237   9.918 -0.3598 -1.3041  1.7280
   50CHL1   H1B 6152   5.203   4.122   9.946  0.3884  0.2006 -0.1284
   50CHL1    C2 6153   5.184   4.268  10.095 -0.2398 -0.0214  0.3010
   50CHL1   H2A 6154   5.128   4.204  10.167 -0.3614  0.3572  0.5480
   50CHL1   H2B 6155   5.152   4.375  10.098  0.3233  0.2024 -1.4027
   50CHL1   C20 6156   5.191   4.213   9.162 -0.3964  0.3046 -0.0329
   50CHL1   H20 6157   5.181   4.322   9.138  0.8543  0.6240  0.8610
   50CHL1   C21 6158   5.055   4.153   9.195 -0.4959 -0.0540 -0.0762
   50CHL1  H21A 6159   4.995   4.136   9.104  0.3569 -0.5566 -0.5513
   50CHL1  H21B 6160   5.003   4.233   9.252  0.0559 -0.8877  1.6187
   50CHL1  H21C 6161   5.074   4.053   9.240 -2.6980 -0.1814  0.6257
   50CHL1   C22 6162   5.237   4.144   9.034  0.1446 -0.6050 -0.5486
   50CHL1  H22A 6163   5.346   4.156   9.016  0.7770 -1.3071  2.5933
   50CHL1  H22B 6164   5.228   4.034   9.042  0.7918 -0.5042  2.2293
   50CHL1   C23 6165   5.171   4.184   8.896  0.0253 -0.2688  0.7438
   50CHL1  H23A 6166   5.060   4.175   8.898  0.0287 -0.8245 -0.7211
   50CHL1  H23B 6167   5.198   4.288   8.868  4.0210 -1.3451  0.3511
   50CHL1   C24 6168   5.239   4.104   8.779 -0.5209  0.1956  0.1108
   50CHL1  H24A 6169   5.216   4.142   8.677  1.5413 -3.4255 -1.8191
   50CHL1  H24B 6170   5.349   4.113   8.776 -0.5192  0.1279 -0.0401
   50CHL1   C25 6171   5.190   3.957   8.777  0.1578  0.1166  0.0073
   50CHL1   H25 6172   5.194   3.925   8.883 -0.6922 -0.1578 -0.0384
   50CHL1   C26 6173   5.044   3.947   8.726 -0.5537  0.4470  0.2575
   50CHL1  H26A 6174   5.001   3.845   8.735 -2.9856  1.3168 -0.9222
   50CHL1  H26B 6175   4.984   4.018   8.787 -0.7715  0.9925 -0.5892
   50CHL1  H26C 6176   5.049   3.991   8.624 -2.3844 -0.5035 -0.2604
   50CHL1   C27 6177   5.291   3.879   8.695  0.0853 -0.5125 -0.2171
   50CHL1  H27A 6178   5.265   3.771   8.695 -2.1527 -0.0083 -0.0059
   50CHL1  H27B 6179   5.311   3.908   8.590 -1.4660 -0.7849 -0.6057
   50CHL1  H27C 6180   5.392   3.871   8.741 -0.2382 -2.8705  0.1633
   51CHL1    C3 6181   6.544   0.179  10.258 -0.2304  0.2274  0.5666
   51CHL1    H3 6182   6.493   0.097  10.204 -0.6111  1.6550 -1.2914
   51CHL1    O3 6183   6.563   0.139  10.393  1.0505 -0.2400  0.3402
   51CHL1   H3' 6184   6.609   0.212  10.434 -0.0344 -0.0432  1.2028
   51CHL1    C4 6185   6.677   0.191  10.197  0.1709 -0.8272 -0.6307
   51CHL1   H4A 6186   6.725   0.277  10.251 -0.6793 -0.2596 -0.7691
   51CHL1   H4B 6187   6.731   0.097  10.222  1.7581 -0.0825 -1.1873
   51CHL1    C5 6188   6.673   0.233  10.050 -0.1504  0.1335  0.2901
   51CHL1    C6 6189   6.733   0.170   9.948  0.4558  0.6698  0.0260
   51CHL1    H6 6190   6.789   0.078   9.971 -0.5093  0.6527  2.4864
   51CHL1    C7 6191   6.722   0.205   9.801 -0.2763  0.2661  0.2437
   51CHL1   H7A 6192   6.825   0.198   9.759  0.6866  1.5199  2.3058
   51CHL1   H7B 6193   6.672   0.133   9.733 -1.1391  0.8140  0.2903
   51CHL1    C8 6194   6.665   0.349   9.788  0.0447 -0.3427  0.4556
   51CHL1    H8 6195   6.742   0.420   9.822 -0.8556  0.8234  0.1083
   51CHL1   C14 6196   6.622   0.370   9.643 -0.0445  0.1142 -0.3014
   51CHL1   H14 6197   6.538   0.303   9.616  0.4263 -0.3187 -0.7244
   51CHL1   C15 6198   6.723   0.343   9.531  0.4290  0.0392  0.2306
   51CHL1  H15A 6199   6.819   0.388   9.564  0.2158  2.0029 -1.6866
   51CHL1  H15B 6200   6.725   0.235   9.507  2.3135 -0.0690  0.8574
   51CHL1   C16 6201   6.666   0.414   9.412 -0.0800  0.7566  0.0463
   51CHL1  H16A 6202   6.746   0.479   9.369 -0.6698  1.7224  0.3859
   51CHL1  H16B 6203   6.639   0.340   9.333 -0.6980  1.3532 -0.3111
   51CHL1   C17 6204   6.543   0.490   9.457 -0.3669 -0.0238  0.9369
   51CHL1   H17 6205   6.461   0.416   9.446 -0.0906 -0.3102  0.8042
   51CHL1   C13 6206   6.566   0.509   9.610 -0.0209  0.1447  0.4191
   51CHL1   C18 6207   6.663   0.630   9.622  0.2196 -0.3346 -0.5372
   51CHL1  H18A 6208   6.716   0.628   9.719  0.3126  0.9263 -0.5491
   51CHL1  H18B 6209   6.751   0.632   9.554 -0.2583 -0.7065 -1.1716
   51CHL1  H18C 6210   6.600   0.719   9.600  0.9767  0.5583  0.8510
   51CHL1   C12 6211   6.444   0.528   9.691 -0.0862  0.3337 -0.2047
   51CHL1  H12A 6212   6.406   0.630   9.669 -0.3670  0.0684 -0.9831
   51CHL1  H12B 6213   6.368   0.455   9.657  0.9374  0.1403 -2.1875
   51CHL1   C11 6214   6.473   0.507   9.838 -0.0777 -0.9539 -0.7469
   51CHL1  H11A 6215   6.543   0.590   9.859 -0.1993 -1.0494  0.0313
   51CHL1  H11B 6216   6.377   0.526   9.891  0.1926 -1.4602 -0.0655
   51CHL1    C9 6217   6.547   0.376   9.881 -0.3193  0.3325 -0.1548
   51CHL1    H9 6218   6.475   0.296   9.858 -0.6421  1.0973 -1.8607
   51CHL1   C10 6219   6.581   0.360  10.035 -0.2695  0.0497  0.0797
   51CHL1   C19 6220   6.669   0.489  10.075 -0.0198 -0.4499 -0.4907
   51CHL1  H19A 6221   6.704   0.483  10.181 -2.9353  0.8793  0.6148
   51CHL1  H19B 6222   6.759   0.509  10.014 -0.0543 -0.4572 -0.5433
   51CHL1  H19C 6223   6.619   0.585  10.050 -2.0240 -1.4103 -0.2422
   51CHL1    C1 6224   6.445   0.342  10.110 -0.2556 -0.0824 -0.4167
   51CHL1   H1A 6225   6.381   0.431  10.091  0.6649  0.6255 -0.1869
   51CHL1   H1B 6226   6.393   0.258  10.058 -0.1698  0.8069 -1.9569
   51CHL1    C2 6227   6.459   0.306  10.258 -0.3582 -0.7189  0.3993
   51CHL1   H2A 6228   6.362   0.284  10.309 -1.0126  2.7751  0.7667
   51CHL1   H2B 6229   6.506   0.396  10.301 -2.4684  0.6382 -0.0565
   51CHL1   C20 6230   6.512   0.610   9.359 -0.3253  1.2057  0.3563
   51CHL1   H20 6231   6.588   0.691   9.355  2.6840 -1.5221 -0.0964
   51CHL1   C21 6232   6.374   0.669   9.401 -0.4234 -0.0163 -0.0102
   51CHL1  H21A 6233   6.387   0.737   9.488 -2.5801 -0.0704  0.3823
   51CHL1  H21B 6234   6.306   0.584   9.420 -2.3399  1.9313  2.0958
   51CHL1  H21C 6235   6.324   0.729   9.322  1.0977  0.4442 -0.6594
   51CHL1   C22 6236   6.498   0.557   9.209  0.5178 -0.8222 -0.8091
   51CHL1  H22A 6237   6.601   0.532   9.174  1.5991  1.3545  0.7214
   51CHL1  H22B 6238   6.449   0.457   9.206 -1.6207  0.1597  0.5210
   51CHL1   C23 6239   6.434   0.656   9.109  0.3811 -0.5492 -0.6372
   51CHL1  H23A 6240   6.327   0.679   9.130  0.7897  0.2293  0.5850
   51CHL1  H23B 6241   6.488   0.752   9.108  1.4855 -1.1662 -0.6444
   51CHL1   C24 6242   6.445   0.612   8.962 -0.2278 -0.0091  0.6438
   51CHL1  H24A 6243   6.552   0.611   8.930  0.9699 -0.3819  4.3796
   51CHL1  H24B 6244   6.397   0.513   8.947 -0.2442 -0.0060  0.6735
   51CHL1   C25 6245   6.380   0.709   8.860  0.1972  0.6682 -0.9288
   51CHL1   H25 6246   6.421   0.812   8.869 -2.0193  1.5982 -0.9993
   51CHL1   C26 6247   6.401   0.652   8.718  0.6371  0.1360 -0.5666
   51CHL1  H26A 6248   6.342   0.720   8.653 -1.1537 -1.8063 -1.0210
   51CHL1  H26B 6249   6.508   0.663   8.688  0.9807 -2.5375 -0.4173
   51CHL1  H26C 6250   6.362   0.548   8.711  0.6793  0.0676  0.1649
   51CHL1   C27 6251   6.233   0.725   8.889  0.0008  0.0286  0.3932
   51CHL1  H27A 6252   6.194   0.623   8.911 -1.6453  0.6115  0.2722
   51CHL1  H27B 6253   6.227   0.801   8.971  0.4722  0.1097  0.3520
   51CHL1  H27C 6254   6.178   0.770   8.804  2.6540 -1.3158 -2.0756
   52CHL1    C3 6255   3.629   6.019  10.075 -0.0657 -0.5172 -0.2885
   52CHL1    H3 6256   3.701   5.935  10.083  0.7053 -0.0070 -1.7061
   52CHL1    O3 6257   3.600   6.055  10.208  0.2996  0.0301  0.1280
   52CHL1   H3' 6258   3.504   6.047  10.214  0.0920  1.8289 -0.4649
   52CHL1    C4 6259   3.704   6.142  10.011  0.2464  0.1712 -0.2317
   52CHL1   H4A 6260   3.635   6.226  10.036 -1.1931 -0.8626 -0.6698
   52CHL1   H4B 6261   3.794   6.168  10.071 -0.4884  0.8177  0.6137
   52CHL1    C5 6262   3.729   6.101   9.863 -0.2640  0.3942 -0.1087
   52CHL1    C6 6263   3.849   6.091   9.812 -0.0586 -0.0440  0.2839
   52CHL1    H6 6264   3.939   6.115   9.869 -0.2721 -0.0952  0.6425
   52CHL1    C7 6265   3.871   6.052   9.665  0.1070  0.5087 -0.4008
   52CHL1   H7A 6266   3.964   6.105   9.637  0.3193 -0.0430 -0.7533
   52CHL1   H7B 6267   3.897   5.945   9.652 -0.8950  0.2697 -0.4898
   52CHL1    C8 6268   3.750   6.073   9.572  0.7249 -0.4704  0.3279
   52CHL1    H8 6269   3.749   6.182   9.546  0.0118 -0.4537  0.4073
   52CHL1   C14 6270   3.772   6.013   9.428  0.8939 -0.6789  0.3886
   52CHL1   H14 6271   3.789   5.905   9.447  0.5687 -0.4024  2.2946
   52CHL1   C15 6272   3.898   6.061   9.349 -0.0451  0.9417 -0.6050
   52CHL1  H15A 6273   3.896   6.171   9.358 -0.6532  0.7861  1.3790
   52CHL1  H15B 6274   3.990   6.013   9.389 -0.8472 -0.5932 -0.5586
   52CHL1   C16 6275   3.869   6.010   9.211 -0.2687  0.1339 -0.6086
   52CHL1  H16A 6276   3.896   6.088   9.137 -0.3707  0.5239 -0.2383
   52CHL1  H16B 6277   3.946   5.931   9.217 -0.0316  0.2408 -2.0223
   52CHL1   C17 6278   3.724   5.956   9.209 -0.2162 -0.1201  0.2890
   52CHL1   H17 6279   3.729   5.847   9.232 -0.3862  0.2691  2.1898
   52CHL1   C13 6280   3.658   6.025   9.328  0.4389  0.2657  0.4018
   52CHL1   C18 6281   3.634   6.168   9.287  0.0585 -0.3370  0.6322
   52CHL1  H18A 6282   3.711   6.213   9.221  2.2136 -0.1190  3.2278
   52CHL1  H18B 6283   3.537   6.183   9.234  2.6937  0.2750 -4.3124
   52CHL1  H18C 6284   3.615   6.225   9.380 -0.0827 -0.5664  0.7489
   52CHL1   C12 6285   3.528   5.969   9.395  0.3099  0.3955 -0.6782
   52CHL1  H12A 6286   3.436   5.993   9.338  0.3892 -1.5978 -1.6572
   52CHL1  H12B 6287   3.537   5.859   9.408 -0.3238  0.3693 -0.4462
   52CHL1   C11 6288   3.506   6.025   9.544 -0.3474 -0.0839  0.3554
   52CHL1  H11A 6289   3.481   6.134   9.543 -1.7057 -0.3869  0.1953
   52CHL1  H11B 6290   3.430   5.969   9.601 -1.6260  0.8212 -0.4216
   52CHL1    C9 6291   3.630   6.010   9.638  0.0459  0.5320  0.2661
   52CHL1    H9 6292   3.654   5.901   9.645 -0.1800  0.3891 -1.2005
   52CHL1   C10 6293   3.608   6.055   9.781 -0.5690  1.5121 -1.0196
   52CHL1   C19 6294   3.512   6.180   9.801 -0.3924 -0.8972  0.0028
   52CHL1  H19A 6295   3.558   6.263   9.743  0.8910 -2.1773 -0.8394
   52CHL1  H19B 6296   3.416   6.152   9.752  0.1429 -0.6724 -1.1856
   52CHL1  H19C 6297   3.485   6.226   9.898  2.3077 -0.5972  0.6408
   52CHL1    C1 6298   3.543   5.931   9.861  0.2888 -0.0823  0.7018
   52CHL1   H1A 6299   3.459   5.882   9.809 -0.4763  1.7789  0.1622
   52CHL1   H1B 6300   3.624   5.855   9.859  0.2989 -0.1135  1.8226
   52CHL1    C2 6301   3.505   5.968  10.006 -0.1125  0.4012  0.6655
   52CHL1   H2A 6302   3.464   5.873  10.045 -0.4826  0.5114  0.5430
   52CHL1   H2B 6303   3.419   6.038  10.006 -1.5565 -1.3438  1.1288
   52CHL1   C20 6304   3.658   5.969   9.070  0.3461  0.0077 -0.4083
   52CHL1   H20 6305   3.619   6.070   9.046  2.4501  1.3336  1.6090
   52CHL1   C21 6306   3.525   5.884   9.079  0.5287  0.8562 -0.0679
   52CHL1  H21A 6307   3.475   5.895   8.980 -0.2898 -1.4906  0.0544
   52CHL1  H21B 6308   3.451   5.913   9.156  0.7958  0.4883  0.3284
   52CHL1  H21C 6309   3.528   5.774   9.092 -2.6783  0.6757 -0.3767
   52CHL1   C22 6310   3.752   5.907   8.963  0.0362  0.2837 -0.0450
   52CHL1  H22A 6311   3.834   5.981   8.946 -1.6909  2.2067 -0.1426
   52CHL1  H22B 6312   3.803   5.814   8.996  2.2859  1.4277 -0.2015
   52CHL1   C23 6313   3.686   5.880   8.821 -0.8040  0.0852  0.1996
   52CHL1  H23A 6314   3.613   5.797   8.826 -1.2381  0.3436 -1.4430
   52CHL1  H23B 6315   3.642   5.974   8.782 -0.8652 -0.1806 -0.3747
   52CHL1   C24 6316   3.797   5.839   8.728 -0.5994 -0.2958 -0.4997
   52CHL1  H24A 6317   3.869   5.924   8.724 -2.5881  1.4552  0.2786
   52CHL1  H24B 6318   3.846   5.759   8.787 -0.8120  0.6996  1.0606
   52CHL1   C25 6319   3.772   5.797   8.579 -0.0825 -0.2884  0.1315
   52CHL1   H25 6320   3.738   5.884   8.518 -2.7384 -2.2467 -1.2607
   52CHL1   C26 6321   3.901   5.746   8.511  0.8784 -0.3610  0.1666
   52CHL1  H26A 6322   3.868   5.713   8.410  3.0400  0.0213 -0.7137
   52CHL1  H26B 6323   3.986   5.818   8.508  0.5748 -0.0352 -1.2486
   52CHL1  H26C 6324   3.933   5.653   8.562  0.5240  0.3238  1.6431
   52CHL1   C27 6325   3.670   5.681   8.565  0.0901  0.5537  0.2642
   52CHL1  H27A 6326   3.658   5.645   8.460  0.8591 -0.3282  0.4740
   52CHL1  H27B 6327   3.703   5.587   8.616  0.5613 -0.8456 -2.5246
   52CHL1  H27C 6328   3.573   5.708   8.612 -1.6349  0.5791 -3.1574
   53CHL1    C3 6329   4.113   5.066  10.017  0.4518  0.1262 -0.5266
   53CHL1    H3 6330   4.127   4.959   9.993 -0.9244 -0.5323  1.5042
   53CHL1    O3 6331   4.064   5.083  10.147  0.5722  0.0094 -0.0060
   53CHL1   H3' 6332   4.134   5.046  10.202 -1.5428  0.4780  3.1512
   53CHL1    C4 6333   4.251   5.155  10.003 -0.5659 -0.3516 -0.1304
   53CHL1   H4A 6334   4.224   5.258  10.034  0.1412 -0.0948 -0.3424
   53CHL1   H4B 6335   4.323   5.108  10.073  0.1857  0.0464 -0.6282
   53CHL1    C5 6336   4.297   5.149   9.857 -0.3639 -0.3772 -0.0326
   53CHL1    C6 6337   4.409   5.090   9.825  0.6602 -0.0644  0.0236
   53CHL1    H6 6338   4.461   5.059   9.917  1.1837 -0.8651 -0.5405
   53CHL1    C7 6339   4.463   5.090   9.687 -0.0666  0.6308 -0.5654
   53CHL1   H7A 6340   4.565   5.130   9.705  0.4415 -0.7667 -0.3020
   53CHL1   H7B 6341   4.453   4.988   9.643 -1.2425  1.2440 -1.7795
   53CHL1    C8 6342   4.383   5.187   9.589  0.6908  0.1323 -0.4330
   53CHL1    H8 6343   4.419   5.290   9.610  1.0142 -0.4619  1.9944
   53CHL1   C14 6344   4.419   5.146   9.445 -0.2719  0.4631 -0.1609
   53CHL1   H14 6345   4.387   5.041   9.428 -0.9448  0.4045  1.3867
   53CHL1   C15 6346   4.572   5.145   9.406  0.2812  0.1240  0.5897
   53CHL1  H15A 6347   4.627   5.233   9.444  2.5032 -0.3352 -1.4319
   53CHL1  H15B 6348   4.613   5.048   9.443 -2.5458 -1.1066  0.6392
   53CHL1   C16 6349   4.571   5.154   9.249  0.3482  0.8626  0.3140
   53CHL1  H16A 6350   4.639   5.234   9.215  0.9797 -0.2311 -1.0364
   53CHL1  H16B 6351   4.601   5.055   9.209 -0.2224  1.2961 -1.2234
   53CHL1   C17 6352   4.425   5.177   9.201  0.3174 -0.7925 -0.3108
   53CHL1   H17 6353   4.376   5.082   9.172 -0.4382 -0.9342  1.4177
   53CHL1   C13 6354   4.358   5.231   9.336  0.3071  0.1130  0.5651
   53CHL1   C18 6355   4.399   5.383   9.356 -0.7037  0.1770 -0.3874
   53CHL1  H18A 6356   4.357   5.444   9.274 -0.7643 -1.3906 -1.5360
   53CHL1  H18B 6357   4.355   5.421   9.451 -0.1390 -1.8555  0.7378
   53CHL1  H18C 6358   4.510   5.394   9.361 -0.9132  1.5210  2.3456
   53CHL1   C12 6359   4.207   5.217   9.361  0.1071  0.0205  0.0719
   53CHL1  H12A 6360   4.147   5.285   9.296  1.7321  1.3884 -0.0171
   53CHL1  H12B 6361   4.174   5.113   9.343  0.5783  0.3025 -2.5127
   53CHL1   C11 6362   4.157   5.255   9.499  0.0972  0.6482 -0.4040
   53CHL1  H11A 6363   4.162   5.365   9.513  1.8633  0.7715 -1.8280
   53CHL1  H11B 6364   4.051   5.222   9.503 -0.5633  2.8592  1.3990
   53CHL1    C9 6365   4.236   5.184   9.613  0.0330 -0.2494 -0.3119
   53CHL1    H9 6366   4.195   5.081   9.597 -1.0956  0.6941 -4.1967
   53CHL1   C10 6367   4.198   5.208   9.755 -0.0536 -0.3542 -0.5949
   53CHL1   C19 6368   4.192   5.358   9.774  0.1733 -0.2245 -0.3345
   53CHL1  H19A 6369   4.288   5.406   9.746  0.0090  1.5524  1.9620
   53CHL1  H19B 6370   4.117   5.407   9.708 -0.4110  0.5454  0.8849
   53CHL1  H19C 6371   4.164   5.387   9.878 -0.2021  1.8511 -0.9969
   53CHL1    C1 6372   4.058   5.139   9.778  0.4254  0.3239 -0.2778
   53CHL1   H1A 6373   3.987   5.205   9.725 -0.0494  0.2161  0.2128
   53CHL1   H1B 6374   4.065   5.036   9.737  1.0043 -0.5206  1.8433
   53CHL1    C2 6375   4.010   5.137   9.926  0.4919  0.0943 -1.0487
   53CHL1   H2A 6376   3.914   5.082   9.934 -0.6049  2.1901  0.9394
   53CHL1   H2B 6377   3.996   5.239   9.969 -1.6126 -0.1014 -1.2082
   53CHL1   C20 6378   4.421   5.271   9.074 -0.1094  0.0499 -0.9122
   53CHL1   H20 6379   4.464   5.367   9.110 -0.0302 -0.2503 -0.1819
   53CHL1   C21 6380   4.276   5.311   9.033  0.0410 -0.3567 -0.2228
   53CHL1  H21A 6381   4.231   5.214   9.002 -0.4356 -0.7546  1.6652
   53CHL1  H21B 6382   4.270   5.366   8.936  1.6412  0.1622 -0.0284
   53CHL1  H21C 6383   4.221   5.365   9.112  0.8499  0.2253 -0.0580
   53CHL1   C22 6384   4.509   5.225   8.958  0.1057  0.0429 -0.1598
   53CHL1  H22A 6385   4.601   5.175   8.996  0.2821 -0.1190 -0.7985
   53CHL1  H22B 6386   4.454   5.150   8.897 -0.6793  0.5468 -0.0726
   53CHL1   C23 6387   4.558   5.341   8.868  0.6605  0.4955 -0.1956
   53CHL1  H23A 6388   4.466   5.382   8.821  1.0480  0.0027 -1.3931
   53CHL1  H23B 6389   4.597   5.419   8.938 -0.4930  0.3474  0.6375
   53CHL1   C24 6390   4.665   5.299   8.774  0.5076 -0.3225  1.1856
   53CHL1  H24A 6391   4.706   5.387   8.719  1.8634 -0.5833  1.7532
   53CHL1  H24B 6392   4.748   5.260   8.836  1.0490  0.0540  0.7043
   53CHL1   C25 6393   4.626   5.187   8.669 -0.1879  0.4784 -0.2262
   53CHL1   H25 6394   4.604   5.090   8.719 -0.5009  1.1731  1.0307
   53CHL1   C26 6395   4.506   5.231   8.580 -0.5282 -0.1932  0.0254
   53CHL1  H26A 6396   4.495   5.153   8.501 -0.9606 -1.6183  1.4695
   53CHL1  H26B 6397   4.406   5.247   8.626 -0.2188 -0.7940  0.9098
   53CHL1  H26C 6398   4.526   5.330   8.532  2.3410  0.2741  2.1105
   53CHL1   C27 6399   4.741   5.164   8.567  0.2919  0.4540 -0.6953
   53CHL1  H27A 6400   4.711   5.105   8.478  1.1844 -0.0690 -0.6573
   53CHL1  H27B 6401   4.788   5.258   8.532  0.5461  0.9309  0.9077
   53CHL1  H27C 6402   4.815   5.105   8.625 -0.8187  0.6721  0.9524
   54CHL1    C3 6403   4.348   6.255  10.227 -0.4586 -0.4828 -0.0046
   54CHL1    H3 6404   4.289   6.160  10.229 -0.0641 -0.7205  0.6809
   54CHL1    O3 6405   4.353   6.329  10.350  1.2546 -0.3608 -0.4875
   54CHL1   H3' 6406   4.339   6.420  10.325  0.0776 -0.3192  0.3098
   54CHL1    C4 6407   4.494   6.237  10.179 -0.4784  0.1460 -1.0058
   54CHL1   H4A 6408   4.535   6.339  10.195  0.0580 -0.1374 -0.5511
   54CHL1   H4B 6409   4.544   6.176  10.257 -2.0382 -0.1785 -0.2386
   54CHL1    C5 6410   4.499   6.184  10.033 -0.0462 -0.0886  0.1281
   54CHL1    C6 6411   4.550   6.065   9.998 -0.4046  0.2831  0.1319
   54CHL1    H6 6412   4.598   5.993  10.066  0.1427  0.7051  0.1965
   54CHL1    C7 6413   4.569   6.030   9.859 -0.2145  0.0183  0.3068
   54CHL1   H7A 6414   4.672   5.989   9.849 -0.6829 -0.9351 -0.6029
   54CHL1   H7B 6415   4.486   5.961   9.833 -2.2265  2.2600  0.6236
   54CHL1    C8 6416   4.559   6.144   9.754 -0.0137  0.6923 -0.5264
   54CHL1    H8 6417   4.656   6.198   9.749 -0.2996  1.0756 -3.1621
   54CHL1   C14 6418   4.532   6.098   9.604 -0.0649 -0.1561 -0.3320
   54CHL1   H14 6419   4.432   6.051   9.600 -0.5976  0.9614 -0.2234
   54CHL1   C15 6420   4.627   5.996   9.538 -0.2676  0.4063 -0.2470
   54CHL1  H15A 6421   4.733   6.024   9.557 -0.6098  1.6697 -0.1787
   54CHL1  H15B 6422   4.609   5.897   9.587  2.7582 -0.0619  0.0124
   54CHL1   C16 6423   4.590   5.993   9.382 -0.9348  0.2025  0.0396
   54CHL1  H16A 6424   4.685   5.978   9.328 -1.5808 -1.3131 -0.6997
   54CHL1  H16B 6425   4.530   5.901   9.366 -0.0087 -0.3537 -0.2767
   54CHL1   C17 6426   4.506   6.122   9.366  0.0248  0.2723  0.0024
   54CHL1   H17 6427   4.399   6.091   9.368  0.0640  0.1283 -0.1303
   54CHL1   C13 6428   4.525   6.210   9.497  0.2963 -0.8638 -0.2314
   54CHL1   C18 6429   4.658   6.295   9.480 -0.4642  0.6319 -0.2684
   54CHL1  H18A 6430   4.672   6.350   9.575  2.3635 -1.1905  0.4298
   54CHL1  H18B 6431   4.744   6.227   9.460 -0.8776  0.3826 -1.2216
   54CHL1  H18C 6432   4.644   6.370   9.399  1.5941 -0.9675 -2.1870
   54CHL1   C12 6433   4.406   6.296   9.532 -0.2342  0.6682 -0.9208
   54CHL1  H12A 6434   4.412   6.376   9.455  0.4274  0.3642 -1.1849
   54CHL1  H12B 6435   4.314   6.235   9.521  0.4553 -0.6091  0.2142
   54CHL1   C11 6436   4.413   6.353   9.676 -0.3303 -0.3149 -0.3295
   54CHL1  H11A 6437   4.499   6.421   9.687 -0.2402 -0.6204  0.8653
   54CHL1  H11B 6438   4.317   6.401   9.706  0.9648  2.8774 -1.0917
   54CHL1    C9 6439   4.438   6.239   9.785  0.4582 -0.4820  0.0356
   54CHL1    H9 6440   4.350   6.171   9.780  1.6758 -2.2630  1.9662
   54CHL1   C10 6441   4.437   6.282   9.933  0.3937 -0.5861 -1.0382
   54CHL1   C19 6442   4.508   6.422   9.936  0.4968 -0.8959  0.3375
   54CHL1  H19A 6443   4.520   6.466  10.037  1.3136 -0.4030  0.0273
   54CHL1  H19B 6444   4.606   6.404   9.888  0.5154 -2.1548  0.8255
   54CHL1  H19C 6445   4.446   6.497   9.883 -0.9651 -2.0109  0.4106
   54CHL1    C1 6446   4.285   6.287   9.978 -0.2078 -0.1980  0.2188
   54CHL1   H1A 6447   4.232   6.356   9.909  1.4537  1.7656  0.8471
   54CHL1   H1B 6448   4.239   6.185   9.981 -1.2271  0.2264 -0.6545
   54CHL1    C2 6449   4.275   6.343  10.115  0.5280  0.2342 -0.9297
   54CHL1   H2A 6450   4.171   6.348  10.153  0.1309 -0.4393 -1.9056
   54CHL1   H2B 6451   4.322   6.443  10.122  1.9679 -0.4761 -0.1762
   54CHL1   C20 6452   4.509   6.192   9.225  0.5589  0.4390 -0.7719
   54CHL1   H20 6453   4.469   6.296   9.221  0.6499  0.4933 -0.3137
   54CHL1   C21 6454   4.411   6.104   9.137  0.2101  0.1238  0.4180
   54CHL1  H21A 6455   4.430   5.995   9.151  1.1815  0.2079 -0.1685
   54CHL1  H21B 6456   4.431   6.130   9.031 -0.5275 -0.1478  0.2115
   54CHL1  H21C 6457   4.306   6.133   9.153 -0.1097 -1.5231  1.5067
   54CHL1   C22 6458   4.651   6.191   9.163  0.0524  0.7153  0.0676
   54CHL1  H22A 6459   4.723   6.198   9.248 -0.1016 -1.8814  0.4535
   54CHL1  H22B 6460   4.673   6.091   9.120  0.2648  0.5063  0.6519
   54CHL1   C23 6461   4.661   6.309   9.058  0.4075 -0.3475 -0.5659
   54CHL1  H23A 6462   4.564   6.317   9.004  1.4904 -0.0639 -2.5065
   54CHL1  H23B 6463   4.680   6.406   9.108 -2.4498 -0.6047  1.1058
   54CHL1   C24 6464   4.768   6.269   8.951  0.6432 -0.1127  0.7616
   54CHL1  H24A 6465   4.847   6.211   9.003  0.4441  1.1411  2.5000
   54CHL1  H24B 6466   4.724   6.202   8.873 -1.0049 -0.2445  1.7712
   54CHL1   C25 6467   4.826   6.386   8.881  0.4607 -0.4601 -0.4940
   54CHL1   H25 6468   4.876   6.444   8.961  1.5001 -3.0315  0.7825
   54CHL1   C26 6469   4.938   6.346   8.781  0.2932 -0.3720 -0.0143
   54CHL1  H26A 6470   4.897   6.286   8.697  0.1253  0.4971 -0.5645
   54CHL1  H26B 6471   4.990   6.438   8.747 -0.8212  0.7633  1.2566
   54CHL1  H26C 6472   5.015   6.286   8.834  2.0880 -0.5768 -2.7623
   54CHL1   C27 6473   4.718   6.470   8.805 -0.2750  0.2268 -0.6771
   54CHL1  H27A 6474   4.698   6.419   8.708 -2.0816 -0.9947  0.3000
   54CHL1  H27B 6475   4.623   6.491   8.858  0.1204  0.9756 -0.2611
   54CHL1  H27C 6476   4.765   6.565   8.771 -0.3635  0.4032 -0.3057
   55CHL1    C3 6477   4.672   4.039  10.127 -0.0927  0.6690 -0.8824
   55CHL1    H3 6478   4.564   4.033  10.104 -0.0003  0.1809 -1.2100
   55CHL1    O3 6479   4.685   4.074  10.263 -0.0026 -0.0682 -0.2785
   55CHL1   H3' 6480   4.773   4.114  10.263  1.0983 -2.4005 -0.9032
   55CHL1    C4 6481   4.723   3.891  10.109 -0.3184 -0.4793 -0.3179
   55CHL1   H4A 6482   4.827   3.875  10.143 -0.9377  0.8576  2.3726
   55CHL1   H4B 6483   4.662   3.831  10.180 -1.3953  2.3352  1.2382
   55CHL1    C5 6484   4.711   3.842   9.964  0.2876 -1.2281  0.1871
   55CHL1    C6 6485   4.644   3.736   9.928  0.0570  0.5906 -0.3015
   55CHL1    H6 6486   4.600   3.671  10.005 -0.6176  0.7394 -0.5629
   55CHL1    C7 6487   4.637   3.680   9.784 -0.3627  0.0067 -0.2459
   55CHL1   H7A 6488   4.639   3.570   9.773  2.1619  0.0584 -0.7878
   55CHL1   H7B 6489   4.543   3.694   9.726  0.3975  0.5448 -1.3729
   55CHL1    C8 6490   4.742   3.745   9.686  0.3212 -0.2428 -0.2964
   55CHL1    H8 6491   4.839   3.701   9.718  1.1504  1.4542 -0.4234
   55CHL1   C14 6492   4.714   3.710   9.545  0.5008  0.0232  0.2546
   55CHL1   H14 6493   4.611   3.751   9.533  0.0934 -0.5330  1.7513
   55CHL1   C15 6494   4.694   3.565   9.509 -0.1413 -0.2136  0.1337
   55CHL1  H15A 6495   4.764   3.503   9.569  2.6444  0.0607 -2.6978
   55CHL1  H15B 6496   4.590   3.539   9.539  0.3052 -2.0500  0.1398
   55CHL1   C16 6497   4.718   3.565   9.356  0.2872  0.5607 -0.2458
   55CHL1  H16A 6498   4.806   3.499   9.346 -0.6573 -1.2019  2.5862
   55CHL1  H16B 6499   4.628   3.524   9.304  0.5339  0.1706 -0.3714
   55CHL1   C17 6500   4.764   3.704   9.313 -0.0802  0.1622  0.6750
   55CHL1   H17 6501   4.668   3.756   9.292 -0.9342 -2.2521 -1.6888
   55CHL1   C13 6502   4.814   3.770   9.445  0.1825 -0.5871 -0.1027
   55CHL1   C18 6503   4.958   3.720   9.468  0.1097  0.2392 -0.0065
   55CHL1  H18A 6504   4.977   3.615   9.440 -1.8774 -0.3427  0.7557
   55CHL1  H18B 6505   5.027   3.785   9.409 -1.5832  2.0772 -0.0266
   55CHL1  H18C 6506   4.996   3.730   9.572 -3.1292  3.1005  0.9936
   55CHL1   C12 6507   4.802   3.929   9.462 -0.8026 -0.0405  0.9172
   55CHL1  H12A 6508   4.874   3.979   9.395 -0.4597 -1.3606  0.2757
   55CHL1  H12B 6509   4.697   3.951   9.431 -0.5264  0.2266  0.1658
   55CHL1   C11 6510   4.824   3.970   9.607 -0.7153 -0.3267  0.4430
   55CHL1  H11A 6511   4.934   3.958   9.616 -0.6914 -0.2930  0.1829
   55CHL1  H11B 6512   4.812   4.081   9.607 -1.1876 -0.3453 -2.7579
   55CHL1    C9 6513   4.739   3.899   9.710 -1.1344 -0.3189 -0.0073
   55CHL1    H9 6514   4.635   3.938   9.700 -0.6963  0.1779 -3.1690
   55CHL1   C10 6515   4.781   3.936   9.859  0.7653 -0.1646 -0.4402
   55CHL1   C19 6516   4.932   3.927   9.879 -0.5373 -0.1233  0.6265
   55CHL1  H19A 6517   4.967   3.942   9.983  2.4077  0.4313 -0.3960
   55CHL1  H19B 6518   4.963   3.824   9.852 -1.6360 -0.2402 -0.1994
   55CHL1  H19C 6519   4.985   3.998   9.812 -2.1274  0.7202  0.2562
   55CHL1    C1 6520   4.739   4.087   9.887 -0.2806 -0.3465  0.0196
   55CHL1   H1A 6521   4.812   4.150   9.832  0.1610 -2.2463 -1.6392
   55CHL1   H1B 6522   4.639   4.108   9.845  0.1777 -0.2210 -1.0071
   55CHL1    C2 6523   4.752   4.129  10.034 -0.4000  0.1841 -0.0835
   55CHL1   H2A 6524   4.720   4.235  10.041 -2.1848 -0.3808  0.6214
   55CHL1   H2B 6525   4.860   4.124  10.059 -0.5687  1.7815  1.0035
   55CHL1   C20 6526   4.838   3.701   9.180 -0.1033 -0.3187 -0.4732
   55CHL1   H20 6527   4.938   3.652   9.192 -0.8435 -1.8791 -0.5392
   55CHL1   C21 6528   4.856   3.840   9.126  1.2188 -0.3482  0.2647
   55CHL1  H21A 6529   4.915   3.855   9.034  2.2567  0.9019  1.1258
   55CHL1  H21B 6530   4.902   3.902   9.206  1.8188  1.2137 -1.2642
   55CHL1  H21C 6531   4.754   3.878   9.103  1.5113  0.8186  0.8566
   55CHL1   C22 6532   4.766   3.618   9.069  0.4831  0.2374  0.4446
   55CHL1  H22A 6533   4.746   3.517   9.111  1.8642  0.0041  0.5984
   55CHL1  H22B 6534   4.658   3.636   9.052  0.2593  1.2532  2.7044
   55CHL1   C23 6535   4.852   3.605   8.941  0.3154  0.3311  0.3847
   55CHL1  H23A 6536   4.848   3.701   8.884  0.5397  0.2136  0.1702
   55CHL1  H23B 6537   4.953   3.569   8.972 -0.0099  0.1806  1.2891
   55CHL1   C24 6538   4.792   3.492   8.849 -0.3828  0.0037  0.8379
   55CHL1  H24A 6539   4.731   3.416   8.903  0.2006 -1.4919 -0.5388
   55CHL1  H24B 6540   4.735   3.538   8.765  0.1872  1.5889  1.3153
   55CHL1   C25 6541   4.899   3.402   8.782  0.0043 -0.1347  0.0488
   55CHL1   H25 6542   4.961   3.364   8.867  1.0132  1.9833  0.3020
   55CHL1   C26 6543   4.842   3.277   8.725  0.4060 -0.7088 -0.6484
   55CHL1  H26A 6544   4.767   3.295   8.644 -1.1319  0.8212  1.0570
   55CHL1  H26B 6545   4.917   3.210   8.678  0.5979 -0.1133 -1.2116
   55CHL1  H26C 6546   4.796   3.218   8.807 -1.0858 -0.0695 -0.9997
   55CHL1   C27 6547   5.001   3.475   8.691 -0.2748  0.5851  0.0012
   55CHL1  H27A 6548   5.101   3.428   8.700 -1.2578 -1.7588 -1.0379
   55CHL1  H27B 6549   4.958   3.466   8.589  0.4615  0.6824 -0.3194
   55CHL1  H27C 6550   5.006   3.581   8.724 -1.0541  0.3828  0.7776
   56CHL1    C3 6551   3.102   2.771  10.144  0.4267  0.0078 -0.9039
   56CHL1    H3 6552   3.001   2.737  10.173  0.8327 -2.7601 -2.5449
   56CHL1    O3 6553   3.176   2.818  10.254 -0.3954  0.4597 -0.1721
   56CHL1   H3' 6554   3.159   2.911  10.267  0.6588  0.6117  0.1488
   56CHL1    C4 6555   3.174   2.642  10.104 -0.0353 -0.3819  0.8164
   56CHL1   H4A 6556   3.277   2.683  10.097 -0.0355 -0.1699  1.8704
   56CHL1   H4B 6557   3.169   2.561  10.181 -1.1376 -1.4713 -0.3641
   56CHL1    C5 6558   3.139   2.589   9.964  0.5140 -0.7146 -0.2248
   56CHL1    C6 6559   3.119   2.455   9.953 -0.1800 -0.1460  0.6270
   56CHL1    H6 6560   3.141   2.391  10.040  1.1327 -0.3573  0.1466
   56CHL1    C7 6561   3.096   2.394   9.813 -0.6443  0.0996 -0.1553
   56CHL1   H7A 6562   3.175   2.316   9.806  0.5366  1.4544 -2.4994
   56CHL1   H7B 6563   2.998   2.343   9.829  0.5839 -1.8518  1.4648
   56CHL1    C8 6564   3.099   2.489   9.692 -0.1029 -0.6474 -0.0053
   56CHL1    H8 6565   3.202   2.504   9.652 -0.9171  0.4888 -1.7481
   56CHL1   C14 6566   3.007   2.443   9.585  0.3052  0.2634  0.6426
   56CHL1   H14 6567   2.903   2.446   9.624  1.1660  1.9966  2.8912
   56CHL1   C15 6568   3.035   2.301   9.536 -0.2599  0.3667  0.2734
   56CHL1  H15A 6569   3.143   2.288   9.512 -0.6864 -0.7403 -1.1479
   56CHL1  H15B 6570   3.007   2.224   9.611  2.2356 -2.9164 -2.0369
   56CHL1   C16 6571   2.966   2.284   9.413 -0.4622  0.6685  0.4297
   56CHL1  H16A 6572   3.033   2.238   9.337  1.2849  1.8693  1.2133
   56CHL1  H16B 6573   2.868   2.234   9.427 -0.1543  0.1354  0.6906
   56CHL1   C17 6574   2.926   2.430   9.364  0.7211 -0.7192  0.5469
   56CHL1   H17 6575   2.821   2.439   9.397  1.3586  2.1813  1.9264
   56CHL1   C13 6576   3.004   2.526   9.452  0.2990  0.3459 -0.6683
   56CHL1   C18 6577   3.146   2.551   9.392  0.2309 -0.1038 -0.9376
   56CHL1  H18A 6578   3.191   2.454   9.361  0.4169  0.3110 -1.9712
   56CHL1  H18B 6579   3.136   2.617   9.303  0.8979  1.0760 -0.1505
   56CHL1  H18C 6580   3.217   2.594   9.467 -0.1602 -1.4141  0.2120
   56CHL1   C12 6581   2.944   2.662   9.498  0.1917 -0.1848 -0.3131
   56CHL1  H12A 6582   2.937   2.733   9.413  0.1488  1.1299  0.7748
   56CHL1  H12B 6583   2.839   2.646   9.529  0.2854 -1.7134 -0.7274
   56CHL1   C11 6584   3.005   2.722   9.620  0.9789 -0.2107  0.2697
   56CHL1  H11A 6585   3.098   2.776   9.592  0.1858  1.3194  0.5439
   56CHL1  H11B 6586   2.925   2.788   9.661 -0.0001 -0.4203 -1.2688
   56CHL1    C9 6587   3.035   2.624   9.731 -0.7875 -0.5965  0.9416
   56CHL1    H9 6588   2.942   2.590   9.780 -1.0248 -1.1945  0.0872
   56CHL1   C10 6589   3.116   2.690   9.844  0.3540  0.5262  0.4437
   56CHL1   C19 6590   3.253   2.748   9.787  0.1488  0.0994  0.0916
   56CHL1  H19A 6591   3.295   2.680   9.710 -2.2620 -0.7619 -0.5111
   56CHL1  H19B 6592   3.233   2.845   9.736  0.7017  0.1598 -0.0101
   56CHL1  H19C 6593   3.328   2.771   9.866  0.1465  0.5403 -0.0345
   56CHL1    C1 6594   3.043   2.815   9.895 -0.1967 -0.0363 -0.4103
   56CHL1   H1A 6595   3.048   2.895   9.817 -0.1892  0.6083  0.2454
   56CHL1   H1B 6596   2.935   2.794   9.912 -0.4224  1.4811  0.1620
   56CHL1    C2 6597   3.097   2.875  10.028  0.5265  0.0385 -0.1479
   56CHL1   H2A 6598   3.047   2.967  10.064  0.4282  0.0598 -0.3309
   56CHL1   H2B 6599   3.197   2.914  10.000 -1.0917  4.0814 -0.6132
   56CHL1   C20 6600   2.924   2.449   9.209 -0.0399  0.2234  0.4329
   56CHL1   H20 6601   3.031   2.453   9.177  0.1919 -0.5516  1.0795
   56CHL1   C21 6602   2.854   2.582   9.176 -0.4163 -0.4260  0.4998
   56CHL1  H21A 6603   2.822   2.586   9.070  1.2249  0.7871  0.0270
   56CHL1  H21B 6604   2.919   2.669   9.202 -2.0842  0.8543  0.4069
   56CHL1  H21C 6605   2.762   2.584   9.238  0.3718 -0.9414  1.7151
   56CHL1   C22 6606   2.850   2.330   9.137 -0.6960  0.0280  0.6774
   56CHL1  H22A 6607   2.921   2.245   9.139 -2.2952 -1.4466 -2.3570
   56CHL1  H22B 6608   2.763   2.285   9.189 -0.0886 -0.9596  0.8568
   56CHL1   C23 6609   2.800   2.353   8.996 -0.0624 -0.6849 -0.0760
   56CHL1  H23A 6610   2.699   2.397   8.991  0.4950  0.7658  1.0219
   56CHL1  H23B 6611   2.870   2.413   8.933 -0.7422 -2.5339 -2.6797
   56CHL1   C24 6612   2.792   2.227   8.911  0.2371 -0.5517 -0.2804
   56CHL1  H24A 6613   2.890   2.173   8.913  0.1476 -0.6898  0.8556
   56CHL1  H24B 6614   2.713   2.158   8.949  0.8401 -0.9456  0.2845
   56CHL1   C25 6615   2.742   2.258   8.763  0.1563  0.0427 -0.1294
   56CHL1   H25 6616   2.652   2.321   8.778  0.6706  0.8974 -0.5654
   56CHL1   C26 6617   2.849   2.332   8.674  0.0715  0.3957  0.0578
   56CHL1  H26A 6618   2.911   2.402   8.734 -0.3884  1.7773 -1.0454
   56CHL1  H26B 6619   2.916   2.260   8.621  0.2854  0.6068  0.0410
   56CHL1  H26C 6620   2.801   2.401   8.602  1.0066  0.2200 -0.7566
   56CHL1   C27 6621   2.692   2.134   8.690 -0.2894  0.1419  0.2543
   56CHL1  H27A 6622   2.589   2.121   8.729 -0.9692 -0.5200 -1.7144
   56CHL1  H27B 6623   2.697   2.144   8.579  0.3933  2.9939  0.5089
   56CHL1  H27C 6624   2.751   2.048   8.728 -0.8848 -1.2372 -1.8592
   57CHL1    C3 6625   5.387   5.101  10.141  0.3862 -0.1368 -0.0032
   57CHL1    H3 6626   5.347   5.199  10.106 -0.3280 -0.7035 -0.8094
   57CHL1    O3 6627   5.371   5.111  10.284  0.1264  0.5009 -0.2715
   57CHL1   H3' 6628   5.293   5.062  10.310  0.2435  0.2600 -0.3747
   57CHL1    C4 6629   5.286   4.998  10.077  0.3706 -0.1181 -0.1022
   57CHL1   H4A 6630   5.311   4.903  10.130 -0.2636 -2.4996 -3.8338
   57CHL1   H4B 6631   5.180   5.027  10.094  0.5552 -0.0619  0.9908
   57CHL1    C5 6632   5.308   4.959   9.930  0.5221 -0.3364  0.6309
   57CHL1    C6 6633   5.208   4.973   9.841  0.5867 -0.4274  1.0465
   57CHL1    H6 6634   5.108   5.001   9.876  0.4567 -0.3242  0.6004
   57CHL1    C7 6635   5.212   4.936   9.694  0.2385 -0.2040 -0.0983
   57CHL1   H7A 6636   5.127   4.873   9.662 -1.2589  1.2906  0.8731
   57CHL1   H7B 6637   5.211   5.029   9.632 -0.2166  0.1816  0.4963
   57CHL1    C8 6638   5.346   4.859   9.665  0.3815  0.0283  0.7251
   57CHL1    H8 6639   5.333   4.753   9.693 -0.8424 -0.0056  0.0479
   57CHL1   C14 6640   5.366   4.873   9.512  0.2375  0.0578  0.2397
   57CHL1   H14 6641   5.367   4.981   9.485  0.1700 -0.0129 -0.0516
   57CHL1   C15 6642   5.259   4.829   9.409  0.4303  1.0070 -0.3314
   57CHL1  H15A 6643   5.210   4.747   9.465 -1.8516  1.0799 -2.1656
   57CHL1  H15B 6644   5.169   4.892   9.397 -0.9851 -0.6418  1.3144
   57CHL1   C16 6645   5.331   4.784   9.285  0.2012 -1.2945 -0.3949
   57CHL1  H16A 6646   5.302   4.678   9.270 -1.3733 -0.9923  0.3800
   57CHL1  H16B 6647   5.298   4.840   9.194  1.1304  1.4119  0.8651
   57CHL1   C17 6648   5.478   4.810   9.314 -0.2309  0.7321 -0.5169
   57CHL1   H17 6649   5.500   4.917   9.290  1.4542  0.4768 -0.1315
   57CHL1   C13 6650   5.499   4.808   9.468  0.1706 -0.1554  0.2528
   57CHL1   C18 6651   5.521   4.664   9.523 -0.1307  0.1279 -0.4999
   57CHL1  H18A 6652   5.624   4.631   9.498  0.9035  0.1706  3.3838
   57CHL1  H18B 6653   5.501   4.656   9.632 -2.2976  1.6586 -0.7536
   57CHL1  H18C 6654   5.459   4.589   9.471  0.6230 -0.1220 -1.0357
   57CHL1   C12 6655   5.612   4.890   9.524  0.9206  0.0922  0.3369
   57CHL1  H12A 6656   5.716   4.861   9.495  0.6900  1.1123 -1.5911
   57CHL1  H12B 6657   5.608   4.994   9.487  1.1425 -0.3251 -0.8807
   57CHL1   C11 6658   5.607   4.902   9.680  0.3236 -0.4216 -0.3207
   57CHL1  H11A 6659   5.650   4.804   9.712  0.7276 -0.9864 -2.5653
   57CHL1  H11B 6660   5.683   4.974   9.717  0.4704  0.0547 -1.5322
   57CHL1    C9 6661   5.462   4.936   9.733 -0.1072  0.1394 -0.1576
   57CHL1    H9 6662   5.445   5.042   9.706 -0.9490  0.1882  0.5496
   57CHL1   C10 6663   5.451   4.931   9.891  0.0878  0.3024 -0.2489
   57CHL1   C19 6664   5.491   4.789   9.948 -0.6315 -0.0873 -0.0722
   57CHL1  H19A 6665   5.600   4.779   9.931 -0.6564  0.1633 -0.3826
   57CHL1  H19B 6666   5.466   4.784  10.056  2.1290  0.2548  0.6245
   57CHL1  H19C 6667   5.447   4.706   9.890 -0.4979  0.1996 -0.5856
   57CHL1    C1 6668   5.554   5.039   9.956  0.5022 -0.5684 -0.1022
   57CHL1   H1A 6669   5.660   5.005   9.947  0.1942 -1.2359 -1.4478
   57CHL1   H1B 6670   5.529   5.129   9.897 -0.2288 -0.8598 -0.2386
   57CHL1    C2 6671   5.539   5.082  10.107  0.2994 -0.3483 -0.1068
   57CHL1   H2A 6672   5.597   5.176  10.114 -0.1503 -0.0840  0.0717
   57CHL1   H2B 6673   5.583   4.997  10.164 -1.8614 -0.8751  0.8407
   57CHL1   C20 6674   5.560   4.725   9.222 -0.0579 -0.4097  0.2285
   57CHL1   H20 6675   5.544   4.618   9.251  1.7394 -1.5228 -2.6864
   57CHL1   C21 6676   5.711   4.745   9.235 -0.0328  0.0311 -0.0119
   57CHL1  H21A 6677   5.772   4.677   9.172  0.1229  1.1664 -1.1112
   57CHL1  H21B 6678   5.745   4.717   9.337 -0.0599  1.8078  0.5153
   57CHL1  H21C 6679   5.721   4.855   9.224 -0.3816 -0.0553 -1.2430
   57CHL1   C22 6680   5.529   4.740   9.069  0.1851  0.5747  0.0967
   57CHL1  H22A 6681   5.419   4.749   9.061  0.3584  1.4682 -1.5503
   57CHL1  H22B 6682   5.569   4.839   9.036  0.6063  0.5661  0.5794
   57CHL1   C23 6683   5.582   4.633   8.977 -0.0433 -0.1025  0.3005
   57CHL1  H23A 6684   5.689   4.660   8.961 -0.4800  2.8929  2.1557
   57CHL1  H23B 6685   5.568   4.528   9.011 -0.8082 -0.3494 -0.7477
   57CHL1   C24 6686   5.510   4.652   8.840  0.4803 -0.1464  0.2063
   57CHL1  H24A 6687   5.402   4.643   8.862  0.4713  2.1738  1.3522
   57CHL1  H24B 6688   5.523   4.758   8.808 -1.5052  0.5728  1.6240
   57CHL1   C25 6689   5.551   4.558   8.723  0.5807 -0.8214 -0.8890
   57CHL1   H25 6690   5.544   4.456   8.764 -0.2486 -1.0661 -1.6275
   57CHL1   C26 6691   5.452   4.571   8.604 -0.3239  0.0308  0.4914
   57CHL1  H26A 6692   5.482   4.490   8.535  2.5858  0.9967  0.5389
   57CHL1  H26B 6693   5.349   4.555   8.643 -0.9053  1.8633 -0.2201
   57CHL1  H26C 6694   5.473   4.670   8.556  1.0423 -0.9605 -1.0114
   57CHL1   C27 6695   5.698   4.585   8.684 -0.6502 -0.1978 -0.3383
   57CHL1  H27A 6696   5.766   4.551   8.765  1.2461  1.0370 -1.3531
   57CHL1  H27B 6697   5.727   4.522   8.597  1.1995 -1.5529  1.2125
   57CHL1  H27C 6698   5.730   4.687   8.654  0.9774 -0.5016  0.2902
   58CHL1    C3 6699   0.873   3.991  10.206 -0.7889  0.6471  0.9991
   58CHL1    H3 6700   0.983   3.981  10.193 -0.4320  1.6522  2.9257
   58CHL1    O3 6701   0.838   4.001  10.341 -0.1259  0.4589 -0.1698
   58CHL1   H3' 6702   0.882   4.081  10.371 -0.0845 -0.0104  1.0743
   58CHL1    C4 6703   0.842   4.124  10.135 -0.0709  0.4404  0.4474
   58CHL1   H4A 6704   0.736   4.154  10.147  0.5762  1.5907  3.9566
   58CHL1   H4B 6705   0.901   4.206  10.183  0.7349  1.9244 -2.9511
   58CHL1    C5 6706   0.883   4.128   9.991 -0.1790 -0.2358 -0.2280
   58CHL1    C6 6707   0.963   4.222   9.937 -0.3930 -0.5983  0.4824
   58CHL1    H6 6708   1.007   4.300  10.001  0.7235  1.5074 -2.7559
   58CHL1    C7 6709   0.999   4.243   9.790  0.3335  0.4550 -0.1869
   58CHL1   H7A 6710   0.989   4.346   9.750 -1.1205 -0.3683 -2.0444
   58CHL1   H7B 6711   1.108   4.224   9.778  0.6895  1.2795  1.6022
   58CHL1    C8 6712   0.928   4.141   9.692  0.1492  0.3847  0.5088
   58CHL1    H8 6713   0.827   4.178   9.663  0.3532  0.8333  0.3525
   58CHL1   C14 6714   0.989   4.129   9.549 -0.3084  0.7520  0.0823
   58CHL1   H14 6715   1.092   4.092   9.568 -1.2723 -1.7894  0.6077
   58CHL1   C15 6716   1.006   4.262   9.469 -0.6920 -0.1807  0.6164
   58CHL1  H15A 6717   0.926   4.325   9.513  0.2381  1.4283  0.0776
   58CHL1  H15B 6718   1.103   4.308   9.499 -1.9890  2.4874  0.8947
   58CHL1   C16 6719   1.008   4.215   9.327 -0.6920 -0.0494 -0.5360
   58CHL1  H16A 6720   0.914   4.237   9.272 -1.7783 -4.5467 -0.6769
   58CHL1  H16B 6721   1.096   4.246   9.267 -2.2407  0.0355 -2.8604
   58CHL1   C17 6722   1.016   4.061   9.328 -0.0799 -0.5604 -0.0885
   58CHL1   H17 6723   1.117   4.023   9.354  1.0453  1.7811 -0.9785
   58CHL1   C13 6724   0.925   4.023   9.457 -0.7331 -0.0044  0.6165
   58CHL1   C18 6725   0.779   4.048   9.426 -0.5152  0.6433 -0.2579
   58CHL1  H18A 6726   0.722   3.969   9.372 -2.7239 -2.9243  6.5628
   58CHL1  H18B 6727   0.737   4.056   9.529 -0.6047 -0.4348 -0.2013
   58CHL1  H18C 6728   0.760   4.143   9.374  0.1658  1.8518  1.6258
   58CHL1   C12 6729   0.942   3.887   9.526 -0.2291  0.3620  0.1160
   58CHL1  H12A 6730   0.899   3.806   9.463  0.0689 -0.4919  0.9791
   58CHL1  H12B 6731   1.047   3.856   9.548  0.1881  1.0511 -0.9223
   58CHL1   C11 6732   0.873   3.887   9.665 -0.3771  0.2977 -0.4545
   58CHL1  H11A 6733   0.763   3.889   9.645 -0.6857 -0.0852  1.1648
   58CHL1  H11B 6734   0.892   3.790   9.715  1.2098  2.6180  3.6718
   58CHL1    C9 6735   0.919   4.004   9.765  0.3766 -0.2769 -0.1282
   58CHL1    H9 6736   1.023   3.979   9.795  0.5876 -0.1748 -0.7643
   58CHL1   C10 6737   0.831   4.010   9.902  0.7980  0.1534 -0.8072
   58CHL1   C19 6738   0.680   4.046   9.875  0.1446 -0.1287  0.7887
   58CHL1  H19A 6739   0.672   4.148   9.831  0.9153  0.2171  1.4371
   58CHL1  H19B 6740   0.638   3.974   9.803 -1.0036 -0.3192  1.6206
   58CHL1  H19C 6741   0.611   4.047   9.963  0.4824 -0.2864  1.0544
   58CHL1    C1 6742   0.846   3.879   9.978  0.4641 -0.6454 -0.3386
   58CHL1   H1A 6743   0.796   3.795   9.925  0.3297 -1.1282  0.5419
   58CHL1   H1B 6744   0.955   3.861   9.969  0.6311  1.2789 -2.8425
   58CHL1    C2 6745   0.801   3.883  10.126 -0.1547  0.2958  0.3257
   58CHL1   H2A 6746   0.812   3.784  10.176  2.5144  0.3602 -0.0637
   58CHL1   H2B 6747   0.691   3.900  10.127 -0.0285  1.1257 -0.2055
   58CHL1   C20 6748   0.985   3.995   9.191  0.1493  0.0799  0.3070
   58CHL1   H20 6749   0.877   4.011   9.169  0.6844  0.4879 -2.1588
   58CHL1   C21 6750   0.995   3.843   9.187  0.1760  0.0385 -0.4106
   58CHL1  H21A 6751   0.924   3.799   9.260  0.8775 -0.8118 -0.2237
   58CHL1  H21B 6752   1.096   3.806   9.217 -0.3513 -0.8346  0.3077
   58CHL1  H21C 6753   0.974   3.796   9.089 -0.1997 -0.4305 -0.1056
   58CHL1   C22 6754   1.054   4.062   9.073 -0.9565 -0.5167 -0.6275
   58CHL1  H22A 6755   1.025   4.010   8.979 -1.2297 -2.4537  0.4879
   58CHL1  H22B 6756   1.025   4.169   9.075 -0.3632 -0.3765  0.7404
   58CHL1   C23 6757   1.210   4.055   9.076  0.8994  0.1325  0.5157
   58CHL1  H23A 6758   1.250   4.082   9.176  1.5253 -0.0085  0.3029
   58CHL1  H23B 6759   1.226   3.948   9.055 -1.7923  0.3034 -2.7748
   58CHL1   C24 6760   1.277   4.142   8.966  0.2029  0.8311 -0.1971
   58CHL1  H24A 6761   1.236   4.138   8.863 -1.7660  1.0186  0.5615
   58CHL1  H24B 6762   1.259   4.247   8.998  1.8462  0.5096  1.9282
   58CHL1   C25 6763   1.429   4.135   8.950 -0.5254 -0.0021  0.0663
   58CHL1   H25 6764   1.474   4.163   9.048  1.8535  1.0721 -1.3028
   58CHL1   C26 6765   1.479   3.992   8.916 -0.4562 -0.6219  0.2157
   58CHL1  H26A 6766   1.445   3.916   8.989 -2.1404  1.2388  1.4542
   58CHL1  H26B 6767   1.437   3.964   8.817  1.4129 -1.0901 -0.4646
   58CHL1  H26C 6768   1.588   3.991   8.899 -0.5562  0.2842 -0.5392
   58CHL1   C27 6769   1.482   4.233   8.853  0.2575 -0.3865  0.6343
   58CHL1  H27A 6770   1.591   4.246   8.866  0.0672 -0.5690  2.4921
   58CHL1  H27B 6771   1.461   4.200   8.749  1.6170  0.0449  0.2210
   58CHL1  H27C 6772   1.429   4.330   8.864  1.6515  0.3585  0.8704
   59CHL1    C3 6773   0.290   3.280  10.343 -0.2991  0.2058  0.1238
   59CHL1    H3 6774   0.360   3.364  10.324 -1.0103  0.6704 -0.4795
   59CHL1    O3 6775   0.257   3.282  10.479 -0.1766 -0.4176 -0.4838
   59CHL1   H3' 6776   0.176   3.232  10.487 -0.5369  0.0292 -1.2728
   59CHL1    C4 6777   0.162   3.288  10.260 -1.1307 -0.3604  0.8511
   59CHL1   H4A 6778   0.110   3.204  10.310 -0.0090  0.5562  3.6742
   59CHL1   H4B 6779   0.113   3.385  10.284  0.5188  0.7046  0.0362
   59CHL1    C5 6780   0.173   3.267  10.107  0.4383  0.6417  0.1440
   59CHL1    C6 6781   0.120   3.360  10.019 -0.0514  0.0577  0.1987
   59CHL1    H6 6782   0.065   3.448  10.055  0.8744 -0.4239  2.9193
   59CHL1    C7 6783   0.131   3.347   9.874  0.3390 -0.6705 -0.3783
   59CHL1   H7A 6784   0.039   3.371   9.817 -0.7102 -1.7690  0.8263
   59CHL1   H7B 6785   0.214   3.413   9.841  2.5128 -2.3349  1.5272
   59CHL1    C8 6786   0.180   3.200   9.831  0.6213 -0.6669 -0.7943
   59CHL1    H8 6787   0.092   3.135   9.851  0.0842  0.4137  0.3931
   59CHL1   C14 6788   0.214   3.198   9.675 -0.8330  0.4657  0.7548
   59CHL1   H14 6789   0.304   3.260   9.656 -0.6197 -0.6770 -2.2297
   59CHL1   C15 6790   0.106   3.251   9.574 -1.1360 -0.5050  0.1653
   59CHL1  H15A 6791   0.003   3.239   9.613 -2.4845  1.4477 -2.6540
   59CHL1  H15B 6792   0.124   3.356   9.543 -3.4090 -0.6971 -1.8347
   59CHL1   C16 6793   0.133   3.168   9.450  0.0775 -0.3704 -0.7846
   59CHL1  H16A 6794   0.052   3.094   9.431 -0.7979  0.5437 -0.6784
   59CHL1  H16B 6795   0.130   3.233   9.360 -1.0663  0.5060 -0.1240
   59CHL1   C17 6796   0.260   3.088   9.483 -0.4253  0.3754 -0.0167
   59CHL1   H17 6797   0.349   3.153   9.466 -0.9989  1.4867  1.0914
   59CHL1   C13 6798   0.258   3.056   9.634 -0.0448 -0.7298  0.4325
   59CHL1   C18 6799   0.157   2.940   9.653  0.0078 -0.3430  0.1428
   59CHL1  H18A 6800   0.063   2.949   9.594  0.5721 -1.5154 -0.9465
   59CHL1  H18B 6801   0.215   2.847   9.640  2.2125  0.8828  0.8696
   59CHL1  H18C 6802   0.135   2.928   9.761  1.7516 -0.9529  0.4470
   59CHL1   C12 6803   0.389   3.023   9.704  0.5702  0.4585  0.0389
   59CHL1  H12A 6804   0.427   2.928   9.661  0.1256  1.3555 -2.3778
   59CHL1  H12B 6805   0.467   3.099   9.684 -0.1368  0.8038 -1.4805
   59CHL1   C11 6806   0.366   3.020   9.856 -0.4146  0.6142  0.2464
   59CHL1  H11A 6807   0.292   2.942   9.883  0.4665 -0.6486 -0.9591
   59CHL1  H11B 6808   0.462   3.000   9.909 -0.5648 -0.9461 -0.0507
   59CHL1    C9 6809   0.301   3.156   9.912 -0.8289  0.5213 -0.5689
   59CHL1    H9 6810   0.377   3.234   9.893 -1.1668  0.9070 -0.3612
   59CHL1   C10 6811   0.264   3.149  10.063 -0.5352 -0.3661 -0.6012
   59CHL1   C19 6812   0.194   3.021  10.094 -0.2696 -0.2632 -0.3049
   59CHL1  H19A 6813   0.265   2.936  10.084 -0.2620 -0.2772 -0.1269
   59CHL1  H19B 6814   0.147   3.018  10.194  0.4016 -1.3001 -0.0166
   59CHL1  H19C 6815   0.109   3.006  10.023 -0.3177 -1.1101 -0.0734
   59CHL1    C1 6816   0.396   3.164  10.150 -0.0247 -0.0818 -0.7105
   59CHL1   H1A 6817   0.462   3.079  10.120  0.0457  0.1090 -1.0978
   59CHL1   H1B 6818   0.445   3.263  10.136  0.3678 -0.0343  0.9213
   59CHL1    C2 6819   0.379   3.158  10.301 -0.1999  0.5322 -0.0137
   59CHL1   H2A 6820   0.482   3.170  10.340 -0.7262 -0.7429  1.8617
   59CHL1   H2B 6821   0.333   3.060  10.326  1.0372 -0.0541 -0.0131
   59CHL1   C20 6822   0.278   2.973   9.379  0.3102 -0.0371 -0.3780
   59CHL1   H20 6823   0.199   2.899   9.405 -2.0357  1.5799 -2.7893
   59CHL1   C21 6824   0.419   2.906   9.386  0.5699 -0.1827  0.0860
   59CHL1  H21A 6825   0.498   2.981   9.363  2.3285 -2.1658 -0.5372
   59CHL1  H21B 6826   0.422   2.824   9.311  2.2110  1.3195 -1.5251
   59CHL1  H21C 6827   0.438   2.859   9.485 -1.0029 -1.6522 -0.2901
   59CHL1   C22 6828   0.251   3.022   9.232 -0.9253  0.0147 -0.3591
   59CHL1  H22A 6829   0.261   2.927   9.175 -0.3309 -1.0023  1.3920
   59CHL1  H22B 6830   0.145   3.052   9.218 -0.7611  0.6827 -0.1941
   59CHL1   C23 6831   0.357   3.109   9.168 -0.3091  0.1039 -0.0122
   59CHL1  H23A 6832   0.362   3.208   9.219  1.8946  0.9290 -1.7742
   59CHL1  H23B 6833   0.454   3.057   9.182 -0.8931 -1.1477 -0.4936
   59CHL1   C24 6834   0.322   3.139   9.016 -0.1289 -0.4323  0.3767
   59CHL1  H24A 6835   0.309   3.037   8.973 -0.3586  0.4840 -1.7909
   59CHL1  H24B 6836   0.223   3.188   9.020 -1.0507 -2.3214  1.5038
   59CHL1   C25 6837   0.429   3.219   8.942 -0.5180 -1.0126 -0.6683
   59CHL1   H25 6838   0.440   3.317   8.993  0.6678 -0.8475 -1.2310
   59CHL1   C26 6839   0.556   3.136   8.933  0.4940  0.3944  0.2669
   59CHL1  H26A 6840   0.614   3.177   8.848  0.0671 -1.9565 -1.1951
   59CHL1  H26B 6841   0.623   3.140   9.022  0.3582  0.8914  0.3438
   59CHL1  H26C 6842   0.528   3.031   8.912 -1.0198  0.7517  0.4316
   59CHL1   C27 6843   0.388   3.255   8.797  0.8603 -0.5933 -0.8649
   59CHL1  H27A 6844   0.471   3.305   8.743  1.5044 -0.0639  0.6095
   59CHL1  H27B 6845   0.352   3.164   8.743 -0.8856  0.1154 -0.9376
   59CHL1  H27C 6846   0.294   3.314   8.803  0.9725 -0.4678 -0.3260
   60CHL1    C3 6847   6.783   2.165  10.332  0.2777 -0.4785 -0.0574
   60CHL1    H3 6848   6.894   2.164  10.331  0.2886 -1.2123  1.0298
   60CHL1    O3 6849   6.738   2.131  10.460  0.6401 -0.6844 -0.8839
   60CHL1   H3' 6850   6.648   2.100  10.446 -0.0631  0.4258  1.0395
   60CHL1    C4 6851   6.740   2.314  10.305  0.1767 -0.3632  0.0094
   60CHL1   H4A 6852   6.629   2.317  10.313  0.2526 -0.4849  1.0886
   60CHL1   H4B 6853   6.775   2.384  10.384 -2.2638 -0.1679  0.9740
   60CHL1    C5 6854   6.790   2.351  10.168  0.6073  0.4898  0.4094
   60CHL1    C6 6855   6.866   2.460  10.157  0.0230  0.2178 -0.7832
   60CHL1    H6 6856   6.898   2.523  10.241  0.5097 -0.0716 -0.7522
   60CHL1    C7 6857   6.932   2.496  10.024 -0.3212  0.7360 -0.2531
   60CHL1   H7A 6858   6.935   2.606  10.012 -2.2661  0.8352  0.0072
   60CHL1   H7B 6859   7.040   2.470  10.026 -0.0583  1.9172  1.1914
   60CHL1    C8 6860   6.858   2.435   9.896  0.4664 -0.0024  0.1615
   60CHL1    H8 6861   6.760   2.487   9.885  1.1069  1.3842  1.0067
   60CHL1   C14 6862   6.940   2.449   9.772  1.3125  0.0040  0.2995
   60CHL1   H14 6863   7.028   2.387   9.800  1.3794 -0.6021 -1.1887
   60CHL1   C15 6864   6.989   2.587   9.742 -0.4535  0.5189  0.6925
   60CHL1  H15A 6865   6.906   2.661   9.750  0.8327  2.3787 -2.3343
   60CHL1  H15B 6866   7.076   2.612   9.807 -0.6198  1.9923  0.3802
   60CHL1   C16 6867   7.036   2.576   9.595  0.6199 -0.3852  0.1104
   60CHL1  H16A 6868   6.990   2.650   9.526 -2.0672 -2.0457  0.0664
   60CHL1  H16B 6869   7.147   2.575   9.588  0.5531 -0.9237 -0.9907
   60CHL1   C17 6870   6.990   2.429   9.547  0.6105  0.2864 -0.5119
   60CHL1   H17 6871   7.080   2.368   9.566 -0.8915 -1.4144  1.3247
   60CHL1   C13 6872   6.883   2.389   9.644  0.8097  0.8344 -0.1457
   60CHL1   C18 6873   6.741   2.455   9.620 -0.5613 -0.0789 -0.1864
   60CHL1  H18A 6874   6.692   2.404   9.534  1.0549  0.8692 -1.7129
   60CHL1  H18B 6875   6.665   2.444   9.699  1.0042 -1.8426  1.1163
   60CHL1  H18C 6876   6.758   2.563   9.598  0.6787 -0.8087 -3.0811
   60CHL1   C12 6877   6.860   2.244   9.669 -0.0785  0.6937  0.5483
   60CHL1  H12A 6878   6.813   2.194   9.582 -0.1404 -0.9862  1.5233
   60CHL1  H12B 6879   6.960   2.198   9.685 -0.3486  0.4356  1.5451
   60CHL1   C11 6880   6.768   2.211   9.794 -0.7364  0.3612 -0.1443
   60CHL1  H11A 6881   6.664   2.243   9.769 -1.5082 -1.8939  0.1153
   60CHL1  H11B 6882   6.767   2.101   9.804  0.8100  0.2823 -0.7168
   60CHL1    C9 6883   6.826   2.284   9.922 -0.0546  0.7773  0.4720
   60CHL1    H9 6884   6.925   2.235   9.930 -0.3807 -0.2436 -1.4800
   60CHL1   C10 6885   6.746   2.258  10.052  0.0853 -0.3459  0.4856
   60CHL1   C19 6886   6.597   2.291  10.033 -1.0113 -0.5364 -0.1493
   60CHL1  H19A 6887   6.562   2.222   9.953 -1.6636  0.6301 -0.8668
   60CHL1  H19B 6888   6.541   2.265  10.126 -0.5460 -1.4376 -0.1122
   60CHL1  H19C 6889   6.582   2.395   9.997 -0.5441 -0.8028 -1.1309
   60CHL1    C1 6890   6.757   2.105  10.095  0.2955 -0.1111 -0.0985
   60CHL1   H1A 6891   6.722   2.025  10.026 -0.9285 -0.6626  1.1227
   60CHL1   H1B 6892   6.864   2.076  10.092  0.5743  0.8019  0.7415
   60CHL1    C2 6893   6.715   2.069  10.237  0.1700  0.1155  0.0628
   60CHL1   H2A 6894   6.740   1.966  10.269 -0.7743 -0.4836 -1.0724
   60CHL1   H2B 6895   6.606   2.085  10.246  0.4488  1.4004  1.3022
   60CHL1   C20 6896   6.975   2.431   9.391  1.5325 -0.5271 -1.0939
   60CHL1   H20 6897   6.882   2.485   9.362  0.3858 -3.1899 -2.5540
   60CHL1   C21 6898   6.940   2.288   9.335  0.5541 -0.4400 -0.7333
   60CHL1  H21A 6899   7.030   2.224   9.349  0.8587  0.4756  1.7155
   60CHL1  H21B 6900   6.903   2.287   9.231 -1.7989  0.3727  0.0732
   60CHL1  H21C 6901   6.853   2.248   9.391  1.0937  0.4286  0.7702
   60CHL1   C22 6902   7.097   2.490   9.318 -0.0179 -0.1800 -0.3746
   60CHL1  H22A 6903   7.113   2.595   9.350  1.3812 -0.2429 -0.8629
   60CHL1  H22B 6904   7.186   2.427   9.334  0.7252  0.8120 -0.5250
   60CHL1   C23 6905   7.072   2.499   9.168 -0.1091  0.0471  0.3560
   60CHL1  H23A 6906   7.061   2.401   9.117 -0.2126 -0.2357  0.9200
   60CHL1  H23B 6907   6.975   2.553   9.159  0.7124  1.7900  1.5724
   60CHL1   C24 6908   7.195   2.572   9.102  0.2000  0.2908 -0.3973
   60CHL1  H24A 6909   7.201   2.674   9.144  1.2037 -0.8477  2.2911
   60CHL1  H24B 6910   7.284   2.518   9.141 -1.7586 -1.5698  1.6978
   60CHL1   C25 6911   7.198   2.568   8.948 -0.2312  0.2756  0.9347
   60CHL1   H25 6912   7.194   2.462   8.913 -0.4342  0.9150 -1.0008
   60CHL1   C26 6913   7.074   2.628   8.889 -0.2049 -0.4511 -0.3676
   60CHL1  H26A 6914   7.068   2.736   8.915  0.4275 -0.1567 -1.4012
   60CHL1  H26B 6915   7.075   2.622   8.778 -0.1558 -1.2109 -0.3328
   60CHL1  H26C 6916   6.988   2.570   8.928  0.4191  1.4680  4.1566
   60CHL1   C27 6917   7.329   2.624   8.899 -0.8287 -1.2506  0.1926
   60CHL1  H27A 6918   7.408   2.564   8.948 -0.7318 -1.0411  0.2950
   60CHL1  H27B 6919   7.337   2.624   8.788  1.3687  0.2272  0.3231
   60CHL1  H27C 6920   7.352   2.731   8.918 -0.7987 -0.7123 -2.5749
   61CHL1    C3 6921   4.031   1.124  10.478  0.8430 -0.0060 -0.3709
   61CHL1    H3 6922   3.930   1.149  10.437  0.5625 -1.4369 -0.5820
   61CHL1    O3 6923   4.025   1.161  10.616  0.0662  0.4252 -0.1113
   61CHL1   H3' 6924   4.114   1.136  10.643 -0.0483  1.5537  1.3688
   61CHL1    C4 6925   4.054   0.973  10.462  0.4753 -0.1505  0.0033
   61CHL1   H4A 6926   4.156   0.949  10.501 -0.2670 -1.5978  1.0917
   61CHL1   H4B 6927   3.973   0.922  10.518 -1.2165  1.0089 -1.3340
   61CHL1    C5 6928   4.056   0.942  10.308 -1.0294  0.9638 -0.2788
   61CHL1    C6 6929   3.965   0.855  10.268 -0.8600  0.3364 -0.0585
   61CHL1    H6 6930   3.902   0.798  10.339  0.0468 -0.1634  0.3612
   61CHL1    C7 6931   3.948   0.817  10.125  0.6499  0.0138 -0.0449
   61CHL1   H7A 6932   3.932   0.708  10.109 -0.6744 -0.0593  1.5523
   61CHL1   H7B 6933   3.856   0.868  10.089 -0.7794 -1.8086  0.9462
   61CHL1    C8 6934   4.062   0.866  10.032 -0.3269 -0.9266  1.3116
   61CHL1    H8 6935   4.151   0.800  10.039 -0.3814 -0.9514  1.8295
   61CHL1   C14 6936   4.021   0.855   9.889  0.0413 -0.2906  0.3525
   61CHL1   H14 6937   3.938   0.928   9.876  0.8026  1.0041  2.4096
   61CHL1   C15 6938   3.959   0.726   9.833 -0.5137 -0.0523 -0.8626
   61CHL1  H15A 6939   4.032   0.647   9.863  1.3864  1.8696 -0.3007
   61CHL1  H15B 6940   3.857   0.704   9.871  0.0234  1.6115  1.6769
   61CHL1   C16 6941   3.970   0.764   9.683 -0.4241 -0.1236 -0.4955
   61CHL1  H16A 6942   4.023   0.679   9.636 -0.5163  0.6042 -1.9417
   61CHL1  H16B 6943   3.877   0.762   9.623 -0.7338  0.7501 -0.0632
   61CHL1   C17 6944   4.056   0.896   9.656 -0.1597 -0.2574  0.2443
   61CHL1   H17 6945   3.982   0.978   9.648 -0.2471 -0.3649 -0.0690
   61CHL1   C13 6946   4.127   0.906   9.791 -0.4656  0.0740  0.1435
   61CHL1   C18 6947   4.253   0.822   9.790  0.0200 -0.5389  1.0341
   61CHL1  H18A 6948   4.229   0.721   9.750  0.9714  0.1431 -1.3168
   61CHL1  H18B 6949   4.330   0.871   9.727 -1.2257  1.5001  1.0486
   61CHL1  H18C 6950   4.295   0.796   9.890  1.5145  0.0340  0.5690
   61CHL1   C12 6951   4.163   1.048   9.832  0.4120  0.5263  0.2849
   61CHL1  H12A 6952   4.256   1.076   9.779  1.6610 -0.6008  1.8574
   61CHL1  H12B 6953   4.079   1.121   9.821  0.4296  0.5160  0.0942
   61CHL1   C11 6954   4.216   1.064   9.977  0.3266 -0.9323 -0.0265
   61CHL1  H11A 6955   4.305   0.999   9.986 -0.9865 -2.8057 -0.2221
   61CHL1  H11B 6956   4.247   1.170   9.984 -1.5523 -0.1913 -2.2723
   61CHL1    C9 6957   4.110   1.010  10.072 -0.5795 -0.7915  0.3436
   61CHL1    H9 6958   4.020   1.073  10.056 -0.2482  0.0800  1.8188
   61CHL1   C10 6959   4.151   1.028  10.221 -0.1377 -0.1162 -0.6073
   61CHL1   C19 6960   4.298   0.985  10.248 -0.6978  0.0047  0.4957
   61CHL1  H19A 6961   4.304   0.881  10.211 -1.0930 -0.4172  1.5934
   61CHL1  H19B 6962   4.365   1.061  10.201  1.0980 -3.5640 -2.9284
   61CHL1  H19C 6963   4.312   0.987  10.358  2.8954  2.2356  0.0544
   61CHL1    C1 6964   4.131   1.187  10.250 -0.2485 -0.0869  0.6191
   61CHL1   H1A 6965   4.210   1.252  10.207  1.2046 -1.1164  1.6750
   61CHL1   H1B 6966   4.031   1.222  10.215  1.2468  2.7295 -1.0711
   61CHL1    C2 6967   4.130   1.212  10.406 -0.6540  0.1769  0.6946
   61CHL1   H2A 6968   4.103   1.318  10.422 -0.2146  0.2270  1.0963
   61CHL1   H2B 6969   4.234   1.207  10.444  0.8548 -1.7104 -3.3543
   61CHL1   C20 6970   4.144   0.897   9.527 -0.1970 -0.5588 -0.3753
   61CHL1   H20 6971   4.220   0.816   9.528  0.5518  0.1394  0.8287
   61CHL1   C21 6972   4.219   1.031   9.510  0.2362 -0.2827  0.1609
   61CHL1  H21A 6973   4.146   1.114   9.517 -2.1191 -2.1518 -1.4663
   61CHL1  H21B 6974   4.270   1.038   9.411  1.2588 -1.3183  0.5929
   61CHL1  H21C 6975   4.296   1.044   9.589  0.1537 -0.0184  0.1970
   61CHL1   C22 6976   4.058   0.875   9.402  0.3609 -0.7068 -0.5341
   61CHL1  H22A 6977   4.011   0.776   9.424  1.0802 -0.3495  2.9016
   61CHL1  H22B 6978   3.974   0.944   9.381 -0.9553 -1.8728  0.7708
   61CHL1   C23 6979   4.137   0.861   9.276  0.3871  0.2350  0.8077
   61CHL1  H23A 6980   4.158   0.963   9.238  0.3270  0.1613  0.5775
   61CHL1  H23B 6981   4.235   0.812   9.298 -0.1653 -1.1242  0.2951
   61CHL1   C24 6982   4.074   0.789   9.161  0.0676  0.1977 -0.4966
   61CHL1  H24A 6983   4.046   0.682   9.172 -0.4585  0.2721 -1.0657
   61CHL1  H24B 6984   3.976   0.838   9.146  0.1065  0.4369  0.0488
   61CHL1   C25 6985   4.138   0.800   9.021 -0.5693  0.3919 -0.1693
   61CHL1   H25 6986   4.192   0.896   9.026 -0.4792  0.2393  2.8725
   61CHL1   C26 6987   4.235   0.682   8.995  0.0370 -0.1993  0.2719
   61CHL1  H26A 6988   4.200   0.588   9.042 -0.0913  0.3620  1.3171
   61CHL1  H26B 6989   4.250   0.672   8.886 -1.8951  2.1007 -0.2581
   61CHL1  H26C 6990   4.333   0.705   9.042  0.1576 -0.9614  0.3920
   61CHL1   C27 6991   4.034   0.806   8.904 -0.3447  0.4913 -0.0244
   61CHL1  H27A 6992   4.086   0.827   8.809 -0.2405  1.2247  0.1885
   61CHL1  H27B 6993   3.965   0.720   8.911  0.3834 -0.1029 -0.0847
   61CHL1  H27C 6994   3.973   0.898   8.919 -1.5611 -0.5359  1.4928
   62CHL1    C3 6995   4.867   4.789  10.205  0.2463 -0.5965  0.3096
   62CHL1    H3 6996   4.843   4.893  10.174  2.2140 -0.4194 -0.7000
   62CHL1    O3 6997   4.889   4.790  10.343 -0.0946  0.1188  0.7490
   62CHL1   H3' 6998   4.801   4.791  10.381 -1.2756 -1.1379 -1.7984
   62CHL1    C4 6999   4.743   4.709  10.172  0.8177 -0.3969  0.1658
   62CHL1   H4A 7000   4.761   4.611  10.223 -0.0719 -1.1942 -1.0298
   62CHL1   H4B 7001   4.656   4.748  10.229  0.4487 -0.7021 -0.1847
   62CHL1    C5 7002   4.718   4.680  10.021 -0.6618 -0.1280  0.5953
   62CHL1    C6 7003   4.604   4.719   9.969 -0.1660 -0.1374  0.0457
   62CHL1    H6 7004   4.521   4.760  10.029 -0.9768 -1.2571 -0.3034
   62CHL1    C7 7005   4.580   4.727   9.823 -0.1121 -0.2703 -0.2757
   62CHL1   H7A 7006   4.480   4.686   9.801 -1.6420  2.8001  0.6205
   62CHL1   H7B 7007   4.596   4.833   9.792 -3.4392  0.9736  2.0784
   62CHL1    C8 7008   4.679   4.635   9.742 -0.0822 -0.3597  0.4266
   62CHL1    H8 7009   4.660   4.526   9.748 -0.9538 -0.2796 -0.6310
   62CHL1   C14 7010   4.668   4.676   9.601 -0.9887  0.2888  1.0950
   62CHL1   H14 7011   4.704   4.781   9.603  0.7894 -0.2987  1.0515
   62CHL1   C15 7012   4.529   4.702   9.539  0.2699 -0.3538  0.9907
   62CHL1  H15A 7013   4.451   4.623   9.554 -1.8269  1.2906 -0.8923
   62CHL1  H15B 7014   4.484   4.793   9.584 -0.7631 -1.2052  1.7096
   62CHL1   C16 7015   4.563   4.722   9.387 -0.2713 -0.1544 -0.5000
   62CHL1  H16A 7016   4.490   4.656   9.335 -1.3773 -0.5748  1.5317
   62CHL1  H16B 7017   4.547   4.827   9.355 -0.0434  0.8106  2.4090
   62CHL1   C17 7018   4.706   4.679   9.369  0.0853 -0.9039 -0.4942
   62CHL1   H17 7019   4.769   4.771   9.377  0.4042 -1.2760  1.7306
   62CHL1   C13 7020   4.754   4.600   9.496  0.0152 -0.5774 -1.0724
   62CHL1   C18 7021   4.713   4.454   9.495 -0.0699  0.6828  0.2172
   62CHL1  H18A 7022   4.605   4.436   9.474 -0.0342  0.5869  0.1143
   62CHL1  H18B 7023   4.764   4.398   9.414  0.0880  2.5124 -0.9533
   62CHL1  H18C 7024   4.748   4.407   9.589 -1.3069 -0.6345  0.0419
   62CHL1   C12 7025   4.902   4.617   9.537  0.4825  0.2805 -0.1235
   62CHL1  H12A 7026   4.962   4.538   9.486  0.3004  0.0601  0.0018
   62CHL1  H12B 7027   4.941   4.715   9.503  1.3647  0.3084  0.9619
   62CHL1   C11 7028   4.921   4.591   9.689 -0.0734 -0.5829 -0.0006
   62CHL1  H11A 7029   4.914   4.481   9.705 -0.4615 -0.7639 -1.3631
   62CHL1  H11B 7030   5.025   4.622   9.713 -0.6334  1.5054 -0.2364
   62CHL1    C9 7031   4.823   4.659   9.788  0.5410 -0.1057  0.2919
   62CHL1    H9 7032   4.848   4.764   9.762  0.4967  0.3333  1.9614
   62CHL1   C10 7033   4.846   4.635   9.945  0.0763  0.4219 -0.1084
   62CHL1   C19 7034   4.875   4.488   9.980  0.3204 -0.0044 -0.9357
   62CHL1  H19A 7035   4.783   4.433   9.948  0.4123 -1.3431  1.0468
   62CHL1  H19B 7036   4.965   4.450   9.927 -0.9522 -1.9399 -1.7521
   62CHL1  H19C 7037   4.872   4.467  10.089 -1.3007  0.1303 -0.9422
   62CHL1    C1 7038   4.969   4.718   9.981 -0.2146 -0.6223  0.7953
   62CHL1   H1A 7039   5.059   4.677   9.930 -1.4306  1.2766 -3.1142
   62CHL1   H1B 7040   4.953   4.817   9.933  1.3848 -0.3033  0.8834
   62CHL1    C2 7041   4.991   4.739  10.136 -0.5613 -0.0757  0.1122
   62CHL1   H2A 7042   5.082   4.802  10.147  0.9036 -1.8873 -1.2154
   62CHL1   H2B 7043   5.024   4.640  10.175  1.1638  1.2008  1.9704
   62CHL1   C20 7044   4.750   4.621   9.230  0.5590  0.4442  0.4466
   62CHL1   H20 7045   4.846   4.573   9.259  0.6232  1.5922  2.2199
   62CHL1   C21 7046   4.779   4.741   9.139  0.0844  1.0043  0.0129
   62CHL1  H21A 7047   4.848   4.819   9.178  1.3115 -0.1178  0.1269
   62CHL1  H21B 7048   4.685   4.800   9.127 -1.5709 -1.6538 -0.3455
   62CHL1  H21C 7049   4.810   4.704   9.040 -1.5297  0.9041 -0.4683
   62CHL1   C22 7050   4.659   4.524   9.163  0.0073  0.6231  0.2510
   62CHL1  H22A 7051   4.608   4.459   9.238  0.6894 -1.2547 -0.8701
   62CHL1  H22B 7052   4.579   4.575   9.106 -3.5893 -5.2903 -0.4820
   62CHL1   C23 7053   4.747   4.427   9.081 -0.6988 -0.2222  0.0444
   62CHL1  H23A 7054   4.797   4.470   8.991 -0.3630  2.3015  1.4009
   62CHL1  H23B 7055   4.829   4.375   9.136  1.0085  0.2558 -1.9609
   62CHL1   C24 7056   4.655   4.317   9.023 -0.1321 -0.0311  0.1194
   62CHL1  H24A 7057   4.607   4.270   9.112 -0.7824 -2.3474 -1.3968
   62CHL1  H24B 7058   4.575   4.372   8.970  2.5428  3.4509 -0.4541
   62CHL1   C25 7059   4.711   4.215   8.921  0.0011  0.3380 -0.6249
   62CHL1   H25 7060   4.811   4.181   8.954 -0.7259  0.3832  1.7803
   62CHL1   C26 7061   4.627   4.093   8.889  0.0528  0.0727  0.5769
   62CHL1  H26A 7062   4.688   4.033   8.818 -3.2583  0.2810 -2.6071
   62CHL1  H26B 7063   4.593   4.031   8.975  0.3712  1.7959  1.9921
   62CHL1  H26C 7064   4.535   4.126   8.837 -0.4153 -0.9570  0.7438
   62CHL1   C27 7065   4.741   4.292   8.793  0.6529 -0.4176 -0.4549
   62CHL1  H27A 7066   4.651   4.337   8.746  1.0968 -0.1168 -1.0339
   62CHL1  H27B 7067   4.825   4.365   8.791 -1.2338  1.8136 -1.5046
   62CHL1  H27C 7068   4.773   4.215   8.719  0.8531 -1.9045  1.1464
   63CHL1    C3 7069   6.269   6.532  10.417 -0.0694 -0.7805 -0.2217
   63CHL1    H3 7070   6.185   6.585  10.367  0.8075 -0.4987 -1.4350
   63CHL1    O3 7071   6.231   6.510  10.549  0.1177  0.0970 -0.0518
   63CHL1   H3' 7072   6.280   6.433  10.579  2.0812  0.5796 -1.8691
   63CHL1    C4 7073   6.290   6.402  10.342 -0.7163 -0.9967 -0.7943
   63CHL1   H4A 7074   6.366   6.337  10.391  1.3397 -0.7468 -3.5532
   63CHL1   H4B 7075   6.192   6.351  10.352 -1.1687 -0.1787 -0.9882
   63CHL1    C5 7076   6.336   6.414  10.200  0.2168  0.1303 -0.1352
   63CHL1    C6 7077   6.268   6.353  10.098  0.1114  0.2354  0.9938
   63CHL1    H6 7078   6.182   6.293  10.130  1.8201 -2.4225  0.7901
   63CHL1    C7 7079   6.302   6.370   9.951  0.3298 -0.1520 -0.2459
   63CHL1   H7A 7080   6.299   6.272   9.899 -3.8053  0.6510 -1.7327
   63CHL1   H7B 7081   6.231   6.436   9.897  1.2423  0.5165 -0.6446
   63CHL1    C8 7082   6.442   6.430   9.921  0.2497  0.1956  0.5940
   63CHL1    H8 7083   6.515   6.346   9.921  0.2000  0.1515  0.9884
   63CHL1   C14 7084   6.449   6.488   9.775  0.2905 -0.0222  0.6906
   63CHL1   H14 7085   6.373   6.569   9.765  2.0372  1.5109 -0.6837
   63CHL1   C15 7086   6.425   6.380   9.664  0.0266  0.1508 -0.3787
   63CHL1  H15A 7087   6.464   6.276   9.677 -2.2224 -0.6641  0.1560
   63CHL1  H15B 7088   6.317   6.360   9.653 -0.0637 -0.6048  1.6520
   63CHL1   C16 7089   6.478   6.456   9.538 -0.4755 -0.4522 -0.1210
   63CHL1  H16A 7090   6.524   6.380   9.473  2.8115  1.5247 -0.2427
   63CHL1  H16B 7091   6.392   6.500   9.483 -0.0052 -0.8088 -1.1426
   63CHL1   C17 7092   6.564   6.580   9.587 -0.4432  0.4064 -0.5771
   63CHL1   H17 7093   6.496   6.668   9.589 -0.1173  0.6562  1.7203
   63CHL1   C13 7094   6.583   6.552   9.737  0.3583  0.2145 -0.0192
   63CHL1   C18 7095   6.697   6.447   9.743 -0.0887  0.6800 -0.1877
   63CHL1  H18A 7096   6.679   6.371   9.664  2.1276  0.8988 -0.9407
   63CHL1  H18B 7097   6.785   6.506   9.710 -0.8154  1.9257  0.0532
   63CHL1  H18C 7098   6.714   6.387   9.835 -0.6299 -0.6502 -0.9398
   63CHL1   C12 7099   6.613   6.673   9.841  0.5856 -0.1641  0.6930
   63CHL1  H12A 7100   6.716   6.713   9.832  0.5996 -0.1255  1.0176
   63CHL1  H12B 7101   6.545   6.756   9.811 -0.3127 -0.9723  0.4631
   63CHL1   C11 7102   6.602   6.619   9.985 -0.2407 -0.2442 -0.8150
   63CHL1  H11A 7103   6.683   6.544  10.002 -0.6560 -0.6854 -0.7586
   63CHL1  H11B 7104   6.615   6.703  10.056 -0.4040 -0.2196 -0.8130
   63CHL1    C9 7105   6.470   6.543  10.027 -0.1088  0.0849 -0.4456
   63CHL1    H9 7106   6.385   6.611  10.008  1.3807  1.6727 -1.5260
   63CHL1   C10 7107   6.456   6.502  10.176 -0.1650  0.4511 -0.3276
   63CHL1   C19 7108   6.586   6.420  10.223  0.2771 -0.3982  0.0487
   63CHL1  H19A 7109   6.592   6.343  10.144 -0.8231 -0.5399  0.0938
   63CHL1  H19B 7110   6.675   6.486  10.229  0.0636 -0.1763  0.9071
   63CHL1  H19C 7111   6.568   6.369  10.321  0.3558  1.1080  0.8734
   63CHL1    C1 7112   6.446   6.630  10.267  0.3729  0.3201 -0.3958
   63CHL1   H1A 7113   6.542   6.686  10.264  0.0603  0.8895  0.1940
   63CHL1   H1B 7114   6.376   6.702  10.219 -0.4724 -0.5652 -0.5044
   63CHL1    C2 7115   6.404   6.598  10.411  0.0967  0.6784  0.1527
   63CHL1   H2A 7116   6.403   6.694  10.467  0.6367 -0.6467  2.5094
   63CHL1   H2B 7117   6.478   6.543  10.474 -0.4050 -0.5488 -0.3221
   63CHL1   C20 7118   6.671   6.615   9.484  1.1449  0.5790  0.3738
   63CHL1   H20 7119   6.745   6.532   9.488  0.2509 -0.1487  2.3462
   63CHL1   C21 7120   6.751   6.732   9.531 -0.0839  0.4151 -0.1109
   63CHL1  H21A 7121   6.824   6.767   9.455  0.5962  1.0680  0.8166
   63CHL1  H21B 7122   6.823   6.708   9.612 -0.5328 -0.9551 -0.1216
   63CHL1  H21C 7123   6.682   6.818   9.551  0.8129  0.8754  1.0674
   63CHL1   C22 7124   6.614   6.643   9.344  0.0105  0.2006 -0.0714
   63CHL1  H22A 7125   6.529   6.575   9.322 -1.1292  1.5428  0.0879
   63CHL1  H22B 7126   6.567   6.743   9.329  1.7999  0.9452 -0.7970
   63CHL1   C23 7127   6.717   6.630   9.232  0.5200  0.6355  0.3543
   63CHL1  H23A 7128   6.784   6.718   9.238  1.9112 -0.2373 -1.8470
   63CHL1  H23B 7129   6.779   6.538   9.223 -0.4996  0.1298 -2.0528
   63CHL1   C24 7130   6.652   6.649   9.093  0.7587 -0.7255  0.0196
   63CHL1  H24A 7131   6.594   6.558   9.069 -0.4825 -0.3512  1.5005
   63CHL1  H24B 7132   6.583   6.735   9.081 -0.6547 -1.8361  0.1894
   63CHL1   C25 7133   6.753   6.671   8.971 -0.3717 -0.1915 -0.7301
   63CHL1   H25 7134   6.688   6.683   8.882 -1.0848 -0.0215 -0.1905
   63CHL1   C26 7135   6.833   6.803   8.986  0.0013  0.4907  0.7993
   63CHL1  H26A 7136   6.893   6.792   9.079  1.2355  1.2705  0.1172
   63CHL1  H26B 7137   6.905   6.824   8.905  0.4639  0.8996  1.3124
   63CHL1  H26C 7138   6.755   6.881   9.004  0.7025  1.0409  1.4847
   63CHL1   C27 7139   6.848   6.551   8.940  0.3775 -0.2753 -0.2907
   63CHL1  H27A 7140   6.915   6.573   8.853  0.5986  2.5208  0.5461
   63CHL1  H27B 7141   6.914   6.537   9.029 -0.0733  2.1462  0.4476
   63CHL1  H27C 7142   6.792   6.458   8.916  0.9494 -0.5934 -0.4166
   64CHL1    C3 7143   5.177   5.417   9.932 -0.3040 -0.4318  0.1228
   64CHL1    H3 7144   5.127   5.336   9.875  0.2048  0.0326 -0.9868
   64CHL1    O3 7145   5.178   5.391  10.071  0.2509 -0.1979 -0.2401
   64CHL1   H3' 7146   5.231   5.459  10.112  1.1653 -0.8148 -0.3731
   64CHL1    C4 7147   5.323   5.427   9.884 -0.7631  0.3979  0.2758
   64CHL1   H4A 7148   5.371   5.505   9.947 -0.8791  2.3657 -2.0006
   64CHL1   H4B 7149   5.368   5.328   9.909 -0.3550  0.8340  1.2777
   64CHL1    C5 7150   5.345   5.459   9.739  0.0349 -0.1016  0.8979
   64CHL1    C6 7151   5.423   5.395   9.656  0.2680 -0.1365  0.7292
   64CHL1    H6 7152   5.479   5.309   9.696 -0.9533 -1.7174 -0.9220
   64CHL1    C7 7153   5.447   5.422   9.513 -0.2255  0.4503  0.3132
   64CHL1   H7A 7154   5.557   5.421   9.496 -0.2183  0.1266  0.3718
   64CHL1   H7B 7155   5.405   5.346   9.444 -0.0687 -2.4556  3.3246
   64CHL1    C8 7156   5.388   5.564   9.474 -0.0805  1.0626 -0.2809
   64CHL1    H8 7157   5.465   5.639   9.504 -0.9233  1.6081  0.5318
   64CHL1   C14 7158   5.363   5.562   9.325  0.5759  0.2076  0.0880
   64CHL1   H14 7159   5.288   5.483   9.304  0.9811 -0.0055 -0.5507
   64CHL1   C15 7160   5.476   5.527   9.233  0.2927  1.0215  0.2836
   64CHL1  H15A 7161   5.564   5.584   9.268  1.2958 -0.2617 -0.1480
   64CHL1  H15B 7162   5.496   5.418   9.233  2.1904  1.3687  1.2572
   64CHL1   C16 7163   5.424   5.581   9.099 -0.3514  0.2661  0.4352
   64CHL1  H16A 7164   5.502   5.635   9.042  0.1329 -1.0239 -0.1185
   64CHL1  H16B 7165   5.378   5.487   9.063 -0.7549 -0.5060  2.8617
   64CHL1   C17 7166   5.300   5.674   9.123  0.1863 -0.0866  0.2787
   64CHL1   H17 7167   5.207   5.614   9.112  0.5961 -0.5225 -0.8695
   64CHL1   C13 7168   5.305   5.700   9.278 -0.2436  0.7372 -0.3073
   64CHL1   C18 7169   5.410   5.815   9.306  0.0267  0.3639 -0.6166
   64CHL1  H18A 7170   5.371   5.913   9.271 -0.9511 -0.3512 -1.5846
   64CHL1  H18B 7171   5.436   5.829   9.413  3.6084 -0.5910 -1.3006
   64CHL1  H18C 7172   5.505   5.809   9.248 -0.1093 -0.6321 -0.7465
   64CHL1   C12 7173   5.165   5.720   9.342 -0.1928 -0.2167  0.5687
   64CHL1  H12A 7174   5.119   5.812   9.299 -3.0331 -1.7902  0.1189
   64CHL1  H12B 7175   5.116   5.626   9.309 -0.0913 -0.4503  1.0871
   64CHL1   C11 7176   5.170   5.720   9.490 -0.5192 -0.0552  0.0439
   64CHL1  H11A 7177   5.214   5.812   9.534 -1.7105  0.8373 -0.5972
   64CHL1  H11B 7178   5.071   5.724   9.540  1.2847 -0.2137  3.8633
   64CHL1    C9 7179   5.251   5.588   9.543 -0.2749 -0.4645  0.3289
   64CHL1    H9 7180   5.182   5.504   9.520 -1.8676  0.7569  0.6090
   64CHL1   C10 7181   5.271   5.583   9.694 -0.5044  0.3660  0.1426
   64CHL1   C19 7182   5.351   5.712   9.742  0.1225  0.6146  0.9884
   64CHL1  H19A 7183   5.449   5.721   9.691 -0.4019  2.7801  0.2871
   64CHL1  H19B 7184   5.284   5.800   9.728 -2.0370 -1.3350 -1.6714
   64CHL1  H19C 7185   5.366   5.710   9.852 -0.5440 -1.0014  1.0618
   64CHL1    C1 7186   5.122   5.589   9.755 -0.2700  0.0932  0.2666
   64CHL1   H1A 7187   5.088   5.695   9.754  1.4055  0.6512 -1.0541
   64CHL1   H1B 7188   5.046   5.524   9.707 -0.8170  0.7579  0.2198
   64CHL1    C2 7189   5.108   5.547   9.901 -0.2159 -0.0524  0.5661
   64CHL1   H2A 7190   5.002   5.554   9.936 -0.2783  0.5319  0.2590
   64CHL1   H2B 7191   5.168   5.614   9.967  0.0570 -0.8090  1.0855
   64CHL1   C20 7192   5.305   5.804   9.034  0.4432 -0.3927 -0.2240
   64CHL1   H20 7193   5.401   5.856   9.051 -1.2687  2.5840  0.6768
   64CHL1   C21 7194   5.178   5.883   9.049  0.3422  0.3401 -0.0713
   64CHL1  H21A 7195   5.186   5.928   9.150 -1.1122  0.7854 -0.1402
   64CHL1  H21B 7196   5.086   5.821   9.051  0.5699 -0.0614 -1.3409
   64CHL1  H21C 7197   5.159   5.963   8.974 -1.8567 -0.4233 -0.3664
   64CHL1   C22 7198   5.311   5.756   8.886 -0.2874  0.0770 -0.2893
   64CHL1  H22A 7199   5.312   5.844   8.819 -0.9249  1.5320  1.5603
   64CHL1  H22B 7200   5.415   5.719   8.874 -0.5101  0.0409 -2.1963
   64CHL1   C23 7201   5.208   5.650   8.828 -0.5798 -0.0388  0.0299
   64CHL1  H23A 7202   5.244   5.554   8.871 -0.7284 -1.2615 -2.4786
   64CHL1  H23B 7203   5.109   5.675   8.873 -1.0984  0.8120 -1.5495
   64CHL1   C24 7204   5.205   5.653   8.677 -0.6252  0.0324 -0.1409
   64CHL1  H24A 7205   5.151   5.740   8.633 -0.5406 -0.7147 -1.7569
   64CHL1  H24B 7206   5.314   5.645   8.658 -0.3425 -0.1695  1.5373
   64CHL1   C25 7207   5.123   5.534   8.628 -0.1860 -0.1124 -0.8806
   64CHL1   H25 7208   5.177   5.439   8.652 -0.7078 -0.1030  0.3929
   64CHL1   C26 7209   4.982   5.525   8.693 -0.4887  0.3715 -0.1059
   64CHL1  H26A 7210   4.928   5.622   8.687 -0.2147  0.5699  0.5602
   64CHL1  H26B 7211   4.920   5.445   8.648 -1.2694  0.9100  0.0180
   64CHL1  H26C 7212   4.983   5.490   8.799 -3.6972  2.1297  0.5653
   64CHL1   C27 7213   5.103   5.535   8.474  0.1891  0.0235  0.1799
   64CHL1  H27A 7214   5.204   5.521   8.431  1.0468 -1.4995  2.5519
   64CHL1  H27B 7215   5.037   5.453   8.438 -0.9445  1.0054  0.0271
   64CHL1  H27C 7216   5.066   5.635   8.446  0.8123  0.6769  1.6289
   65CHL1    C3 7217   0.761   3.325  10.312 -0.0603 -0.0539 -0.7952
   65CHL1    H3 7218   0.656   3.354  10.293  0.7571  3.1680 -0.5937
   65CHL1    O3 7219   0.768   3.312  10.452  0.5432 -0.1950 -0.0782
   65CHL1   H3' 7220   0.857   3.288  10.479 -0.0357 -0.1903  1.9829
   65CHL1    C4 7221   0.804   3.197  10.239 -0.3652  0.2590  0.1418
   65CHL1   H4A 7222   0.909   3.179  10.270 -0.3047  0.8295  0.2884
   65CHL1   H4B 7223   0.748   3.109  10.276 -1.3073  0.6285 -0.3848
   65CHL1    C5 7224   0.813   3.222  10.088  0.6539  0.9418  0.5052
   65CHL1    C6 7225   0.753   3.139  10.003  0.4818  0.1447  0.4858
   65CHL1    H6 7226   0.680   3.067  10.043  0.7335 -0.4930 -0.1912
   65CHL1    C7 7227   0.763   3.136   9.855 -1.0694  0.5047  1.3470
   65CHL1   H7A 7228   0.767   3.039   9.801 -0.8634  1.0060  0.4481
   65CHL1   H7B 7229   0.674   3.186   9.812 -0.9921 -0.0614  0.5034
   65CHL1    C8 7230   0.875   3.228   9.807  0.2000  0.6533  0.2760
   65CHL1    H8 7231   0.965   3.163   9.816  0.5266  0.9670 -0.7334
   65CHL1   C14 7232   0.852   3.260   9.658  0.4554  0.1292  0.1789
   65CHL1   H14 7233   0.756   3.315   9.661  0.1296 -0.4605  0.5953
   65CHL1   C15 7234   0.824   3.150   9.556  1.2400 -0.0384 -0.0726
   65CHL1  H15A 7235   0.901   3.071   9.550  1.8432  0.4818  0.8879
   65CHL1  H15B 7236   0.722   3.106   9.564  1.4765 -0.9322 -1.8098
   65CHL1   C16 7237   0.833   3.224   9.420 -0.3034  0.8664 -0.0276
   65CHL1  H16A 7238   0.897   3.158   9.358 -1.5855 -0.1589 -0.2896
   65CHL1  H16B 7239   0.735   3.239   9.369 -0.7481  3.2176  1.4274
   65CHL1   C17 7240   0.897   3.363   9.446  0.5986 -0.1951  0.3727
   65CHL1   H17 7241   0.820   3.443   9.442  1.6805  0.8131 -0.5207
   65CHL1   C13 7242   0.955   3.358   9.590  0.3497 -0.7188  0.1554
   65CHL1   C18 7243   1.097   3.296   9.588 -0.5834 -0.2820  0.5321
   65CHL1  H18A 7244   1.133   3.287   9.693  0.5683  2.5287  0.4355
   65CHL1  H18B 7245   1.095   3.201   9.532  1.6202  1.3697 -2.5012
   65CHL1  H18C 7246   1.179   3.356   9.541 -1.6690  0.6958 -0.1312
   65CHL1   C12 7247   0.955   3.489   9.671  0.6839 -0.1977 -0.1125
   65CHL1  H12A 7248   1.031   3.565   9.644  0.6735 -0.1712 -0.0675
   65CHL1  H12B 7249   0.854   3.535   9.667 -0.1041 -1.6826  1.9852
   65CHL1   C11 7250   0.966   3.465   9.819  0.2077  0.4377  0.3978
   65CHL1  H11A 7251   1.073   3.436   9.822  0.6810  2.0635  0.0345
   65CHL1  H11B 7252   0.960   3.561   9.875  0.2218  1.2722 -0.9913
   65CHL1    C9 7253   0.879   3.362   9.887  0.1053 -0.8539  0.2135
   65CHL1    H9 7254   0.776   3.402   9.873  0.6879  0.9042  0.8168
   65CHL1   C10 7255   0.894   3.341  10.039 -0.5548 -0.8174 -0.8544
   65CHL1   C19 7256   1.047   3.319  10.060 -0.3301 -0.5313  0.5390
   65CHL1  H19A 7257   1.094   3.260   9.978  2.0510  1.0395  0.7320
   65CHL1  H19B 7258   1.091   3.421  10.064 -1.2547 -0.0655 -0.7827
   65CHL1  H19C 7259   1.069   3.270  10.157  2.0884  1.8472  1.2428
   65CHL1    C1 7260   0.850   3.471  10.114 -0.0417 -0.2483  0.0623
   65CHL1   H1A 7261   0.921   3.552  10.086  0.1429 -1.0737 -1.9806
   65CHL1   H1B 7262   0.751   3.504  10.075 -1.7599 -3.3091  1.7249
   65CHL1    C2 7263   0.842   3.442  10.268  0.2721 -0.3980  0.1931
   65CHL1   H2A 7264   0.818   3.534  10.325 -0.0256  0.3345 -1.1042
   65CHL1   H2B 7265   0.948   3.424  10.297  0.9923  1.5859 -1.0910
   65CHL1   C20 7266   0.996   3.408   9.340 -0.0054  0.2215  0.1206
   65CHL1   H20 7267   1.077   3.333   9.325  0.1082  0.1360  1.1234
   65CHL1   C21 7268   1.055   3.546   9.371 -0.0055 -0.7637 -0.4353
   65CHL1  H21A 7269   0.972   3.620   9.375 -1.1683 -2.1187  0.8249
   65CHL1  H21B 7270   1.128   3.576   9.293  0.0328 -1.6112 -0.7284
   65CHL1  H21C 7271   1.115   3.552   9.464 -2.3622 -0.7143  1.1291
   65CHL1   C22 7272   0.923   3.411   9.203 -0.8940  0.0101 -0.0026
   65CHL1  H22A 7273   0.846   3.331   9.199  1.2270 -2.1201  0.5675
   65CHL1  H22B 7274   0.869   3.507   9.195 -3.3449 -1.4928 -2.2821
   65CHL1   C23 7275   1.020   3.379   9.094  0.3490  0.4136 -0.0680
   65CHL1  H23A 7276   1.062   3.477   9.064  1.2747 -0.4759 -1.7637
   65CHL1  H23B 7277   1.095   3.300   9.113  1.4783  1.2554 -0.9452
   65CHL1   C24 7278   0.948   3.329   8.969  0.1334 -0.8063  0.9473
   65CHL1  H24A 7279   0.880   3.247   9.002  0.8435 -1.0974  1.6899
   65CHL1  H24B 7280   0.892   3.420   8.939  1.5270 -0.0170  0.6812
   65CHL1   C25 7281   1.044   3.289   8.857  0.9510  0.2259 -0.3381
   65CHL1   H25 7282   1.148   3.291   8.897  1.8745 -0.1000 -2.6030
   65CHL1   C26 7283   1.020   3.149   8.793 -0.5271 -0.4387 -1.0198
   65CHL1  H26A 7284   0.925   3.141   8.735 -1.2848 -1.2465  0.3157
   65CHL1  H26B 7285   1.100   3.120   8.722 -2.4482 -0.5153 -3.2190
   65CHL1  H26C 7286   1.024   3.070   8.870 -1.4253  1.1801  0.7274
   65CHL1   C27 7287   1.036   3.386   8.739 -0.7046 -0.1317 -0.7626
   65CHL1  H27A 7288   0.936   3.397   8.693 -1.2065  0.9486  0.5678
   65CHL1  H27B 7289   1.061   3.483   8.788  3.7156 -0.0650 -2.8670
   65CHL1  H27C 7290   1.109   3.355   8.661 -0.1771 -0.6827 -0.0550
   66CHL1    C3 7291   6.122   1.149  10.788  0.2598 -0.1153  0.3502
   66CHL1    H3 7292   6.197   1.187  10.715  0.0133  0.4678  0.3991
   66CHL1    O3 7293   6.162   1.187  10.919 -0.0662  0.5590 -0.2678
   66CHL1   H3' 7294   6.113   1.260  10.957 -0.5504  0.0160  0.1736
   66CHL1    C4 7295   5.989   1.224  10.765  0.4518  0.2175 -0.3634
   66CHL1   H4A 7296   5.929   1.196  10.854 -0.2200 -1.9847 -1.4671
   66CHL1   H4B 7297   6.008   1.333  10.762  4.9516 -0.5108 -2.3730
   66CHL1    C5 7298   5.931   1.194  10.633 -0.2128 -0.4962 -0.0555
   66CHL1    C6 7299   5.911   1.287  10.539  0.0874 -0.1349  0.4697
   66CHL1    H6 7300   5.922   1.394  10.562  0.4401 -0.1784  0.5063
   66CHL1    C7 7301   5.851   1.256  10.400 -0.4315 -0.1653  0.0691
   66CHL1   H7A 7302   5.788   1.346  10.384 -1.3602 -0.0056  4.2540
   66CHL1   H7B 7303   5.933   1.262  10.325  0.0681  1.6455  0.7342
   66CHL1    C8 7304   5.776   1.121  10.405 -0.5997  0.2585 -0.2355
   66CHL1    H8 7305   5.677   1.148  10.450 -0.1057  2.2125 -0.2633
   66CHL1   C14 7306   5.747   1.074  10.261 -0.1098 -0.0220  0.0771
   66CHL1   H14 7307   5.848   1.061  10.215 -1.0178 -2.0469 -1.4163
   66CHL1   C15 7308   5.662   1.168  10.173 -0.2832  0.4447  0.4177
   66CHL1  H15A 7309   5.567   1.201  10.221 -1.6051 -1.3042 -0.9023
   66CHL1  H15B 7310   5.722   1.256  10.142 -0.1539 -0.5905 -2.3959
   66CHL1   C16 7311   5.626   1.072  10.053  0.5043 -0.8670  0.5177
   66CHL1  H16A 7312   5.519   1.072  10.026  0.7464 -1.6105 -0.4465
   66CHL1  H16B 7313   5.686   1.105   9.966 -1.3345  0.1510 -0.3910
   66CHL1   C17 7314   5.668   0.930  10.098  0.4599 -0.5017  0.5562
   66CHL1   H17 7315   5.773   0.921  10.064  0.0806  3.4613 -1.9436
   66CHL1   C13 7316   5.678   0.937  10.250 -0.4751  1.2163  0.5032
   66CHL1   C18 7317   5.540   0.943  10.304  0.3075 -0.2933  0.2368
   66CHL1  H18A 7318   5.474   1.019  10.256 -0.2020 -1.8783 -1.6424
   66CHL1  H18B 7319   5.489   0.845  10.307  0.1070 -0.1795  0.5672
   66CHL1  H18C 7320   5.543   0.966  10.413  0.6162 -0.1954  0.2096
   66CHL1   C12 7321   5.759   0.826  10.324  0.9229  0.6608 -0.0760
   66CHL1  H12A 7322   5.710   0.728  10.338  1.4732  0.4197  0.2023
   66CHL1  H12B 7323   5.850   0.809  10.262  1.4027  0.2064  0.7374
   66CHL1   C11 7324   5.805   0.875  10.462 -0.4376  0.2609  0.5301
   66CHL1  H11A 7325   5.711   0.887  10.519 -2.0389 -1.3896 -1.7110
   66CHL1  H11B 7326   5.877   0.801  10.505  1.8343 -0.5044 -4.2085
   66CHL1    C9 7327   5.864   1.018  10.475  0.2569  0.3570  0.0291
   66CHL1    H9 7328   5.953   1.009  10.410 -0.3660 -0.3557 -0.7347
   66CHL1   C10 7329   5.914   1.048  10.617 -0.5707  0.0055 -0.0406
   66CHL1   C19 7330   5.804   0.998  10.715  0.3064  0.5595  0.6901
   66CHL1  H19A 7331   5.832   1.014  10.821  1.1505  0.9731  0.4067
   66CHL1  H19B 7332   5.709   1.052  10.695 -1.1793 -1.3773  2.2404
   66CHL1  H19C 7333   5.775   0.890  10.716  2.2727  0.0106  0.6606
   66CHL1    C1 7334   6.046   0.975  10.644 -0.4495 -0.2830  0.1270
   66CHL1   H1A 7335   6.021   0.869  10.623 -1.7866 -0.0066  0.2961
   66CHL1   H1B 7336   6.115   1.013  10.565 -3.0994  0.7675 -1.7918
   66CHL1    C2 7337   6.109   0.999  10.781  0.2120  0.4315 -0.3100
   66CHL1   H2A 7338   6.206   0.945  10.780 -1.3338 -2.4740 -1.8366
   66CHL1   H2B 7339   6.045   0.965  10.866  1.1577 -1.4827 -0.3372
   66CHL1   C20 7340   5.596   0.815  10.026  0.2771  0.1827  0.5199
   66CHL1   H20 7341   5.488   0.823  10.050  0.4064 -1.6072  1.7715
   66CHL1   C21 7342   5.637   0.673  10.070  0.1569  0.1750 -0.1356
   66CHL1  H21A 7343   5.742   0.644  10.048  0.1766 -0.9848  1.3852
   66CHL1  H21B 7344   5.564   0.599  10.030  0.0562  0.2337 -0.0632
   66CHL1  H21C 7345   5.611   0.677  10.178 -2.0850  2.7623 -0.7062
   66CHL1   C22 7346   5.606   0.835   9.875 -0.4123  0.7808  0.3223
   66CHL1  H22A 7347   5.536   0.912   9.834 -0.2918  0.5191 -0.3777
   66CHL1  H22B 7348   5.702   0.878   9.839  0.6941 -1.7625  0.1548
   66CHL1   C23 7349   5.586   0.707   9.789 -0.7025  0.4863  0.5516
   66CHL1  H23A 7350   5.657   0.622   9.803  2.0855  2.8376  1.0472
   66CHL1  H23B 7351   5.494   0.662   9.833  1.7846 -3.1319  2.3771
   66CHL1   C24 7352   5.573   0.734   9.640 -0.0625  0.0066  0.3020
   66CHL1  H24A 7353   5.497   0.814   9.626  0.0975  0.0254 -0.4882
   66CHL1  H24B 7354   5.668   0.775   9.599  0.2953  0.0844  1.1923
   66CHL1   C25 7355   5.534   0.606   9.569  0.3157 -0.1875  0.0293
   66CHL1   H25 7356   5.585   0.520   9.617  0.4275 -1.2082 -1.8909
   66CHL1   C26 7357   5.386   0.589   9.576 -0.2240 -0.1600  0.4562
   66CHL1  H26A 7358   5.337   0.575   9.674  0.5878  1.5737  1.1286
   66CHL1  H26B 7359   5.328   0.665   9.520 -0.2651  0.4774  1.3530
   66CHL1  H26C 7360   5.366   0.500   9.512  1.9552 -0.0258 -0.4766
   66CHL1   C27 7361   5.570   0.611   9.425  0.0961 -0.4012 -0.4071
   66CHL1  H27A 7362   5.669   0.656   9.406 -0.2421  0.5142 -0.0241
   66CHL1  H27B 7363   5.561   0.513   9.374 -0.7233 -1.2208  1.2672
   66CHL1  H27C 7364   5.497   0.676   9.373  1.5647  2.0871  0.5344
   67CHL1    C3 7365   3.496   1.576  10.322  0.0966 -0.4133 -0.4437
   67CHL1    H3 7366   3.558   1.485  10.310  0.1099 -0.2503 -1.6356
   67CHL1    O3 7367   3.505   1.630  10.454  0.6170  0.3204 -1.0251
   67CHL1   H3' 7368   3.488   1.725  10.449 -0.9217  0.3580  2.9054
   67CHL1    C4 7369   3.530   1.683  10.217 -0.9952 -0.2427  0.2710
   67CHL1   H4A 7370   3.467   1.766  10.256 -0.1401  0.4173  0.2519
   67CHL1   H4B 7371   3.640   1.697  10.223 -1.1175  1.8316 -1.5889
   67CHL1    C5 7372   3.493   1.641  10.075  0.9562  0.3490  0.3463
   67CHL1    C6 7373   3.585   1.660   9.973 -0.4267  0.1427  0.2885
   67CHL1    H6 7374   3.680   1.710   9.997 -0.2713  0.6177 -1.2470
   67CHL1    C7 7375   3.558   1.623   9.826  0.4946 -0.0102 -0.1872
   67CHL1   H7A 7376   3.584   1.711   9.764  1.0840  0.3023  0.5065
   67CHL1   H7B 7377   3.631   1.550   9.786  0.6537 -0.4468  0.8992
   67CHL1    C8 7378   3.412   1.579   9.807  0.2814 -1.0984  0.0950
   67CHL1    H8 7379   3.354   1.667   9.773 -0.8333 -2.1740 -0.8695
   67CHL1   C14 7380   3.410   1.497   9.675  0.5069  0.5539 -0.0601
   67CHL1   H14 7381   3.461   1.400   9.692  0.3443  0.3768 -0.5970
   67CHL1   C15 7382   3.489   1.539   9.558  0.1920 -0.7601 -0.1407
   67CHL1  H15A 7383   3.488   1.649   9.541  3.5061 -0.4313  1.2650
   67CHL1  H15B 7384   3.596   1.509   9.568  1.0162  2.0042 -0.2637
   67CHL1   C16 7385   3.422   1.466   9.440  0.3150  0.7028  0.1813
   67CHL1  H16A 7386   3.386   1.544   9.370 -0.0490  1.0057  0.7130
   67CHL1  H16B 7387   3.487   1.390   9.391  0.0925  1.2459 -0.9765
   67CHL1   C17 7388   3.302   1.384   9.495 -0.1127 -0.4915 -0.0229
   67CHL1   H17 7389   3.345   1.290   9.537 -0.1829 -0.1249  0.8872
   67CHL1   C13 7390   3.274   1.456   9.631 -0.0725  0.2402  0.3270
   67CHL1   C18 7391   3.175   1.576   9.598 -0.1414 -1.0194  0.6081
   67CHL1  H18A 7392   3.075   1.546   9.559  0.4724  1.7091 -3.3267
   67CHL1  H18B 7393   3.158   1.633   9.692 -3.6118 -0.7008 -0.1317
   67CHL1  H18C 7394   3.223   1.655   9.538 -0.3712 -0.7372  0.7916
   67CHL1   C12 7395   3.224   1.351   9.740  0.3331  0.0389  0.7158
   67CHL1  H12A 7396   3.126   1.306   9.709  0.9864  1.0575 -3.0975
   67CHL1  H12B 7397   3.296   1.267   9.748  2.4842  1.8021  0.1628
   67CHL1   C11 7398   3.213   1.424   9.876 -0.3290  0.3136 -0.3320
   67CHL1  H11A 7399   3.132   1.500   9.873 -2.2097 -1.5822  1.2677
   67CHL1  H11B 7400   3.189   1.354   9.958  0.0522  0.4280 -0.1172
   67CHL1    C9 7401   3.352   1.489   9.919  0.0046 -0.1464 -0.3456
   67CHL1    H9 7402   3.422   1.403   9.929  0.9711  0.4155 -2.0854
   67CHL1   C10 7403   3.352   1.573  10.048  0.3106 -0.3648 -0.5054
   67CHL1   C19 7404   3.244   1.683  10.040  0.0367  0.4952  0.0085
   67CHL1  H19A 7405   3.255   1.740   9.945  2.0167  0.8011  0.4006
   67CHL1  H19B 7406   3.142   1.641  10.039  0.4723 -0.5711  0.0374
   67CHL1  H19C 7407   3.252   1.757  10.122  0.6130  3.4917 -2.6236
   67CHL1    C1 7408   3.325   1.471  10.167 -0.2525 -0.2742 -0.5991
   67CHL1   H1A 7409   3.226   1.421  10.158 -0.1737 -0.6890  0.7412
   67CHL1   H1B 7410   3.395   1.386  10.160  0.3291  0.0872  0.5542
   67CHL1    C2 7411   3.352   1.533  10.302 -0.0724 -1.3237 -0.1527
   67CHL1   H2A 7412   3.322   1.461  10.381  0.2977  1.8846  3.0288
   67CHL1   H2B 7413   3.284   1.621  10.311 -0.6748 -1.7768 -0.2963
   67CHL1   C20 7414   3.192   1.353   9.399  0.4928 -0.5613  0.3727
   67CHL1   H20 7415   3.154   1.452   9.366 -1.7552 -1.8964 -1.1138
   67CHL1   C21 7416   3.093   1.253   9.461 -0.0838 -0.2747  0.3006
   67CHL1  H21A 7417   3.032   1.193   9.390 -0.8099  0.4188  0.3423
   67CHL1  H21B 7418   3.022   1.302   9.530  1.7074  0.2817  1.8051
   67CHL1  H21C 7419   3.150   1.177   9.518 -0.3529  0.0235  0.9702
   67CHL1   C22 7420   3.247   1.292   9.266 -0.1793 -0.0153 -0.4706
   67CHL1  H22A 7421   3.328   1.362   9.235 -0.4432  0.7660  0.5657
   67CHL1  H22B 7422   3.278   1.187   9.285 -1.8237 -0.5481 -0.6584
   67CHL1   C23 7423   3.147   1.273   9.154 -0.1469 -0.0229 -0.8025
   67CHL1  H23A 7424   3.056   1.220   9.189  0.0666  1.4397  2.0762
   67CHL1  H23B 7425   3.123   1.376   9.122  0.9405  0.2319 -0.8357
   67CHL1   C24 7426   3.206   1.191   9.039  0.0166 -0.2830 -0.6685
   67CHL1  H24A 7427   3.303   1.244   9.031  0.6245 -0.5388  3.6058
   67CHL1  H24B 7428   3.228   1.083   9.054  3.9796  0.8220  2.1294
   67CHL1   C25 7429   3.136   1.208   8.906 -0.1995  0.7195  0.1895
   67CHL1   H25 7430   3.193   1.132   8.850 -1.2489 -0.3693  0.5700
   67CHL1   C26 7431   2.983   1.171   8.914 -0.2304  0.2612 -0.8626
   67CHL1  H26A 7432   2.969   1.157   8.805 -1.4043 -1.3595 -0.5221
   67CHL1  H26B 7433   2.973   1.077   8.973  2.8823  0.5487  0.2072
   67CHL1  H26C 7434   2.913   1.250   8.947  0.8772  0.7615  0.3532
   67CHL1   C27 7435   3.149   1.348   8.848  0.6939 -0.0159 -0.4643
   67CHL1  H27A 7436   3.084   1.357   8.758 -0.0075 -1.0657 -0.0683
   67CHL1  H27B 7437   3.100   1.424   8.913  1.2458 -0.0481 -0.0140
   67CHL1  H27C 7438   3.254   1.376   8.824  0.1919 -0.2147 -2.9922
   68CHL1    C3 7439   0.994   2.714  10.230  0.7471 -0.1331 -0.2730
   68CHL1    H3 7440   0.942   2.630  10.180  1.0882 -0.9526  0.7405
   68CHL1    O3 7441   0.962   2.708  10.368 -0.0865 -0.5039 -0.1816
   68CHL1   H3' 7442   0.977   2.795  10.405 -1.6219 -0.2744 -0.0301
   68CHL1    C4 7443   1.145   2.700  10.207 -0.2296 -0.1197  0.5158
   68CHL1   H4A 7444   1.200   2.774  10.269 -0.5243  1.0617 -0.6266
   68CHL1   H4B 7445   1.177   2.605  10.255 -0.1144  0.8330  2.3683
   68CHL1    C5 7446   1.195   2.696  10.064  0.2776 -0.2253  0.0027
   68CHL1    C6 7447   1.266   2.597  10.007  0.0468 -0.1128  0.2723
   68CHL1    H6 7448   1.299   2.510  10.065  0.6500 -0.4513 -0.5734
   68CHL1    C7 7449   1.325   2.608   9.867  0.4646 -0.0659  0.2548
   68CHL1   H7A 7450   1.435   2.600   9.879  0.5920 -0.0801 -0.8356
   68CHL1   H7B 7451   1.288   2.523   9.806 -0.0894  0.0319  0.4442
   68CHL1    C8 7452   1.288   2.744   9.801  0.0734 -0.6621  0.0962
   68CHL1    H8 7453   1.356   2.825   9.833 -1.3647  1.5358 -2.2519
   68CHL1   C14 7454   1.286   2.722   9.649 -0.3605  0.4592  0.5598
   68CHL1   H14 7455   1.206   2.648   9.633  0.3277 -0.4330  1.1728
   68CHL1   C15 7456   1.411   2.664   9.585  0.4493  0.2514 -0.3535
   68CHL1  H15A 7457   1.500   2.722   9.618  1.0598  0.5494 -2.4172
   68CHL1  H15B 7458   1.414   2.554   9.603  0.2383 -0.0022 -1.7797
   68CHL1   C16 7459   1.399   2.702   9.431 -1.2213 -0.1699  0.4126
   68CHL1  H16A 7460   1.492   2.756   9.400 -0.2403 -2.1606 -0.1589
   68CHL1  H16B 7461   1.390   2.607   9.375  0.4631  0.1281 -0.3834
   68CHL1   C17 7462   1.274   2.792   9.422 -0.1058  0.4989  0.0972
   68CHL1   H17 7463   1.196   2.716   9.397  1.0950 -1.4884  2.1260
   68CHL1   C13 7464   1.246   2.842   9.566 -0.2289 -0.2207 -0.0237
   68CHL1   C18 7465   1.352   2.954   9.586 -0.1575 -0.2580 -0.5165
   68CHL1  H18A 7466   1.364   2.977   9.695  0.0987  0.8085 -0.7650
   68CHL1  H18B 7467   1.451   2.939   9.538  0.1217  0.9300 -0.3332
   68CHL1  H18C 7468   1.315   3.049   9.543 -0.3347 -0.5426 -0.9861
   68CHL1   C12 7469   1.109   2.890   9.599 -0.5710  0.1136 -0.0911
   68CHL1  H12A 7470   1.072   2.979   9.542  3.0561  0.9273 -1.3267
   68CHL1  H12B 7471   1.043   2.810   9.560 -0.0343 -0.6226  0.5210
   68CHL1   C11 7472   1.102   2.915   9.751  0.4073 -0.6447  0.5064
   68CHL1  H11A 7473   1.136   3.017   9.776  0.1335 -1.2817  3.5944
   68CHL1  H11B 7474   0.995   2.918   9.780  0.8102 -1.6566  2.1356
   68CHL1    C9 7475   1.146   2.794   9.837  0.1632  0.2902  0.8128
   68CHL1    H9 7476   1.076   2.709   9.820  0.1450  0.6435 -1.0396
   68CHL1   C10 7477   1.132   2.821   9.992  0.0241 -0.3699  0.0635
   68CHL1   C19 7478   1.221   2.943  10.017  0.1612 -0.5542 -0.0488
   68CHL1  H19A 7479   1.329   2.922  10.005  0.0779 -0.5545 -0.8059
   68CHL1  H19B 7480   1.188   3.033   9.961 -0.6441 -0.5218  0.4566
   68CHL1  H19C 7481   1.215   2.973  10.124 -2.9768 -0.1120 -0.2839
   68CHL1    C1 7482   0.982   2.855  10.030  0.1300  0.1201  0.5009
   68CHL1   H1A 7483   0.945   2.946   9.978 -0.1332  1.0006  2.2084
   68CHL1   H1B 7484   0.922   2.779   9.975 -0.0284 -1.0223  2.2148
   68CHL1    C2 7485   0.952   2.852  10.178  0.8031  0.1460 -0.1908
   68CHL1   H2A 7486   0.850   2.877  10.212  1.0546  0.1992  0.5267
   68CHL1   H2B 7487   1.026   2.919  10.227  0.2997  1.1617 -0.8173
   68CHL1   C20 7488   1.286   2.901   9.310 -0.3957  0.2998  0.6155
   68CHL1   H20 7489   1.338   2.995   9.338 -0.9723  0.3081  1.6991
   68CHL1   C21 7490   1.141   2.923   9.261 -0.6027  1.0553 -0.3785
   68CHL1  H21A 7491   1.078   2.949   9.348 -1.2932 -1.5285 -0.0637
   68CHL1  H21B 7492   1.102   2.822   9.234  1.7174 -0.0793  0.3599
   68CHL1  H21C 7493   1.145   2.999   9.180  0.4352  0.2951 -1.0657
   68CHL1   C22 7494   1.360   2.850   9.188  0.0601  0.5172 -0.1730
   68CHL1  H22A 7495   1.468   2.825   9.197 -0.0074 -0.2321 -1.2169
   68CHL1  H22B 7496   1.318   2.753   9.152  0.3358 -0.6123  2.4996
   68CHL1   C23 7497   1.359   2.950   9.072 -0.6379 -0.2524 -0.2936
   68CHL1  H23A 7498   1.278   2.916   9.003 -0.7907  0.7475 -0.6094
   68CHL1  H23B 7499   1.343   3.056   9.098 -2.4290 -0.0906 -1.9034
   68CHL1   C24 7500   1.489   2.948   8.981 -0.2954 -1.3644 -0.3985
   68CHL1  H24A 7501   1.571   2.998   9.038 -2.1719 -1.9508  2.9539
   68CHL1  H24B 7502   1.517   2.841   8.976 -1.8921 -1.7780 -0.7783
   68CHL1   C25 7503   1.463   3.002   8.842  0.1525 -0.2033 -0.7239
   68CHL1   H25 7504   1.385   2.935   8.800 -0.9173  1.2700 -1.1108
   68CHL1   C26 7505   1.418   3.146   8.850 -0.3270 -1.0082  0.3039
   68CHL1  H26A 7506   1.375   3.177   8.753 -0.7237  1.0507  1.1088
   68CHL1  H26B 7507   1.341   3.167   8.928  0.9853  1.1153  1.0511
   68CHL1  H26C 7508   1.506   3.213   8.860  0.2392 -1.8407  0.9671
   68CHL1   C27 7509   1.599   2.990   8.773 -0.0662  0.5268 -0.0062
   68CHL1  H27A 7510   1.639   2.886   8.771  1.0147  0.9163  1.1848
   68CHL1  H27B 7511   1.581   3.022   8.669  1.3006  0.9507 -0.1245
   68CHL1  H27C 7512   1.677   3.066   8.795  0.1996  0.9794 -2.3968
   69CHL1    C3 7513   1.205   0.193   6.909 -1.4357  0.2313  0.5287
   69CHL1    H3 7514   1.313   0.216   6.913 -1.0426 -0.7657 -2.6242
   69CHL1    O3 7515   1.168   0.164   6.779  0.2559  0.5387  0.1296
   69CHL1   H3' 7516   1.230   0.104   6.738 -0.0877 -1.8746  3.0071
   69CHL1    C4 7517   1.188   0.067   6.995 -0.3933 -0.1995 -0.2671
   69CHL1   H4A 7518   1.095   0.015   6.963 -0.4786  1.1959 -2.3905
   69CHL1   H4B 7519   1.283   0.014   6.973  0.3919  1.0025  0.1843
   69CHL1    C5 7520   1.180   0.095   7.147  0.1258 -0.4724 -0.1150
   69CHL1    C6 7521   1.253   0.024   7.227 -0.4355  0.2814  0.0574
   69CHL1    H6 7522   1.323  -0.052   7.188 -1.3797 -0.9327  0.6781
   69CHL1    C7 7523   1.252   0.037   7.377  0.0047  0.1099  0.3635
   69CHL1   H7A 7524   1.256  -0.062   7.428 -2.6257 -0.6286 -0.8021
   69CHL1   H7B 7525   1.351   0.077   7.408  1.7519 -2.8111 -1.2400
   69CHL1    C8 7526   1.130   0.126   7.431  0.0595 -0.6994 -0.4964
   69CHL1    H8 7527   1.038   0.066   7.413 -0.4115 -0.1892  0.1484
   69CHL1   C14 7528   1.149   0.174   7.569  0.4894 -0.0268 -0.1054
   69CHL1   H14 7529   1.235   0.244   7.571 -0.5747  1.3116 -0.4139
   69CHL1   C15 7530   1.183   0.066   7.671  0.1587  0.2370 -0.0625
   69CHL1  H15A 7531   1.125  -0.027   7.652 -0.6445  0.4502  1.2245
   69CHL1  H15B 7532   1.287   0.028   7.673 -0.1313 -0.5376  1.5379
   69CHL1   C16 7533   1.147   0.139   7.806  0.3805 -0.6499 -0.0053
   69CHL1  H16A 7534   1.074   0.072   7.858 -0.3541 -0.6554 -1.0391
   69CHL1  H16B 7535   1.242   0.135   7.864 -0.0214 -0.9618  0.6432
   69CHL1   C17 7536   1.092   0.277   7.784 -0.0484  0.4125 -0.0068
   69CHL1   H17 7537   1.179   0.346   7.778 -0.5686  0.9998 -0.8940
   69CHL1   C13 7538   1.033   0.260   7.629 -0.5621  0.1350  0.5446
   69CHL1   C18 7539   0.899   0.177   7.637 -0.0754 -0.1139  0.6142
   69CHL1  H18A 7540   0.829   0.236   7.701 -0.6355 -0.4388  0.3039
   69CHL1  H18B 7541   0.856   0.172   7.535  0.5869 -1.9249  0.4179
   69CHL1  H18C 7542   0.918   0.079   7.686  1.2529  1.4522  3.3858
   69CHL1   C12 7543   1.017   0.380   7.540  0.1981  0.2522 -0.2241
   69CHL1  H12A 7544   0.928   0.440   7.566  0.3862  0.9930 -1.2351
   69CHL1  H12B 7545   1.110   0.441   7.528  0.9068 -1.3361 -3.2739
   69CHL1   C11 7546   0.994   0.342   7.393 -0.1674 -0.1877  0.5480
   69CHL1  H11A 7547   0.901   0.281   7.384  0.7410 -1.1610 -3.0714
   69CHL1  H11B 7548   0.989   0.430   7.326  1.3038 -0.6188 -0.1505
   69CHL1    C9 7549   1.108   0.247   7.343  0.1086  0.5113 -0.0014
   69CHL1    H9 7550   1.197   0.314   7.353  1.1650 -0.8632 -0.0684
   69CHL1   C10 7551   1.093   0.215   7.193  0.5601  0.4014 -0.4574
   69CHL1   C19 7552   0.954   0.160   7.159  0.0794 -0.2998  0.4928
   69CHL1  H19A 7553   0.949   0.109   7.060  2.0468  0.9766 -0.2882
   69CHL1  H19B 7554   0.909   0.101   7.242 -1.3318  0.2105  0.1133
   69CHL1  H19C 7555   0.890   0.250   7.143 -0.1723 -0.6454 -0.4821
   69CHL1    C1 7556   1.130   0.334   7.097  0.0562 -0.9098 -0.6580
   69CHL1   H1A 7557   1.077   0.423   7.136  3.5618  1.2647 -0.6500
   69CHL1   H1B 7558   1.238   0.352   7.118 -0.3441  1.4648 -0.5202
   69CHL1    C2 7559   1.116   0.313   6.950  0.5394  0.2098 -0.2568
   69CHL1   H2A 7560   1.158   0.409   6.912  2.5368 -0.6647 -0.3288
   69CHL1   H2B 7561   1.010   0.292   6.926 -0.5783  2.4899  2.4142
   69CHL1   C20 7562   1.005   0.331   7.902 -0.5971  0.2320  0.0895
   69CHL1   H20 7563   0.921   0.259   7.912  0.3310 -1.0497 -1.1380
   69CHL1   C21 7564   0.972   0.477   7.875  0.7968 -1.0353 -1.0306
   69CHL1  H21A 7565   0.937   0.485   7.769 -0.7923 -0.9568 -0.5140
   69CHL1  H21B 7566   1.064   0.538   7.883  1.0012 -1.4640 -0.1477
   69CHL1  H21C 7567   0.893   0.514   7.943  2.1481  0.1877 -0.1101
   69CHL1   C22 7568   1.079   0.341   8.040 -0.5594 -0.4018 -0.4688
   69CHL1  H22A 7569   1.101   0.238   8.076 -0.3720  0.1346  0.9839
   69CHL1  H22B 7570   1.175   0.396   8.029 -0.8137  0.4382  1.3389
   69CHL1   C23 7571   1.000   0.414   8.155  0.2897 -0.6940 -0.3288
   69CHL1  H23A 7572   1.018   0.523   8.149 -1.4278 -0.1070  3.5868
   69CHL1  H23B 7573   0.893   0.389   8.133  0.6965 -0.3105 -2.9087
   69CHL1   C24 7574   1.039   0.363   8.292  0.4434 -0.1826 -0.1497
   69CHL1  H24A 7575   1.011   0.255   8.288 -0.7576  0.1735 -1.6902
   69CHL1  H24B 7576   1.149   0.369   8.311  0.5015 -1.2721 -0.1042
   69CHL1   C25 7577   0.961   0.426   8.411 -0.0422 -0.0170 -0.5375
   69CHL1   H25 7578   1.000   0.530   8.420  0.9091 -0.5444  1.8169
   69CHL1   C26 7579   0.811   0.431   8.394 -0.1161 -0.1385  0.5290
   69CHL1  H26A 7580   0.779   0.332   8.355  1.5185 -1.2515  1.9340
   69CHL1  H26B 7581   0.749   0.449   8.485 -1.9334 -1.3359 -0.4580
   69CHL1  H26C 7582   0.771   0.504   8.321 -2.8420 -2.3487 -0.2858
   69CHL1   C27 7583   1.004   0.349   8.538 -0.2302  0.0579  0.3934
   69CHL1  H27A 7584   0.938   0.263   8.560  1.1623 -2.0786 -3.2833
   69CHL1  H27B 7585   1.108   0.309   8.535 -1.0166 -1.9699 -0.8565
   69CHL1  H27C 7586   1.016   0.410   8.630 -0.0202 -0.8093  0.9511
   70CHL1    C3 7587   0.198   4.112   7.153  0.0918 -0.0252 -0.1632
   70CHL1    H3 7588   0.240   4.206   7.194 -3.8455  2.2286 -1.0732
   70CHL1    O3 7589   0.164   4.135   7.015 -0.0745 -0.0437 -0.1240
   70CHL1   H3' 7590   0.153   4.050   6.972  1.0376  0.4751 -1.4800
   70CHL1    C4 7591   0.301   4.001   7.168 -0.4816 -0.2788  0.0394
   70CHL1   H4A 7592   0.268   3.908   7.117 -1.3500 -0.5966  1.1460
   70CHL1   H4B 7593   0.392   4.027   7.111 -0.2611  1.0397  0.9660
   70CHL1    C5 7594   0.323   3.962   7.315 -0.6432  0.1042 -0.3701
   70CHL1    C6 7595   0.446   3.965   7.360 -0.7548 -1.2005 -0.0212
   70CHL1    H6 7596   0.530   3.993   7.296  0.9273 -1.4159  2.0246
   70CHL1    C7 7597   0.493   3.930   7.500 -0.1106  0.4737  0.4886
   70CHL1   H7A 7598   0.586   3.870   7.492 -1.1497 -1.2404  0.9704
   70CHL1   H7B 7599   0.515   4.028   7.550 -0.2643  2.0394 -2.4310
   70CHL1    C8 7600   0.378   3.847   7.573 -0.2068 -0.1689 -0.8139
   70CHL1    H8 7601   0.377   3.746   7.526 -1.1488  0.4225 -2.0718
   70CHL1   C14 7602   0.412   3.842   7.724  0.5418 -0.2414 -1.0915
   70CHL1   H14 7603   0.411   3.950   7.751  1.1255 -0.6041  0.4661
   70CHL1   C15 7604   0.551   3.789   7.774  0.9885  0.4358 -1.0442
   70CHL1  H15A 7605   0.581   3.698   7.718 -0.0784  0.9862 -2.5096
   70CHL1  H15B 7606   0.622   3.874   7.765 -2.3426  3.2926 -1.3049
   70CHL1   C16 7607   0.521   3.766   7.925 -0.0087  0.2275 -0.1341
   70CHL1  H16A 7608   0.525   3.656   7.942  1.7960  0.3054 -0.0149
   70CHL1  H16B 7609   0.583   3.834   7.986  1.4521 -2.6911  1.7577
   70CHL1   C17 7610   0.374   3.805   7.951  0.6012 -0.3244  0.0796
   70CHL1   H17 7611   0.372   3.914   7.974  2.1850 -0.1535 -0.4927
   70CHL1   C13 7612   0.311   3.776   7.818  0.5669 -0.0511 -1.2386
   70CHL1   C18 7613   0.296   3.623   7.799  0.4557  0.7493 -0.9242
   70CHL1  H18A 7614   0.383   3.555   7.809 -0.4305 -0.3127 -0.3665
   70CHL1  H18B 7615   0.219   3.584   7.868  1.3522  0.1324 -0.2560
   70CHL1  H18C 7616   0.264   3.600   7.695 -3.6841  0.1252  0.4194
   70CHL1   C12 7617   0.176   3.850   7.795 -0.5386  0.1801  0.5373
   70CHL1  H12A 7618   0.096   3.793   7.847 -0.6825  0.2350  0.3792
   70CHL1  H12B 7619   0.193   3.949   7.840 -1.1346  0.5328 -0.0055
   70CHL1   C11 7620   0.130   3.869   7.647 -0.9230  0.2458 -0.7430
   70CHL1  H11A 7621   0.083   3.773   7.618  0.0468 -1.5696  3.3079
   70CHL1  H11B 7622   0.053   3.949   7.652  0.2107  1.4863 -2.2797
   70CHL1    C9 7623   0.246   3.923   7.553  0.0295  1.0725 -0.1298
   70CHL1    H9 7624   0.264   4.027   7.587 -2.2308  1.5289 -0.2372
   70CHL1   C10 7625   0.205   3.927   7.401 -0.5210  0.7776  0.3880
   70CHL1   C19 7626   0.163   3.785   7.343  0.2289 -0.8003  0.4128
   70CHL1  H19A 7627   0.237   3.707   7.368 -1.5144 -2.2642  1.1185
   70CHL1  H19B 7628   0.069   3.759   7.395  0.0702 -1.2228 -0.0782
   70CHL1  H19C 7629   0.125   3.792   7.238  0.3856 -0.8250  0.3552
   70CHL1    C1 7630   0.102   4.041   7.371 -0.6573  0.1068  0.1746
   70CHL1   H1A 7631   0.007   4.016   7.423  0.2504 -0.8236  1.4191
   70CHL1   H1B 7632   0.146   4.127   7.426 -2.6696  1.9607 -1.0373
   70CHL1    C2 7633   0.066   4.077   7.225 -0.2265  0.2728  0.1596
   70CHL1   H2A 7634   0.012   4.174   7.226 -1.9979 -0.6251 -2.2307
   70CHL1   H2B 7635   0.007   3.997   7.175  3.2927 -1.1575 -1.9227
   70CHL1   C20 7636   0.330   3.732   8.078 -0.3600 -0.4299  0.1443
   70CHL1   H20 7637   0.345   3.623   8.063  0.6056 -0.2623 -0.1030
   70CHL1   C21 7638   0.176   3.766   8.094  0.1014 -0.2912  0.4252
   70CHL1  H21A 7639   0.154   3.875   8.090  3.1428  0.3255 -1.1129
   70CHL1  H21B 7640   0.134   3.744   8.194 -1.2248  0.8694  0.1374
   70CHL1  H21C 7641   0.109   3.719   8.019 -0.0032  0.3286  0.1271
   70CHL1   C22 7642   0.405   3.783   8.198 -0.1884  0.7947 -0.2626
   70CHL1  H22A 7643   0.511   3.749   8.197  0.0131  1.4067 -0.3963
   70CHL1  H22B 7644   0.398   3.894   8.198  0.3783  0.8334  0.4735
   70CHL1   C23 7645   0.344   3.733   8.330 -0.3705 -0.1007  0.8842
   70CHL1  H23A 7646   0.249   3.782   8.359 -1.7203 -1.0023 -1.9083
   70CHL1  H23B 7647   0.322   3.625   8.323  0.9189 -0.3232 -0.0312
   70CHL1   C24 7648   0.427   3.760   8.452 -0.0385 -0.4956  0.0503
   70CHL1  H24A 7649   0.519   3.698   8.444 -1.1419 -2.0179 -1.1649
   70CHL1  H24B 7650   0.474   3.861   8.457  0.9341 -0.7081 -3.7024
   70CHL1   C25 7651   0.356   3.722   8.582 -0.1122  0.5139 -0.2441
   70CHL1   H25 7652   0.257   3.770   8.592  0.1834  0.6473  2.2114
   70CHL1   C26 7653   0.330   3.572   8.601  0.5098  0.5463  0.1448
   70CHL1  H26A 7654   0.244   3.530   8.544  1.2572  1.1068 -1.4269
   70CHL1  H26B 7655   0.414   3.518   8.554  0.9276  2.0775 -0.9123
   70CHL1  H26C 7656   0.323   3.536   8.706  1.3865  2.3421  0.8480
   70CHL1   C27 7657   0.444   3.770   8.704  0.5492 -0.5826 -0.6953
   70CHL1  H27A 7658   0.389   3.759   8.800  0.1389  1.0570 -0.7310
   70CHL1  H27B 7659   0.538   3.713   8.720  0.7984  0.7068  2.7400
   70CHL1  H27C 7660   0.482   3.873   8.689 -2.8978  0.8600 -0.0550
   71CHL1    C3 7661   6.484   5.839   6.888 -0.6229 -1.4496  0.2124
   71CHL1    H3 7662   6.585   5.885   6.893 -1.1675 -0.4412  2.8857
   71CHL1    O3 7663   6.433   5.851   6.758 -0.1105 -0.0651 -0.0836
   71CHL1   H3' 7664   6.340   5.830   6.768 -0.1345 -0.2288 -0.6198
   71CHL1    C4 7665   6.497   5.691   6.929  0.4827  0.9103  0.4185
   71CHL1   H4A 7666   6.394   5.650   6.925  1.1338 -1.1065  2.9891
   71CHL1   H4B 7667   6.569   5.634   6.867  2.3671  2.1220  1.4528
   71CHL1    C5 7668   6.543   5.689   7.077  0.3277 -0.0851 -0.3965
   71CHL1    C6 7669   6.657   5.622   7.099 -0.4567 -0.1501 -0.0309
   71CHL1    H6 7670   6.706   5.576   7.012 -2.5239  1.7642 -2.2699
   71CHL1    C7 7671   6.718   5.617   7.235 -0.1686 -0.0871  0.1436
   71CHL1   H7A 7672   6.782   5.526   7.245  0.4882  0.4549  1.0455
   71CHL1   H7B 7673   6.794   5.698   7.243 -0.7885  0.4391  0.7704
   71CHL1    C8 7674   6.603   5.646   7.344 -0.4196 -0.0824  0.1706
   71CHL1    H8 7675   6.524   5.568   7.349  1.0205 -1.6925 -1.6890
   71CHL1   C14 7676   6.682   5.657   7.477 -0.3935 -0.1648  0.2041
   71CHL1   H14 7677   6.746   5.746   7.458 -0.1336 -0.2884  0.4873
   71CHL1   C15 7678   6.769   5.539   7.515 -0.2334  0.2428  0.1119
   71CHL1  H15A 7679   6.708   5.446   7.521  0.6659 -0.4676 -1.5106
   71CHL1  H15B 7680   6.870   5.529   7.470  0.2576  1.9993  0.7572
   71CHL1   C16 7681   6.802   5.571   7.659  0.3300 -0.6821  0.1352
   71CHL1  H16A 7682   6.804   5.482   7.726 -0.0251 -0.7355  0.0757
   71CHL1  H16B 7683   6.905   5.611   7.650  0.4193 -0.7703  0.7474
   71CHL1   C17 7684   6.707   5.688   7.708 -0.7078  0.0332 -0.2965
   71CHL1   H17 7685   6.769   5.780   7.700 -0.7701 -0.1244 -2.7767
   71CHL1   C13 7686   6.597   5.697   7.600  0.0572 -0.5347  1.0009
   71CHL1   C18 7687   6.486   5.591   7.631  0.0436 -0.2269 -0.1736
   71CHL1  H18A 7688   6.432   5.549   7.544 -1.6684 -0.4331  0.9708
   71CHL1  H18B 7689   6.522   5.507   7.695 -2.1060 -1.3633 -0.4327
   71CHL1  H18C 7690   6.403   5.631   7.693  0.9951  0.8629  0.4194
   71CHL1   C12 7691   6.531   5.835   7.566 -0.4869  0.2294  0.3473
   71CHL1  H12A 7692   6.462   5.865   7.648 -0.1715 -0.6698  0.9474
   71CHL1  H12B 7693   6.611   5.912   7.571 -0.2272  0.1865 -2.5553
   71CHL1   C11 7694   6.449   5.838   7.435 -0.0856 -0.0715  0.2842
   71CHL1  H11A 7695   6.368   5.764   7.453 -1.3448  0.6599 -2.1150
   71CHL1  H11B 7696   6.401   5.932   7.399 -0.7301 -0.0845  1.0863
   71CHL1    C9 7697   6.533   5.780   7.311 -0.7230 -0.0356 -0.4059
   71CHL1    H9 7698   6.614   5.854   7.297 -0.0987 -0.4623  0.8336
   71CHL1   C10 7699   6.463   5.775   7.179  0.7324 -0.7303 -0.3498
   71CHL1   C19 7700   6.318   5.715   7.194  0.1701  0.2629  0.2038
   71CHL1  H19A 7701   6.283   5.697   7.090  0.9486 -1.9775  0.2856
   71CHL1  H19B 7702   6.316   5.620   7.253 -0.0599 -0.1757 -0.5005
   71CHL1  H19C 7703   6.246   5.793   7.225  3.6047  3.5622  0.1818
   71CHL1    C1 7704   6.451   5.918   7.125 -0.2865 -0.4012 -0.0700
   71CHL1   H1A 7705   6.387   5.977   7.194  1.4387  0.9466  0.4073
   71CHL1   H1B 7706   6.552   5.964   7.132 -0.1000 -0.7246 -0.5741
   71CHL1    C2 7707   6.404   5.928   6.978  0.6049  0.3569 -0.0322
   71CHL1   H2A 7708   6.410   6.034   6.943 -1.2833  0.7443  0.8061
   71CHL1   H2B 7709   6.300   5.891   6.981  0.6073  0.4480  1.4134
   71CHL1   C20 7710   6.666   5.689   7.857  0.5901  0.5184  0.5934
   71CHL1   H20 7711   6.599   5.607   7.890 -1.1418  1.6511 -0.0571
   71CHL1   C21 7712   6.575   5.809   7.896 -0.5859  0.6785 -0.5132
   71CHL1  H21A 7713   6.558   5.803   8.005  0.4232 -0.5625 -0.4081
   71CHL1  H21B 7714   6.482   5.796   7.836 -1.1232  1.2993  0.1750
   71CHL1  H21C 7715   6.620   5.907   7.869  0.9022  0.0668 -0.3017
   71CHL1   C22 7716   6.787   5.659   7.950 -0.0806 -0.7765 -0.1972
   71CHL1  H22A 7717   6.839   5.564   7.927  2.7468  0.1633  2.0011
   71CHL1  H22B 7718   6.863   5.739   7.932  1.6675 -2.3066  0.2488
   71CHL1   C23 7719   6.767   5.670   8.108  0.8446  0.5512  0.1230
   71CHL1  H23A 7720   6.868   5.647   8.149  0.9185 -0.6034 -0.6772
   71CHL1  H23B 7721   6.743   5.773   8.143 -0.0979 -0.1798  1.6860
   71CHL1   C24 7722   6.668   5.570   8.168 -0.2126 -0.0355  1.2227
   71CHL1  H24A 7723   6.569   5.606   8.135 -0.8960 -1.5906  1.5186
   71CHL1  H24B 7724   6.675   5.465   8.131 -0.6760  0.1497  0.6170
   71CHL1   C25 7725   6.652   5.578   8.325 -0.1358 -0.0101  0.6917
   71CHL1   H25 7726   6.607   5.674   8.359 -0.8754 -0.3304  0.6371
   71CHL1   C26 7727   6.558   5.467   8.368 -0.5910 -0.6103  1.0480
   71CHL1  H26A 7728   6.520   5.476   8.472 -1.8711  2.3759  0.3687
   71CHL1  H26B 7729   6.470   5.464   8.300 -0.9142  2.5213  1.2800
   71CHL1  H26C 7730   6.608   5.369   8.353 -1.6063 -1.4663  3.0921
   71CHL1   C27 7731   6.794   5.569   8.393 -0.3191  1.0175 -0.5196
   71CHL1  H27A 7732   6.787   5.568   8.504  0.4093 -2.6418 -0.4414
   71CHL1  H27B 7733   6.846   5.475   8.366 -1.9599  0.1025 -0.5844
   71CHL1  H27C 7734   6.851   5.658   8.359  2.0854 -0.5005 -0.5749
   72CHL1    C3 7735   0.155   4.705   7.062 -0.6111 -0.2004 -0.2512
   72CHL1    H3 7736   0.116   4.790   7.123 -0.9653 -0.3621 -0.2462
   72CHL1    O3 7737   0.093   4.711   6.933  0.0642 -0.2031 -1.0438
   72CHL1   H3' 7738   0.129   4.795   6.907 -2.4324  1.4167  0.5028
   72CHL1    C4 7739   0.312   4.727   7.050 -0.5165  0.3185 -0.2532
   72CHL1   H4A 7740   0.360   4.651   6.985  1.1579 -0.1488  1.4709
   72CHL1   H4B 7741   0.329   4.819   6.990 -1.9968  2.0478  1.8855
   72CHL1    C5 7742   0.376   4.711   7.188  0.0865 -0.4270  0.3199
   72CHL1    C6 7743   0.453   4.802   7.244 -0.0889  0.5407  0.5346
   72CHL1    H6 7744   0.474   4.900   7.199  0.5151  0.0274 -0.3077
   72CHL1    C7 7745   0.521   4.774   7.377 -0.5551  0.6995 -0.3392
   72CHL1   H7A 7746   0.623   4.817   7.373 -0.1579 -0.1571  0.6801
   72CHL1   H7B 7747   0.462   4.827   7.455 -1.0968  0.3674 -0.5141
   72CHL1    C8 7748   0.540   4.623   7.413 -0.0976  0.1858 -0.8985
   72CHL1    H8 7749   0.611   4.583   7.337  1.0994  2.8866 -1.2682
   72CHL1   C14 7750   0.593   4.608   7.556 -0.6968  0.5805 -0.8310
   72CHL1   H14 7751   0.517   4.661   7.617 -0.1778 -0.0513  0.3797
   72CHL1   C15 7752   0.731   4.664   7.587  0.1344  0.0931 -0.6285
   72CHL1  H15A 7753   0.808   4.637   7.511 -0.1507 -0.5763 -0.6865
   72CHL1  H15B 7754   0.725   4.774   7.596  1.4251  0.1545 -0.4630
   72CHL1   C16 7755   0.755   4.608   7.726  0.1267 -0.7367 -0.2323
   72CHL1  H16A 7756   0.861   4.579   7.740 -0.1948 -2.5251 -1.3634
   72CHL1  H16B 7757   0.735   4.684   7.805  1.1969 -1.1375  0.4376
   72CHL1   C17 7758   0.650   4.497   7.756 -0.2082  0.7777 -0.0943
   72CHL1   H17 7759   0.559   4.544   7.796  0.7696  2.5968  0.0339
   72CHL1   C13 7760   0.596   4.462   7.610 -0.1788 -0.8975  0.0948
   72CHL1   C18 7761   0.697   4.378   7.539 -0.2647 -0.4287 -0.0392
   72CHL1  H18A 7762   0.672   4.357   7.433  0.0062  0.4870 -0.2937
   72CHL1  H18B 7763   0.803   4.411   7.536 -0.3827  0.0551  0.8883
   72CHL1  H18C 7764   0.684   4.279   7.586 -2.1807  0.1119  0.6046
   72CHL1   C12 7765   0.457   4.412   7.605  0.1382 -0.0239 -0.6204
   72CHL1  H12A 7766   0.452   4.307   7.642 -2.2283  0.8338  1.6565
   72CHL1  H12B 7767   0.395   4.472   7.675  0.8958 -1.7290  1.5614
   72CHL1   C11 7768   0.385   4.431   7.463 -0.8744  0.5647 -0.2134
   72CHL1  H11A 7769   0.433   4.356   7.397 -0.5571  1.1507 -0.6603
   72CHL1  H11B 7770   0.278   4.406   7.474 -0.9752  1.7688  1.8652
   72CHL1    C9 7771   0.400   4.566   7.403  0.9428  0.4718 -0.0103
   72CHL1    H9 7772   0.331   4.634   7.457 -1.0222 -2.2560  1.0856
   72CHL1   C10 7773   0.345   4.581   7.256  0.3202  0.4153  0.6612
   72CHL1   C19 7774   0.419   4.463   7.176  0.3519 -0.5647  0.6001
   72CHL1  H19A 7775   0.385   4.464   7.070  0.5019  2.0949  0.5356
   72CHL1  H19B 7776   0.529   4.471   7.186  0.1212  1.8747  1.6671
   72CHL1  H19C 7777   0.397   4.358   7.205 -0.1770 -0.4917  0.4749
   72CHL1    C1 7778   0.196   4.563   7.259 -1.1507  0.8371 -0.6578
   72CHL1   H1A 7779   0.165   4.471   7.314 -2.8744  2.3352  0.9176
   72CHL1   H1B 7780   0.162   4.645   7.325  1.0091  0.0672  1.5296
   72CHL1    C2 7781   0.127   4.568   7.128  0.3199 -1.0290  0.0989
   72CHL1   H2A 7782   0.018   4.550   7.136  0.6587 -2.9112  0.7613
   72CHL1   H2B 7783   0.163   4.488   7.060  1.4625 -0.5651  0.1393
   72CHL1   C20 7784   0.692   4.380   7.853 -0.2495  0.5832 -0.0141
   72CHL1   H20 7785   0.773   4.328   7.797 -0.8359 -1.2330  0.7781
   72CHL1   C21 7786   0.576   4.285   7.888  0.1814  0.0164 -0.5403
   72CHL1  H21A 7787   0.547   4.224   7.799 -3.4864 -0.2494  0.7407
   72CHL1  H21B 7788   0.479   4.327   7.924  1.1140  2.1724 -0.4691
   72CHL1  H21C 7789   0.607   4.210   7.964 -0.1271 -2.6632 -2.9412
   72CHL1   C22 7790   0.747   4.435   7.984  0.0368  0.6334  0.1605
   72CHL1  H22A 7791   0.771   4.344   8.043 -1.2924 -1.3921 -2.2819
   72CHL1  H22B 7792   0.848   4.478   7.967 -0.0046  0.9238  0.6729
   72CHL1   C23 7793   0.667   4.537   8.069  0.0859  0.6470  0.0987
   72CHL1  H23A 7794   0.660   4.636   8.018 -4.8744  1.3540  1.8073
   72CHL1  H23B 7795   0.562   4.503   8.076  0.6073 -0.9948  0.0522
   72CHL1   C24 7796   0.734   4.553   8.209  0.4057  0.0379 -0.0118
   72CHL1  H24A 7797   0.707   4.461   8.265 -2.6943  1.1880  0.4648
   72CHL1  H24B 7798   0.843   4.568   8.190  0.2486 -0.5824 -1.4653
   72CHL1   C25 7799   0.681   4.673   8.297 -0.2165 -0.6507 -1.0161
   72CHL1   H25 7800   0.722   4.761   8.243 -0.3164  0.7780  1.1720
   72CHL1   C26 7801   0.532   4.676   8.322 -0.5222  0.0841  0.2099
   72CHL1  H26A 7802   0.509   4.756   8.395 -0.2005 -0.0562  0.4659
   72CHL1  H26B 7803   0.485   4.697   8.224 -0.4059  0.4065  0.2226
   72CHL1  H26C 7804   0.493   4.579   8.359 -0.5337  0.4206  1.0776
   72CHL1   C27 7805   0.749   4.664   8.438 -0.1710 -0.3041  0.1721
   72CHL1  H27A 7806   0.707   4.745   8.501  0.3652 -0.1385  0.3188
   72CHL1  H27B 7807   0.747   4.567   8.493  2.4405  0.6009  1.9673
   72CHL1  H27C 7808   0.857   4.682   8.419 -0.1545 -2.4202 -2.0395
   73CHL1    C3 7809   6.673   0.192   7.034  0.2049  0.7736 -0.1865
   73CHL1    H3 7810   6.775   0.170   7.070 -0.1048  0.4575  0.5058
   73CHL1    O3 7811   6.668   0.187   6.896 -0.3472  0.0936  0.2316
   73CHL1   H3' 7812   6.698   0.101   6.867 -0.1318  0.0346  0.6348
   73CHL1    C4 7813   6.569   0.092   7.086 -0.4621  0.2200 -0.2307
   73CHL1   H4A 7814   6.468   0.114   7.046 -2.0969  0.3842  3.7978
   73CHL1   H4B 7815   6.575  -0.013   7.051  1.4553  0.1759  0.1596
   73CHL1    C5 7816   6.570   0.085   7.233  0.5926 -0.7126 -0.0387
   73CHL1    C6 7817   6.594  -0.030   7.294 -0.2976  0.2589 -0.5639
   73CHL1    H6 7818   6.600  -0.123   7.237 -0.8657 -1.0643  1.4793
   73CHL1    C7 7819   6.596  -0.045   7.444 -0.0293 -0.4274  0.0045
   73CHL1   H7A 7820   6.530  -0.132   7.464  0.1143 -0.3108  1.0467
   73CHL1   H7B 7821   6.699  -0.053   7.484  0.2465  0.6249 -0.4633
   73CHL1    C8 7822   6.541   0.079   7.517  0.4653  0.0788 -0.6907
   73CHL1    H8 7823   6.430   0.077   7.515  0.4530 -1.7730  0.3194
   73CHL1   C14 7824   6.587   0.078   7.659 -0.0665  0.2295 -0.0767
   73CHL1   H14 7825   6.697   0.097   7.663 -0.0040 -0.2088  0.2646
   73CHL1   C15 7826   6.570  -0.050   7.737 -0.4460  0.5337  0.6508
   73CHL1  H15A 7827   6.481  -0.103   7.697 -0.9545  0.9302  1.2372
   73CHL1  H15B 7828   6.655  -0.121   7.734 -0.2887  0.7832 -0.7326
   73CHL1   C16 7829   6.551  -0.002   7.877 -0.4397  0.5550 -0.6222
   73CHL1  H16A 7830   6.446  -0.028   7.903  0.0985 -0.4454  0.6378
   73CHL1  H16B 7831   6.609  -0.060   7.952 -0.7539 -0.4358 -1.1434
   73CHL1   C17 7832   6.573   0.149   7.881 -0.3083  0.5453 -0.7324
   73CHL1   H17 7833   6.682   0.171   7.886 -0.8565  3.4740 -0.7847
   73CHL1   C13 7834   6.524   0.189   7.742 -0.3027 -0.2284  0.5820
   73CHL1   C18 7835   6.367   0.174   7.746 -0.2778  0.3653  0.1774
   73CHL1  H18A 7836   6.326   0.184   7.643  1.7390  2.4657 -0.4777
   73CHL1  H18B 7837   6.329   0.083   7.797 -1.4456  0.4089 -0.5902
   73CHL1  H18C 7838   6.329   0.261   7.804  1.5512  1.5086 -0.2609
   73CHL1   C12 7839   6.582   0.321   7.689 -0.2614  0.3457  0.5525
   73CHL1  H12A 7840   6.536   0.407   7.742 -0.7061 -0.9205  2.2477
   73CHL1  H12B 7841   6.692   0.329   7.692 -0.1787 -1.1349  2.0788
   73CHL1   C11 7842   6.545   0.329   7.540  0.1619  0.1281 -0.7072
   73CHL1  H11A 7843   6.434   0.332   7.533  0.0628 -0.8334  0.3172
   73CHL1  H11B 7844   6.585   0.420   7.491 -1.6839  0.2890 -1.9819
   73CHL1    C9 7845   6.590   0.209   7.455  0.4402 -0.5082 -0.0978
   73CHL1    H9 7846   6.701   0.211   7.453  0.4450 -0.0758  0.4434
   73CHL1   C10 7847   6.555   0.224   7.298 -0.1451  0.1707 -0.0204
   73CHL1   C19 7848   6.409   0.269   7.288 -0.8453 -0.0158 -0.3452
   73CHL1  H19A 7849   6.358   0.246   7.192 -3.2459  2.6705  0.2413
   73CHL1  H19B 7850   6.354   0.226   7.373  0.3478 -1.5613 -0.3305
   73CHL1  H19C 7851   6.406   0.378   7.309  1.7371  0.6512 -2.9873
   73CHL1    C1 7852   6.648   0.334   7.238  0.8640  0.3129  0.2279
   73CHL1   H1A 7853   6.612   0.435   7.267  0.0041  0.2036 -0.4498
   73CHL1   H1B 7854   6.757   0.327   7.254  0.7986  0.1341  0.6083
   73CHL1    C2 7855   6.644   0.331   7.085 -0.0730 -0.0287  1.1478
   73CHL1   H2A 7856   6.722   0.399   7.044 -0.2629  0.3112  1.3413
   73CHL1   H2B 7857   6.545   0.371   7.052  0.2738 -1.1662 -1.3362
   73CHL1   C20 7858   6.501   0.220   8.006  0.0484  0.1641 -0.1607
   73CHL1   H20 7859   6.392   0.203   7.994 -0.5587  2.4250  1.7811
   73CHL1   C21 7860   6.514   0.371   7.996 -0.2230  0.2831 -0.0147
   73CHL1  H21A 7861   6.507   0.419   8.096  3.9481  1.7983 -0.3423
   73CHL1  H21B 7862   6.448   0.421   7.922  1.2879  3.1313  0.4808
   73CHL1  H21C 7863   6.619   0.399   7.973  0.1167  0.7482  1.9978
   73CHL1   C22 7864   6.548   0.164   8.142 -0.4959 -0.1179 -0.3766
   73CHL1  H22A 7865   6.496   0.213   8.227  2.6731  3.2864 -0.2561
   73CHL1  H22B 7866   6.523   0.056   8.143  2.3742 -0.8276  0.2121
   73CHL1   C23 7867   6.699   0.181   8.168  0.1397 -0.4431 -0.1444
   73CHL1  H23A 7868   6.750   0.114   8.095  0.2897 -0.4056 -0.0736
   73CHL1  H23B 7869   6.733   0.287   8.162 -1.9777  0.2857  0.3295
   73CHL1   C24 7870   6.730   0.117   8.301  0.0274 -0.5132  0.5900
   73CHL1  H24A 7871   6.654   0.036   8.309 -3.7900  2.5912 -2.1504
   73CHL1  H24B 7872   6.834   0.078   8.301 -0.0497 -0.7442  1.9024
   73CHL1   C25 7873   6.718   0.218   8.419  0.1746  0.7329  0.9440
   73CHL1   H25 7874   6.624   0.274   8.400 -0.1323 -0.3480 -0.8593
   73CHL1   C26 7875   6.710   0.147   8.550 -0.4243 -0.5460 -0.6884
   73CHL1  H26A 7876   6.780   0.061   8.554  1.5981  1.1159  0.9294
   73CHL1  H26B 7877   6.731   0.213   8.637 -0.0774 -1.6311  0.0662
   73CHL1  H26C 7878   6.606   0.108   8.554 -0.3194 -0.8952 -1.3227
   73CHL1   C27 7879   6.843   0.305   8.411 -0.2367  0.6849  0.5065
   73CHL1  H27A 7880   6.829   0.391   8.481 -2.8150  1.4267 -0.8543
   73CHL1  H27B 7881   6.935   0.250   8.442 -0.6211  0.8916  2.0597
   73CHL1  H27C 7882   6.858   0.341   8.307  1.7174 -1.1798  0.1028
   74CHL1    C3 7883   5.419   5.909   6.896  0.1230 -0.2814 -0.2203
   74CHL1    H3 7884   5.392   6.016   6.906 -0.5775 -0.6454  2.0651
   74CHL1    O3 7885   5.409   5.882   6.753 -0.1363 -0.1460 -0.3648
   74CHL1   H3' 7886   5.396   5.787   6.748 -1.1103  0.0402 -1.4539
   74CHL1    C4 7887   5.568   5.891   6.931 -0.3214  0.2887  0.0066
   74CHL1   H4A 7888   5.603   5.791   6.896 -0.3586  0.9422 -1.9605
   74CHL1   H4B 7889   5.626   5.964   6.871 -0.4742 -0.3492 -0.9427
   74CHL1    C5 7890   5.589   5.883   7.079 -0.1815 -0.7274  0.9544
   74CHL1    C6 7891   5.675   5.974   7.123  0.2393  0.4613 -0.1607
   74CHL1    H6 7892   5.711   6.053   7.055  0.7988 -0.6053 -1.1056
   74CHL1    C7 7893   5.698   6.002   7.263 -0.4541  1.1989 -0.2598
   74CHL1   H7A 7894   5.808   6.011   7.276  0.0441 -2.2667 -1.4225
   74CHL1   H7B 7895   5.647   6.095   7.297 -0.2543  0.8186  1.1113
   74CHL1    C8 7896   5.654   5.882   7.351  0.5660  0.1596 -0.3578
   74CHL1    H8 7897   5.722   5.795   7.346  1.0789  0.5886 -0.9319
   74CHL1   C14 7898   5.640   5.923   7.493  0.0873  0.4659 -0.6994
   74CHL1   H14 7899   5.564   6.003   7.505  0.5455  0.7060  0.7875
   74CHL1   C15 7900   5.767   5.980   7.573  0.1035  0.1818  0.7086
   74CHL1  H15A 7901   5.853   5.914   7.550  0.9898  1.8001 -0.7501
   74CHL1  H15B 7902   5.795   6.084   7.548  1.0008  0.7180  3.7996
   74CHL1   C16 7903   5.733   5.966   7.722 -1.3317 -0.2192  0.0121
   74CHL1  H16A 7904   5.823   5.909   7.755 -0.2022 -0.2939 -3.0163
   74CHL1  H16B 7905   5.736   6.063   7.776  3.3613 -0.5038  0.4448
   74CHL1   C17 7906   5.606   5.886   7.733 -0.2701  0.3902  0.0197
   74CHL1   H17 7907   5.523   5.960   7.740 -0.5169  0.2604 -1.3476
   74CHL1   C13 7908   5.591   5.818   7.597  0.0198 -0.6284 -0.2047
   74CHL1   C18 7909   5.683   5.695   7.597 -0.6484 -0.2055 -0.3663
   74CHL1  H18A 7910   5.640   5.604   7.644 -1.3076  0.6526  0.6962
   74CHL1  H18B 7911   5.695   5.662   7.491  1.2065 -2.3660  0.4842
   74CHL1  H18C 7912   5.776   5.719   7.652 -0.5605  0.5282 -0.8252
   74CHL1   C12 7913   5.444   5.780   7.555  0.3612 -0.2651  0.3533
   74CHL1  H12A 7914   5.408   5.691   7.611 -0.1951 -0.1325  0.2062
   74CHL1  H12B 7915   5.377   5.864   7.583  0.4862 -0.5763  1.6289
   74CHL1   C11 7916   5.434   5.739   7.416 -0.2537  0.1917  0.0305
   74CHL1  H11A 7917   5.489   5.643   7.424  0.6628  0.5324 -1.9892
   74CHL1  H11B 7918   5.332   5.717   7.378 -0.0041  0.9372 -1.1007
   74CHL1    C9 7919   5.510   5.838   7.315  0.0501  0.0499 -0.1434
   74CHL1    H9 7920   5.446   5.929   7.316  0.0552  0.0507  2.4099
   74CHL1   C10 7921   5.500   5.794   7.168 -0.3457 -0.1964 -0.1200
   74CHL1   C19 7922   5.538   5.649   7.153 -0.4936 -0.1448  0.0173
   74CHL1  H19A 7923   5.633   5.627   7.206  0.2944 -1.0857 -1.7464
   74CHL1  H19B 7924   5.456   5.586   7.193 -0.3706  1.5189  3.0461
   74CHL1  H19C 7925   5.566   5.618   7.050 -1.7772  0.9038 -0.6601
   74CHL1    C1 7926   5.355   5.818   7.128 -0.5032  0.0322  0.0466
   74CHL1   H1A 7927   5.291   5.738   7.172 -4.3970  0.9494 -3.5916
   74CHL1   H1B 7928   5.322   5.916   7.169 -1.3833  1.1209 -3.0548
   74CHL1    C2 7929   5.329   5.810   6.975  0.8666  0.0391 -0.6214
   74CHL1   H2A 7930   5.222   5.833   6.958  0.9014  0.2729 -0.5221
   74CHL1   H2B 7931   5.340   5.711   6.926  0.9400 -0.5855  0.6236
   74CHL1   C20 7932   5.591   5.803   7.864 -0.2737  0.3388 -0.4178
   74CHL1   H20 7933   5.671   5.725   7.855 -0.8219 -0.4513  1.3526
   74CHL1   C21 7934   5.453   5.731   7.876 -0.3455  0.2028  0.4716
   74CHL1  H21A 7935   5.436   5.689   7.977 -1.3101 -1.3625 -0.3295
   74CHL1  H21B 7936   5.441   5.645   7.807 -1.4937  1.1184 -0.4890
   74CHL1  H21C 7937   5.376   5.808   7.853  0.5587  0.4133 -1.9742
   74CHL1   C22 7938   5.629   5.879   7.994  0.0956 -0.1857  0.2773
   74CHL1  H22A 7939   5.719   5.940   7.975 -1.0504  0.8653 -2.0718
   74CHL1  H22B 7940   5.543   5.946   8.019  1.0275  1.4869 -0.9217
   74CHL1   C23 7941   5.662   5.793   8.117  0.3001 -0.1535 -0.0261
   74CHL1  H23A 7942   5.561   5.768   8.155 -0.1533  0.8615 -0.5433
   74CHL1  H23B 7943   5.714   5.698   8.093 -1.6320 -1.1456 -0.4304
   74CHL1   C24 7944   5.728   5.871   8.234 -0.2522 -0.0300  0.1680
   74CHL1  H24A 7945   5.835   5.885   8.206 -0.1651 -2.3586 -0.8393
   74CHL1  H24B 7946   5.684   5.973   8.236  1.0468  0.6314 -2.1258
   74CHL1   C25 7947   5.714   5.814   8.376 -0.1570 -0.0125  0.1765
   74CHL1   H25 7948   5.774   5.721   8.384  1.4613  0.7704 -2.1724
   74CHL1   C26 7949   5.784   5.900   8.484 -0.1216 -0.1078 -0.5459
   74CHL1  H26A 7950   5.787   5.832   8.572 -1.8925 -0.5759 -0.8157
   74CHL1  H26B 7951   5.891   5.911   8.456 -0.2037  2.4978  0.0613
   74CHL1  H26C 7952   5.730   5.993   8.512 -0.5625 -0.6327  0.3764
   74CHL1   C27 7953   5.565   5.801   8.413  0.0069  0.2068  0.0303
   74CHL1  H27A 7954   5.497   5.728   8.364 -1.0407  1.8916 -1.0874
   74CHL1  H27B 7955   5.563   5.776   8.521  0.7976  0.3456  0.0881
   74CHL1  H27C 7956   5.517   5.900   8.399  1.1151  1.0748  2.1421
   75CHL1    C3 7957   2.741   0.840   6.839 -0.4974  0.1140 -0.1517
   75CHL1    H3 7958   2.834   0.780   6.828 -1.1833 -1.0680  0.3529
   75CHL1    O3 7959   2.684   0.883   6.716  0.5945 -0.6800 -0.4284
   75CHL1   H3' 7960   2.690   0.816   6.648 -0.4050  1.0328 -2.2507
   75CHL1    C4 7961   2.631   0.768   6.918  0.4295 -1.0766 -0.6041
   75CHL1   H4A 7962   2.538   0.828   6.917  0.1514 -1.2900  3.9727
   75CHL1   H4B 7963   2.600   0.677   6.861  0.8093 -0.5860 -1.6229
   75CHL1    C5 7964   2.680   0.746   7.063  0.0175  0.4867  0.9723
   75CHL1    C6 7965   2.703   0.620   7.107  0.3155 -0.2009 -0.6516
   75CHL1    H6 7966   2.684   0.531   7.045 -2.9461 -0.6835  0.9611
   75CHL1    C7 7967   2.742   0.578   7.251 -0.6837 -0.6088 -0.3197
   75CHL1   H7A 7968   2.685   0.489   7.287 -0.8108 -0.5672 -0.4188
   75CHL1   H7B 7969   2.850   0.556   7.254  0.1570  3.1954  0.3750
   75CHL1    C8 7970   2.725   0.705   7.348  0.2237 -0.0103 -0.6084
   75CHL1    H8 7971   2.616   0.721   7.364  0.1458 -1.4185  0.3825
   75CHL1   C14 7972   2.789   0.679   7.485  0.5594  0.2828  0.6528
   75CHL1   H14 7973   2.897   0.657   7.469  0.7146  1.4742  0.0682
   75CHL1   C15 7974   2.726   0.561   7.559 -0.2205 -0.8101 -0.0929
   75CHL1  H15A 7975   2.616   0.560   7.551 -0.0652 -1.3840 -2.3387
   75CHL1  H15B 7976   2.784   0.474   7.521  1.4284  0.8497 -1.4871
   75CHL1   C16 7977   2.771   0.590   7.703  0.3124 -0.4859  0.6851
   75CHL1  H16A 7978   2.681   0.603   7.768 -0.4012 -3.3314  0.3090
   75CHL1  H16B 7979   2.831   0.506   7.744  1.2511 -1.3824 -2.3883
   75CHL1   C17 7980   2.853   0.719   7.705 -0.3829  0.6655  0.0038
   75CHL1   H17 7981   2.957   0.692   7.675 -0.5846 -1.2338  0.9211
   75CHL1   C13 7982   2.794   0.802   7.585 -0.2207 -0.5794 -0.0585
   75CHL1   C18 7983   2.650   0.847   7.607 -0.5067 -0.1623  1.0880
   75CHL1  H18A 7984   2.590   0.858   7.515  0.9274  2.1793  0.3917
   75CHL1  H18B 7985   2.596   0.787   7.683 -1.0383 -0.9181  0.1130
   75CHL1  H18C 7986   2.642   0.940   7.666  1.1908 -0.5283  1.9316
   75CHL1   C12 7987   2.871   0.911   7.518  0.0076  0.6025  0.2155
   75CHL1  H12A 7988   2.882   1.008   7.572 -1.0579  1.5971 -1.3093
   75CHL1  H12B 7989   2.974   0.871   7.516 -0.4518 -0.7657  2.4269
   75CHL1   C11 7990   2.811   0.949   7.379 -0.0288 -0.1457 -0.7615
   75CHL1  H11A 7991   2.718   1.009   7.393 -1.3877 -2.2275 -0.5758
   75CHL1  H11B 7992   2.887   1.014   7.332  2.4301 -0.9551  1.9210
   75CHL1    C9 7993   2.786   0.834   7.279  0.4021 -0.7528 -0.4467
   75CHL1    H9 7994   2.887   0.798   7.250  0.3422 -1.4840  0.2114
   75CHL1   C10 7995   2.717   0.874   7.143 -0.5418 -0.5284  0.7327
   75CHL1   C19 7996   2.591   0.957   7.175  0.4443  0.4410 -0.2356
   75CHL1  H19A 7997   2.623   1.051   7.225  1.5496  0.7549 -1.5140
   75CHL1  H19B 7998   2.519   0.976   7.093 -1.3532 -0.9864  0.9570
   75CHL1  H19C 7999   2.535   0.903   7.255 -0.8264 -0.8105 -1.9342
   75CHL1    C1 8000   2.818   0.958   7.056 -0.2896 -0.5963  0.3219
   75CHL1   H1A 8001   2.850   1.054   7.102  3.8167 -1.1737 -1.0391
   75CHL1   H1B 8002   2.909   0.894   7.050  0.3312  0.2269  0.7339
   75CHL1    C2 8003   2.774   0.974   6.913  0.1587 -0.1845 -0.2938
   75CHL1   H2A 8004   2.860   1.017   6.857  0.0880 -0.0065 -0.2691
   75CHL1   H2B 8005   2.685   1.041   6.907  0.3669  0.0243 -1.1284
   75CHL1   C20 8006   2.844   0.787   7.838  0.2641 -0.0438  0.5170
   75CHL1   H20 8007   2.736   0.813   7.849  0.3376 -0.2121  1.7636
   75CHL1   C21 8008   2.928   0.919   7.841 -0.7227  0.5405  0.0768
   75CHL1  H21A 8009   3.038   0.909   7.830 -0.4125  3.1783  0.4357
   75CHL1  H21B 8010   2.916   0.975   7.936  0.3014  0.9573 -0.0284
   75CHL1  H21C 8011   2.904   0.993   7.761 -0.9589 -0.4521 -0.7723
   75CHL1   C22 8012   2.888   0.693   7.948 -0.2479 -0.3470  0.0944
   75CHL1  H22A 8013   2.813   0.611   7.950 -0.6799  0.0483  0.2019
   75CHL1  H22B 8014   2.988   0.658   7.915 -0.5304  0.4709 -1.6988
   75CHL1   C23 8015   2.884   0.741   8.097  0.1566  0.4948  1.0203
   75CHL1  H23A 8016   2.968   0.806   8.128  0.5143  0.0855  0.9072
   75CHL1  H23B 8017   2.787   0.795   8.112 -0.5230 -0.8836  1.6690
   75CHL1   C24 8018   2.868   0.632   8.201 -0.7474  0.7324  0.4431
   75CHL1  H24A 8019   2.806   0.550   8.159  0.4293 -0.6337  1.3591
   75CHL1  H24B 8020   2.971   0.593   8.212 -1.2557 -0.8894 -0.4417
   75CHL1   C25 8021   2.812   0.673   8.335 -0.0835 -0.4370 -0.3195
   75CHL1   H25 8022   2.709   0.712   8.327 -0.8784 -2.3716  0.2099
   75CHL1   C26 8023   2.817   0.555   8.439  0.1682 -0.3825  0.3151
   75CHL1  H26A 8024   2.776   0.594   8.535  1.8694  0.2139  0.8100
   75CHL1  H26B 8025   2.748   0.475   8.403  0.1852 -1.2596  2.2171
   75CHL1  H26C 8026   2.920   0.515   8.451  1.6801  2.9546 -0.9694
   75CHL1   C27 8027   2.903   0.772   8.403 -0.7398  0.7881  0.3737
   75CHL1  H27A 8028   2.891   0.779   8.514 -0.1197  0.6690  0.4503
   75CHL1  H27B 8029   3.010   0.769   8.376 -0.9505 -0.5949 -0.3877
   75CHL1  H27C 8030   2.861   0.868   8.365 -2.8163  0.1033  0.8332
   76CHL1    C3 8031   6.206   2.645   7.190  0.0055  0.1301 -0.2724
   76CHL1    H3 8032   6.220   2.539   7.221  1.0836 -0.2931 -2.1237
   76CHL1    O3 8033   6.186   2.647   7.047 -0.6643 -0.6839 -0.3576
   76CHL1   H3' 8034   6.158   2.736   7.025  0.5348 -0.2092 -0.0577
   76CHL1    C4 8035   6.078   2.706   7.257  0.0582  0.0658  0.5270
   76CHL1   H4A 8036   6.056   2.806   7.215  0.8191  0.5952  1.3821
   76CHL1   H4B 8037   5.991   2.641   7.230  0.2660 -1.5258  3.4844
   76CHL1    C5 8038   6.082   2.717   7.408  0.5184  0.3113 -0.5198
   76CHL1    C6 8039   5.984   2.672   7.484  0.0699 -0.5658  0.0499
   76CHL1    H6 8040   5.891   2.629   7.443 -0.0086  1.0793 -1.5638
   76CHL1    C7 8041   5.977   2.705   7.631  0.0905 -0.1410  0.2162
   76CHL1   H7A 8042   5.871   2.727   7.656 -0.0351 -2.3849  1.8249
   76CHL1   H7B 8043   5.995   2.610   7.686  1.4133 -0.6460 -1.0615
   76CHL1    C8 8044   6.088   2.803   7.679 -0.2411  0.1148 -0.1782
   76CHL1    H8 8045   6.050   2.904   7.651 -0.8800  0.3316  1.4394
   76CHL1   C14 8046   6.107   2.785   7.831 -0.0725  0.0454 -0.6722
   76CHL1   H14 8047   6.145   2.684   7.855  0.9016  0.6113  0.2407
   76CHL1   C15 8048   5.981   2.791   7.927  0.5091  0.0769  0.3730
   76CHL1  H15A 8049   5.909   2.874   7.912 -2.0502 -2.2905 -0.9542
   76CHL1  H15B 8050   5.925   2.697   7.908  2.6000 -1.3141  0.9071
   76CHL1   C16 8051   6.042   2.818   8.057 -0.4998 -0.1164 -0.2597
   76CHL1  H16A 8052   5.984   2.890   8.118 -0.2805 -0.4817  0.3829
   76CHL1  H16B 8053   6.049   2.724   8.116  2.4050 -1.7726 -3.0675
   76CHL1   C17 8054   6.190   2.861   8.043  0.5880  0.5788 -0.1724
   76CHL1   H17 8055   6.257   2.775   8.065  1.3426  1.0047 -0.7419
   76CHL1   C13 8056   6.206   2.886   7.893  0.0097 -0.8038  0.1420
   76CHL1   C18 8057   6.160   3.026   7.851  0.7634  0.0990 -0.3722
   76CHL1  H18A 8058   6.152   3.039   7.741  1.2024 -1.2241 -0.5729
   76CHL1  H18B 8059   6.064   3.053   7.899  0.6765 -1.5582  0.4320
   76CHL1  H18C 8060   6.237   3.099   7.886  2.9082 -0.5662 -3.4856
   76CHL1   C12 8061   6.351   2.858   7.828  0.6571  0.1296 -0.5242
   76CHL1  H12A 8062   6.419   2.933   7.872 -1.1676  1.7365 -0.3626
   76CHL1  H12B 8063   6.386   2.759   7.864 -0.8245 -0.4987 -0.7809
   76CHL1   C11 8064   6.347   2.857   7.677 -0.5981 -0.3524  0.6425
   76CHL1  H11A 8065   6.348   2.967   7.662 -0.5127 -0.5094 -0.5597
   76CHL1  H11B 8066   6.445   2.815   7.646 -0.4047  0.0865  0.6569
   76CHL1    C9 8067   6.224   2.776   7.608  0.7594 -0.4857 -0.4853
   76CHL1    H9 8068   6.241   2.670   7.636  0.3761 -0.1645  0.9795
   76CHL1   C10 8069   6.208   2.789   7.453 -0.6427 -0.1972  0.0720
   76CHL1   C19 8070   6.209   2.943   7.413  0.0143  0.0028 -0.2717
   76CHL1  H19A 8071   6.118   2.992   7.454  0.5683  1.9718 -1.3123
   76CHL1  H19B 8072   6.307   2.994   7.428 -0.0485 -0.3994  1.6046
   76CHL1  H19C 8073   6.190   2.948   7.303 -0.3920 -1.4232 -0.2678
   76CHL1    C1 8074   6.339   2.717   7.389  0.0029 -0.5389  0.0338
   76CHL1   H1A 8075   6.423   2.780   7.426 -0.8674  0.6794 -0.0257
   76CHL1   H1B 8076   6.348   2.616   7.435 -0.4213  0.6921  2.9432
   76CHL1    C2 8077   6.341   2.714   7.232  1.1929  0.9700 -0.4506
   76CHL1   H2A 8078   6.423   2.654   7.187  0.1791  0.5051 -1.7204
   76CHL1   H2B 8079   6.345   2.819   7.195  0.2745  0.5554 -1.7509
   76CHL1   C20 8080   6.224   2.966   8.148 -0.9434 -0.6558 -1.4422
   76CHL1   H20 8081   6.164   3.058   8.134  2.5382  1.9090 -0.1870
   76CHL1   C21 8082   6.365   3.026   8.142  0.5376 -0.2209 -0.0243
   76CHL1  H21A 8083   6.429   2.947   8.098 -0.4489 -1.4817  0.7954
   76CHL1  H21B 8084   6.402   3.057   8.242  2.4019  1.6398 -1.2328
   76CHL1  H21C 8085   6.371   3.116   8.077  0.1172  0.3726  0.7524
   76CHL1   C22 8086   6.191   2.925   8.298 -0.8327 -0.3087  0.6861
   76CHL1  H22A 8087   6.223   3.006   8.367 -1.5278 -0.6170  1.3754
   76CHL1  H22B 8088   6.081   2.922   8.309 -0.9499 -1.4877 -0.7542
   76CHL1   C23 8089   6.245   2.785   8.337 -1.3326  0.0099  0.5108
   76CHL1  H23A 8090   6.225   2.706   8.262  1.0070 -0.8042  0.6965
   76CHL1  H23B 8091   6.356   2.785   8.338 -1.3080  2.4023 -0.1147
   76CHL1   C24 8092   6.199   2.746   8.481 -0.0065 -0.0832  0.0119
   76CHL1  H24A 8093   6.093   2.717   8.467  0.7440 -2.3323 -1.2741
   76CHL1  H24B 8094   6.252   2.656   8.517 -1.6642 -1.8531 -1.8244
   76CHL1   C25 8095   6.211   2.855   8.588 -0.5579  0.1562  0.0867
   76CHL1   H25 8096   6.160   2.948   8.554  1.6249  1.7621  1.1195
   76CHL1   C26 8097   6.153   2.790   8.713  0.3470  0.6375 -0.5136
   76CHL1  H26A 8098   6.202   2.694   8.738 -2.1471 -0.6665 -0.5315
   76CHL1  H26B 8099   6.155   2.871   8.790  0.5910  1.6804 -1.5992
   76CHL1  H26C 8100   6.044   2.777   8.698  0.1013  1.1688  0.7397
   76CHL1   C27 8101   6.359   2.890   8.621  0.6039  0.1075  0.4130
   76CHL1  H27A 8102   6.418   2.811   8.671  2.0700 -0.3869 -2.0310
   76CHL1  H27B 8103   6.414   2.906   8.526 -0.6641  0.1470 -0.3270
   76CHL1  H27C 8104   6.359   2.975   8.693 -0.2280  1.5291 -1.2226
   77CHL1    C3 8105   6.414   0.737   6.814 -0.4567  0.0841 -0.1451
   77CHL1    H3 8106   6.319   0.681   6.809  0.7376 -1.9805 -0.1187
   77CHL1    O3 8107   6.457   0.760   6.682 -0.2824  0.0725 -0.0806
   77CHL1   H3' 8108   6.548   0.791   6.685 -0.8763  1.7932  0.4256
   77CHL1    C4 8109   6.369   0.862   6.885 -0.8134 -0.5622 -0.6315
   77CHL1   H4A 8110   6.446   0.939   6.863 -1.5581  0.4276  0.1610
   77CHL1   H4B 8111   6.273   0.886   6.835 -1.1308 -0.7368 -0.1072
   77CHL1    C5 8112   6.356   0.859   7.035 -0.1825  0.3178 -0.2708
   77CHL1    C6 8113   6.244   0.903   7.087 -0.0039 -0.2387  0.7646
   77CHL1    H6 8114   6.163   0.940   7.022 -1.4136  0.0124  2.6276
   77CHL1    C7 8115   6.210   0.898   7.236 -0.5136 -0.4059  0.1430
   77CHL1   H7A 8116   6.172   0.996   7.271  1.6020  0.6094 -0.3001
   77CHL1   H7B 8117   6.128   0.825   7.252 -0.0442 -0.9224  0.2553
   77CHL1    C8 8118   6.332   0.880   7.331 -0.0318 -0.5396  0.0406
   77CHL1    H8 8119   6.390   0.974   7.327  0.8800 -1.1400 -1.2000
   77CHL1   C14 8120   6.298   0.849   7.477  0.1741  0.8039 -0.3126
   77CHL1   H14 8121   6.247   0.751   7.481  0.0646  0.9291  2.4673
   77CHL1   C15 8122   6.194   0.933   7.550 -0.5758 -0.0121  0.3601
   77CHL1  H15A 8123   6.200   1.039   7.520  1.0938  0.0169  0.6994
   77CHL1  H15B 8124   6.090   0.910   7.518 -0.3158  1.5649 -1.6989
   77CHL1   C16 8125   6.215   0.909   7.695 -0.1870 -0.5430 -0.0502
   77CHL1  H16A 8126   6.244   1.000   7.753  0.4363 -0.7170 -0.0897
   77CHL1  H16B 8127   6.118   0.875   7.738 -0.9781 -1.3676 -2.4398
   77CHL1   C17 8128   6.347   0.823   7.696 -0.2772  0.0710 -0.0440
   77CHL1   H17 8129   6.309   0.719   7.693 -0.9079  0.3267 -1.5285
   77CHL1   C13 8130   6.422   0.840   7.561 -0.0660 -0.0801  0.2417
   77CHL1   C18 8131   6.505   0.977   7.565  0.4381  0.3615 -0.1457
   77CHL1  H18A 8132   6.585   0.971   7.642  0.8626  1.2441 -0.5037
   77CHL1  H18B 8133   6.555   1.007   7.470 -1.4788 -0.9968 -1.6257
   77CHL1  H18C 8134   6.434   1.060   7.584 -1.1508 -1.4274  1.9986
   77CHL1   C12 8135   6.497   0.713   7.505 -0.7231  0.5466  0.0242
   77CHL1  H12A 8136   6.591   0.680   7.556 -2.2785 -3.1168  0.6618
   77CHL1  H12B 8137   6.430   0.624   7.514  0.4746 -0.2758  1.0037
   77CHL1   C11 8138   6.543   0.749   7.362  1.1640  0.1644  0.1262
   77CHL1  H11A 8139   6.611   0.836   7.369  0.0439  0.9536  1.7978
   77CHL1  H11B 8140   6.592   0.662   7.314  0.9176  0.1120 -0.0303
   77CHL1    C9 8141   6.420   0.771   7.269  0.5439 -0.5537 -0.2244
   77CHL1    H9 8142   6.357   0.680   7.261 -0.7793  0.2953  0.3266
   77CHL1   C10 8143   6.462   0.788   7.114 -0.0278  0.1742  0.1004
   77CHL1   C19 8144   6.595   0.873   7.090  0.3458 -0.0901 -0.6394
   77CHL1  H19A 8145   6.612   0.891   6.982  3.6543 -0.5004 -0.2313
   77CHL1  H19B 8146   6.583   0.966   7.149 -2.5331 -2.1496  2.2081
   77CHL1  H19C 8147   6.671   0.820   7.150 -1.9865 -2.5053  0.3025
   77CHL1    C1 8148   6.481   0.656   7.043 -0.8248  0.1010  0.4198
   77CHL1   H1A 8149   6.564   0.601   7.092 -0.4699 -1.9315 -2.3255
   77CHL1   H1B 8150   6.388   0.597   7.058 -0.5628 -0.3793  0.1526
   77CHL1    C2 8151   6.513   0.657   6.893  0.7944 -0.0898  0.1491
   77CHL1   H2A 8152   6.522   0.552   6.857 -0.3953 -0.4495  0.8929
   77CHL1   H2B 8153   6.616   0.692   6.868  1.3793 -3.0523 -1.9940
   77CHL1   C20 8154   6.429   0.845   7.816 -1.2618 -0.0440 -0.0689
   77CHL1   H20 8155   6.469   0.948   7.816 -0.3570 -0.3826  0.7670
   77CHL1   C21 8156   6.545   0.743   7.815 -0.9456 -0.0177 -0.2287
   77CHL1  H21A 8157   6.637   0.763   7.755 -0.1064  0.9422  1.3345
   77CHL1  H21B 8158   6.496   0.648   7.782 -1.7038  1.5645 -3.9259
   77CHL1  H21C 8159   6.593   0.736   7.915 -0.7303  0.6546 -0.2871
   77CHL1   C22 8160   6.347   0.825   7.946 -0.4355  0.1254  0.0736
   77CHL1  H22A 8161   6.416   0.841   8.032  0.6375  1.0481 -0.9286
   77CHL1  H22B 8162   6.280   0.911   7.965  0.3486  0.4974  1.1966
   77CHL1   C23 8163   6.276   0.685   7.970 -0.3325  0.0024  0.0254
   77CHL1  H23A 8164   6.172   0.705   7.937  0.0062  1.2345 -0.3632
   77CHL1  H23B 8165   6.325   0.609   7.905  0.5083  1.7571 -1.4517
   77CHL1   C24 8166   6.289   0.634   8.116  0.1923  0.0276  0.2821
   77CHL1  H24A 8167   6.396   0.623   8.142 -0.1205 -0.1971  1.5392
   77CHL1  H24B 8168   6.254   0.705   8.194  0.2428 -0.2405  0.5480
   77CHL1   C25 8169   6.202   0.512   8.146  0.8186  0.1032  0.0175
   77CHL1   H25 8170   6.230   0.436   8.070 -0.8884  1.2579 -1.8106
   77CHL1   C26 8171   6.247   0.460   8.280 -0.1839 -0.1813  0.0716
   77CHL1  H26A 8172   6.233   0.528   8.366  0.9007  0.7562 -0.4886
   77CHL1  H26B 8173   6.192   0.367   8.309  0.7413 -0.9402 -0.5670
   77CHL1  H26C 8174   6.356   0.436   8.281  0.0217  0.7421  2.0160
   77CHL1   C27 8175   6.051   0.534   8.147 -0.0762 -0.7396  0.0709
   77CHL1  H27A 8176   6.020   0.570   8.047 -1.8364 -0.5508  0.6615
   77CHL1  H27B 8177   6.002   0.434   8.157 -1.6449  0.0619  0.6575
   77CHL1  H27C 8178   6.023   0.604   8.230 -0.8289 -1.6086  0.5662
   78CHL1    C3 8179   1.712   2.520   6.691 -0.3945 -0.4279  0.2269
   78CHL1    H3 8180   1.630   2.582   6.733 -1.2487 -0.5166 -1.2685
   78CHL1    O3 8181   1.689   2.493   6.557  0.2463  0.5280 -0.0198
   78CHL1   H3' 8182   1.657   2.578   6.524 -0.7582  0.3344  0.4354
   78CHL1    C4 8183   1.854   2.585   6.697  0.3019 -0.0108  0.0423
   78CHL1   H4A 8184   1.935   2.523   6.652  1.1128  0.1810  1.2020
   78CHL1   H4B 8185   1.852   2.682   6.644  1.0861  0.1564  0.3091
   78CHL1    C5 8186   1.908   2.598   6.837 -0.3896 -0.4960 -0.4615
   78CHL1    C6 8187   1.950   2.717   6.885  0.6083 -0.1759 -0.1014
   78CHL1    H6 8188   1.967   2.803   6.817 -1.6660  0.2233 -0.2073
   78CHL1    C7 8189   2.009   2.732   7.027  0.1122 -0.0948  0.0872
   78CHL1   H7A 8190   2.097   2.800   7.020 -1.6609  2.3319  0.8790
   78CHL1   H7B 8191   1.949   2.794   7.096 -0.7952 -1.7631  0.8200
   78CHL1    C8 8192   2.040   2.599   7.094 -0.3686  0.1434 -0.3620
   78CHL1    H8 8193   2.132   2.551   7.054  0.1173 -0.7074  1.6952
   78CHL1   C14 8194   2.067   2.619   7.245 -0.1675 -0.8431  0.1599
   78CHL1   H14 8195   1.975   2.675   7.270 -0.5264 -1.9116  1.2900
   78CHL1   C15 8196   2.184   2.713   7.289  0.1315 -0.6827 -0.1785
   78CHL1  H15A 8197   2.280   2.693   7.238 -0.3200 -1.2574 -0.8143
   78CHL1  H15B 8198   2.148   2.815   7.262  0.7947 -0.2919  0.4026
   78CHL1   C16 8199   2.183   2.697   7.442 -0.1666 -0.1013 -0.3090
   78CHL1  H16A 8200   2.285   2.669   7.478  1.0523  1.7930 -2.1151
   78CHL1  H16B 8201   2.163   2.793   7.492 -1.0178  1.2276 -3.0923
   78CHL1   C17 8202   2.079   2.583   7.475  0.3758 -0.0274 -0.3672
   78CHL1   H17 8203   1.984   2.637   7.494 -1.6159 -2.5616 -2.8990
   78CHL1   C13 8204   2.070   2.505   7.341  0.3176 -0.1851 -0.9483
   78CHL1   C18 8205   2.205   2.426   7.325  0.4785  0.1470  0.3116
   78CHL1  H18A 8206   2.294   2.492   7.336  1.4206 -1.0475 -0.1525
   78CHL1  H18B 8207   2.215   2.344   7.398 -1.6186  1.1098  1.7246
   78CHL1  H18C 8208   2.203   2.383   7.222  1.2438  3.7443 -1.2941
   78CHL1   C12 8209   1.944   2.424   7.322 -0.1087  0.4804 -0.1828
   78CHL1  H12A 8210   1.959   2.329   7.378  2.5036  0.7683 -0.3028
   78CHL1  H12B 8211   1.857   2.483   7.358  0.3332  2.4822 -2.3129
   78CHL1   C11 8212   1.915   2.383   7.179  0.6037  0.4972 -0.4517
   78CHL1  H11A 8213   2.000   2.318   7.151  1.3496  0.9841  0.6511
   78CHL1  H11B 8214   1.823   2.320   7.175  1.5761 -0.9102 -0.8981
   78CHL1    C9 8215   1.913   2.500   7.082  0.5899  0.7847 -0.3102
   78CHL1    H9 8216   1.824   2.556   7.118 -0.2945 -0.9241  0.2308
   78CHL1   C10 8217   1.892   2.469   6.932 -0.2149  0.5864  0.2041
   78CHL1   C19 8218   1.989   2.362   6.890 -0.0397  0.8776  0.0596
   78CHL1  H19A 8219   1.951   2.261   6.918 -3.9727  2.0218 -0.9020
   78CHL1  H19B 8220   2.023   2.365   6.784  0.6043 -3.0485  0.0587
   78CHL1  H19C 8221   2.082   2.367   6.950  0.8216  0.2053 -1.2133
   78CHL1    C1 8222   1.752   2.413   6.910 -0.5753  0.8219 -0.3277
   78CHL1   H1A 8223   1.750   2.311   6.955  1.2486 -0.6820 -3.4061
   78CHL1   H1B 8224   1.677   2.471   6.967 -1.5797 -0.1314 -0.6493
   78CHL1    C2 8225   1.713   2.391   6.766  0.3448 -0.5029 -0.7403
   78CHL1   H2A 8226   1.610   2.348   6.768 -0.0771  0.4536 -1.5082
   78CHL1   H2B 8227   1.767   2.306   6.721  0.5924 -0.4295 -0.5817
   78CHL1   C20 8228   2.110   2.505   7.609 -0.3207  0.2382  0.7995
   78CHL1   H20 8229   2.204   2.452   7.583 -0.2296  0.5370  0.5051
   78CHL1   C21 8230   2.004   2.387   7.634  0.2280 -0.0472  0.2827
   78CHL1  H21A 8231   1.900   2.426   7.626  0.5790  0.5017 -1.8197
   78CHL1  H21B 8232   2.021   2.340   7.733 -2.1289 -0.3443  0.5828
   78CHL1  H21C 8233   2.036   2.308   7.564  1.6142  0.7359  0.0077
   78CHL1   C22 8234   2.142   2.591   7.735 -0.2626 -0.1639  0.5064
   78CHL1  H22A 8235   2.196   2.679   7.692  0.3390 -0.8884 -0.2420
   78CHL1  H22B 8236   2.048   2.627   7.781  0.5469  1.7630  0.7256
   78CHL1   C23 8237   2.216   2.526   7.852  0.1001  0.7621 -0.4604
   78CHL1  H23A 8238   2.160   2.435   7.881  1.5728 -0.6717 -1.9891
   78CHL1  H23B 8239   2.318   2.498   7.817  0.0103 -0.3595  0.1448
   78CHL1   C24 8240   2.234   2.623   7.969 -0.4809 -0.6376 -0.0461
   78CHL1  H24A 8241   2.296   2.708   7.933  1.3707 -2.0228 -0.2448
   78CHL1  H24B 8242   2.136   2.667   7.996 -1.5512 -1.7342 -2.0423
   78CHL1   C25 8243   2.276   2.565   8.107 -0.2830  0.3063  0.1687
   78CHL1   H25 8244   2.366   2.501   8.090 -1.6605 -1.0205 -2.4893
   78CHL1   C26 8245   2.300   2.674   8.201 -0.0206  0.1062 -0.0247
   78CHL1  H26A 8246   2.329   2.630   8.298  1.8176 -1.8790 -1.4329
   78CHL1  H26B 8247   2.388   2.728   8.160 -0.7820  1.4621  0.0722
   78CHL1  H26C 8248   2.215   2.744   8.220 -0.4927 -1.0433  2.2882
   78CHL1   C27 8249   2.173   2.468   8.163 -0.1882 -0.0403 -0.6897
   78CHL1  H27A 8250   2.112   2.429   8.079  1.2143 -3.5082 -0.1647
   78CHL1  H27B 8251   2.222   2.378   8.206  0.0213 -0.6078 -2.0658
   78CHL1  H27C 8252   2.107   2.524   8.232 -2.9822 -0.8367 -2.6412
   79CHL1    C3 8253   0.318   2.525   7.303  0.0111 -0.0982  0.2839
   79CHL1    H3 8254   0.274   2.623   7.333 -1.4652 -0.6050 -0.1756
   79CHL1    O3 8255   0.383   2.540   7.175  0.0094 -0.0822 -0.1501
   79CHL1   H3' 8256   0.402   2.455   7.135  2.4317  1.3534 -2.2706
   79CHL1    C4 8257   0.423   2.482   7.407 -0.9981 -0.4569 -0.6587
   79CHL1   H4A 8258   0.484   2.392   7.385  1.8511  0.8916  1.3413
   79CHL1   H4B 8259   0.497   2.565   7.416 -2.1201  0.4459  0.4743
   79CHL1    C5 8260   0.350   2.471   7.537  0.0598  0.5319 -0.2192
   79CHL1    C6 8261   0.375   2.540   7.649  0.4226 -0.0370  0.7404
   79CHL1    H6 8262   0.465   2.604   7.649  1.0545 -0.8636 -1.3885
   79CHL1    C7 8263   0.322   2.522   7.783  0.2296  0.3482  0.6015
   79CHL1   H7A 8264   0.409   2.523   7.852  0.6840 -0.4956  0.0514
   79CHL1   H7B 8265   0.261   2.612   7.806 -0.7582  0.2133 -1.3380
   79CHL1    C8 8266   0.242   2.389   7.803 -1.1394  0.5232  0.1846
   79CHL1    H8 8267   0.325   2.315   7.805 -0.6222  1.0278 -1.2435
   79CHL1   C14 8268   0.164   2.380   7.932 -1.2999  0.1511  0.0567
   79CHL1   H14 8269   0.088   2.460   7.916 -1.6677  0.0589  1.2598
   79CHL1   C15 8270   0.225   2.411   8.067 -0.1592  0.1634  0.5215
   79CHL1  H15A 8271   0.328   2.368   8.060  1.1120  3.4328 -2.8567
   79CHL1  H15B 8272   0.230   2.521   8.081 -0.5639  0.2303  0.1370
   79CHL1   C16 8273   0.143   2.345   8.172  0.8148  0.2820  0.7259
   79CHL1  H16A 8274   0.203   2.282   8.241 -0.1203  0.0896  1.3712
   79CHL1  H16B 8275   0.105   2.424   8.239 -0.2969  0.0653  0.3712
   79CHL1   C17 8276   0.026   2.271   8.095 -0.5171 -0.1642 -0.5195
   79CHL1   H17 8277  -0.046   2.354   8.074 -0.0861  1.1257  2.7974
   79CHL1   C13 8278   0.088   2.249   7.951  0.8784  0.0880 -0.1012
   79CHL1   C18 8279   0.187   2.126   7.977  0.1393  0.3907  0.2472
   79CHL1  H18A 8280   0.258   2.106   7.894  0.6822  1.7401  0.3773
   79CHL1  H18B 8281   0.242   2.131   8.074 -0.3855 -0.0114  0.5706
   79CHL1  H18C 8282   0.120   2.038   7.992  1.3144 -0.9697 -2.1869
   79CHL1   C12 8283  -0.003   2.237   7.830 -0.5267 -0.1201  0.9303
   79CHL1  H12A 8284  -0.062   2.143   7.827  0.9288 -1.0171 -1.2154
   79CHL1  H12B 8285  -0.085   2.312   7.835 -0.5146 -0.1308  1.2772
   79CHL1   C11 8286   0.077   2.228   7.701 -0.3407  0.0694 -0.5233
   79CHL1  H11A 8287   0.146   2.143   7.719 -1.1146 -0.4808 -0.0694
   79CHL1  H11B 8288   0.015   2.191   7.616  0.1271 -0.1000 -0.7870
   79CHL1    C9 8289   0.164   2.355   7.680  0.3415 -0.1777  0.1305
   79CHL1    H9 8290   0.083   2.431   7.675 -0.0650 -0.3462  3.4283
   79CHL1   C10 8291   0.237   2.365   7.546  0.0689 -0.2564 -0.0901
   79CHL1   C19 8292   0.296   2.229   7.525  0.2609 -0.8029  0.0648
   79CHL1  H19A 8293   0.375   2.208   7.600  2.1100  0.9913 -1.3173
   79CHL1  H19B 8294   0.229   2.141   7.518  1.9907 -2.4148  2.8214
   79CHL1  H19C 8295   0.343   2.224   7.425  1.3415 -1.0206  0.5772
   79CHL1    C1 8296   0.139   2.388   7.429 -0.2948 -0.0031 -0.5766
   79CHL1   H1A 8297   0.073   2.299   7.427  0.0009 -0.2448  0.3479
   79CHL1   H1B 8298   0.078   2.476   7.458  0.2123 -0.3093  1.4305
   79CHL1    C2 8299   0.209   2.416   7.289 -0.0694  0.3252  0.2094
   79CHL1   H2A 8300   0.127   2.435   7.216 -0.9036 -2.9886  0.1607
   79CHL1   H2B 8301   0.253   2.316   7.270 -0.0786 -0.1491  2.5857
   79CHL1   C20 8302  -0.048   2.163   8.179 -0.4745 -0.2719 -0.5728
   79CHL1   H20 8303   0.030   2.097   8.223 -0.3259  0.8996  0.9929
   79CHL1   C21 8304  -0.131   2.066   8.090  0.1601  0.3370  0.3618
   79CHL1  H21A 8305  -0.166   1.981   8.151  1.9848  0.2949  1.3854
   79CHL1  H21B 8306  -0.068   2.024   8.008 -1.2523 -0.0390 -0.5494
   79CHL1  H21C 8307  -0.194   2.135   8.029  0.3499 -1.4891 -1.9588
   79CHL1   C22 8308  -0.132   2.234   8.286  0.1529  0.0089  0.7059
   79CHL1  H22A 8309  -0.056   2.296   8.339 -0.7194  1.2530  0.5191
   79CHL1  H22B 8310  -0.207   2.308   8.250 -0.5089  0.5498  3.1214
   79CHL1   C23 8311  -0.181   2.125   8.386 -0.5708 -0.5777 -0.3318
   79CHL1  H23A 8312  -0.236   2.041   8.337 -1.4612  1.0830 -2.2849
   79CHL1  H23B 8313  -0.092   2.073   8.427 -1.4427 -0.6077  1.5480
   79CHL1   C24 8314  -0.266   2.173   8.507  0.1859  0.4652  0.2617
   79CHL1  H24A 8315  -0.276   2.090   8.580  1.4828 -1.3162 -1.5413
   79CHL1  H24B 8316  -0.213   2.251   8.565 -0.5991  1.1133  0.1218
   79CHL1   C25 8317  -0.409   2.227   8.461  0.2202 -0.1406 -0.1219
   79CHL1   H25 8318  -0.397   2.299   8.377 -0.8316  1.3211  0.9420
   79CHL1   C26 8319  -0.496   2.107   8.422  0.3326  0.3922  0.0603
   79CHL1  H26A 8320  -0.605   2.126   8.420  0.6727  2.8597  2.3188
   79CHL1  H26B 8321  -0.461   2.076   8.321  1.5821 -2.3944  1.3020
   79CHL1  H26C 8322  -0.485   2.021   8.491 -1.8852 -1.2152 -1.5204
   79CHL1   C27 8323  -0.471   2.305   8.586 -0.2762 -0.2762  0.2304
   79CHL1  H27A 8324  -0.416   2.398   8.612 -1.4773  0.4020  0.3929
   79CHL1  H27B 8325  -0.573   2.346   8.570  0.4087  1.7808  0.9783
   79CHL1  H27C 8326  -0.466   2.235   8.672 -1.0647 -0.8434 -0.1862
   80CHL1    C3 8327   6.161   6.677   6.835  0.3847 -0.3651 -0.1426
   80CHL1    H3 8328   6.188   6.570   6.829 -0.2752 -0.5791  0.5703
   80CHL1    O3 8329   6.162   6.746   6.713  0.0962 -0.2545  0.3885
   80CHL1   H3' 8330   6.099   6.710   6.650  0.0541 -0.2492  0.4275
   80CHL1    C4 8331   6.024   6.688   6.907 -0.2469  0.1811 -0.2116
   80CHL1   H4A 8332   6.002   6.796   6.902 -2.3985 -0.1970  0.7481
   80CHL1   H4B 8333   5.945   6.638   6.847 -0.3088 -2.2706  1.8174
   80CHL1    C5 8334   6.021   6.634   7.050 -0.0837  0.0201 -1.1583
   80CHL1    C6 8335   5.935   6.548   7.088  0.2513  0.2802  0.6202
   80CHL1    H6 8336   5.853   6.508   7.027 -0.2901  1.6917  0.4234
   80CHL1    C7 8337   5.927   6.500   7.231  0.6815 -0.3877 -0.0462
   80CHL1   H7A 8338   5.819   6.494   7.254  0.2467  0.6518 -1.7251
   80CHL1   H7B 8339   5.945   6.390   7.240 -1.1602 -0.6940  0.1272
   80CHL1    C8 8340   6.009   6.574   7.337 -0.3411  0.5578 -0.1055
   80CHL1    H8 8341   5.955   6.671   7.340 -0.4554  0.5454 -1.2218
   80CHL1   C14 8342   6.028   6.498   7.463 -0.7109  0.6914 -0.9496
   80CHL1   H14 8343   6.088   6.409   7.432  0.3506  0.9307  0.3912
   80CHL1   C15 8344   5.910   6.426   7.533 -0.0490  0.6957 -0.2670
   80CHL1  H15A 8345   5.819   6.487   7.519 -0.3783 -0.0075 -1.2026
   80CHL1  H15B 8346   5.893   6.336   7.471  1.3076  0.9050 -0.9653
   80CHL1   C16 8347   5.954   6.400   7.675  0.4741  0.5534  0.2321
   80CHL1  H16A 8348   5.867   6.434   7.735  0.3331  2.2978 -0.9115
   80CHL1  H16B 8349   5.963   6.290   7.683 -1.3134  0.4438  0.8851
   80CHL1   C17 8350   6.093   6.471   7.693 -0.1351  0.6729  0.4685
   80CHL1   H17 8351   6.174   6.396   7.683  0.9649  1.5715  2.4190
   80CHL1   C13 8352   6.107   6.568   7.576  0.2129 -0.0466  0.4664
   80CHL1   C18 8353   6.035   6.703   7.613  0.7472  0.1665 -0.0309
   80CHL1  H18A 8354   6.004   6.762   7.524 -0.2862  0.0854  0.2748
   80CHL1  H18B 8355   5.952   6.681   7.683 -0.7352 -4.4156 -2.9974
   80CHL1  H18C 8356   6.104   6.772   7.667  0.8698  0.2771 -0.3273
   80CHL1   C12 8357   6.253   6.580   7.519  0.3412 -0.1960  0.6890
   80CHL1  H12A 8358   6.317   6.641   7.585  1.4610  0.8418 -1.2939
   80CHL1  H12B 8359   6.298   6.481   7.495  0.7670 -0.0748  1.0051
   80CHL1   C11 8360   6.243   6.672   7.391 -0.2405 -0.3879  0.1496
   80CHL1  H11A 8361   6.205   6.773   7.420  0.3334 -0.2414  0.3907
   80CHL1  H11B 8362   6.347   6.682   7.355  0.0249  2.3496  1.5329
   80CHL1    C9 8363   6.153   6.606   7.285 -0.2681 -0.3729  0.0612
   80CHL1    H9 8364   6.204   6.513   7.251  0.2989  0.3245 -1.0198
   80CHL1   C10 8365   6.140   6.686   7.142 -0.1143  0.1976  0.0624
   80CHL1   C19 8366   6.117   6.838   7.173  0.2856  0.1097  0.7762
   80CHL1  H19A 8367   6.032   6.850   7.244  1.1367  2.7609  1.4057
   80CHL1  H19B 8368   6.200   6.870   7.240  1.2250 -0.4226 -0.1260
   80CHL1  H19C 8369   6.107   6.896   7.079  1.2938 -1.1822 -0.1408
   80CHL1    C1 8370   6.273   6.666   7.063  0.7602 -0.6242  0.0690
   80CHL1   H1A 8371   6.356   6.702   7.128 -0.2657 -1.1522  1.7093
   80CHL1   H1B 8372   6.305   6.564   7.034  2.2709 -0.1231 -0.0935
   80CHL1    C2 8373   6.274   6.740   6.927  0.1426 -0.0363 -0.7500
   80CHL1   H2A 8374   6.368   6.715   6.873 -0.1137  1.3728 -1.9011
   80CHL1   H2B 8375   6.254   6.848   6.942  2.8140  0.3923  0.0882
   80CHL1   C20 8376   6.112   6.525   7.836  0.5450  0.2047  1.1897
   80CHL1   H20 8377   6.033   6.600   7.858  0.1811 -0.4967  2.3159
   80CHL1   C21 8378   6.250   6.594   7.850 -0.1363  0.4395  0.0107
   80CHL1  H21A 8379   6.330   6.518   7.837  1.6804  2.0056  1.6598
   80CHL1  H21B 8380   6.253   6.637   7.953  4.6040 -2.7479  1.3299
   80CHL1  H21C 8381   6.261   6.672   7.771  0.9707 -0.1697 -0.4386
   80CHL1   C22 8382   6.102   6.418   7.945 -0.2746  0.3346 -0.2983
   80CHL1  H22A 8383   6.015   6.356   7.914 -0.9706  0.8223  0.6391
   80CHL1  H22B 8384   6.187   6.348   7.934 -0.4654 -0.1721  1.4473
   80CHL1   C23 8385   6.094   6.465   8.090 -1.5261  0.3863  0.2997
   80CHL1  H23A 8386   6.190   6.514   8.118 -1.9157  0.0886  2.2407
   80CHL1  H23B 8387   6.007   6.533   8.104 -1.8419 -0.3918  2.1375
   80CHL1   C24 8388   6.059   6.341   8.172  0.4725 -0.2156 -0.0010
   80CHL1  H24A 8389   5.972   6.287   8.130  1.1463 -0.6863 -0.8124
   80CHL1  H24B 8390   6.150   6.276   8.169  0.1577 -0.5791 -3.1605
   80CHL1   C25 8391   6.026   6.372   8.322  0.9790 -0.2758 -0.1813
   80CHL1   H25 8392   5.962   6.462   8.328  0.4879 -0.5723 -0.9436
   80CHL1   C26 8393   5.959   6.256   8.392  0.1239  0.1324 -0.1023
   80CHL1  H26A 8394   5.922   6.275   8.495 -0.7271  2.3580 -0.7952
   80CHL1  H26B 8395   5.865   6.243   8.335  0.4077 -0.8824 -0.3427
   80CHL1  H26C 8396   6.023   6.165   8.389 -0.9341 -0.5915 -0.9037
   80CHL1   C27 8397   6.154   6.407   8.401  0.4229  0.1353  0.0890
   80CHL1  H27A 8398   6.120   6.443   8.501 -1.1290 -0.7025 -0.1131
   80CHL1  H27B 8399   6.214   6.314   8.406 -1.8711 -1.3711  0.6664
   80CHL1  H27C 8400   6.217   6.485   8.353  2.4232 -1.7664 -0.4710
   81CHL1    C3 8401   3.279   6.395   6.927 -0.4252 -0.2118 -0.1443
   81CHL1    H3 8402   3.268   6.504   6.911  1.5305 -0.1292 -1.0657
   81CHL1    O3 8403   3.295   6.358   6.795  0.3905 -0.0671 -0.1778
   81CHL1   H3' 8404   3.221   6.399   6.750 -0.2836  0.8260  1.7112
   81CHL1    C4 8405   3.390   6.356   7.019  0.6664  0.3775 -0.0185
   81CHL1   H4A 8406   3.385   6.245   7.024 -1.5709  0.4831  0.6594
   81CHL1   H4B 8407   3.488   6.396   6.986  0.3147 -0.9198 -2.7883
   81CHL1    C5 8408   3.360   6.404   7.161  0.0288  0.2333 -0.8876
   81CHL1    C6 8409   3.453   6.466   7.227  0.3942  0.1390  0.3582
   81CHL1    H6 8410   3.550   6.484   7.178 -0.0971 -0.5291 -0.8804
   81CHL1    C7 8411   3.443   6.510   7.367  0.3685  0.3714 -0.7889
   81CHL1   H7A 8412   3.535   6.495   7.429 -0.4538  0.4340  0.4574
   81CHL1   H7B 8413   3.421   6.619   7.365 -1.7640 -0.0285  0.1193
   81CHL1    C8 8414   3.322   6.438   7.447 -0.8734  0.1628 -0.6240
   81CHL1    H8 8415   3.359   6.340   7.483 -1.5467 -0.1658 -0.8118
   81CHL1   C14 8416   3.298   6.524   7.568 -0.2120  0.1780  0.8939
   81CHL1   H14 8417   3.261   6.623   7.533 -0.5608 -0.4848 -0.6297
   81CHL1   C15 8418   3.405   6.558   7.664  0.3388 -0.0312 -0.0708
   81CHL1  H15A 8419   3.452   6.459   7.680  2.2190  0.8101 -0.2513
   81CHL1  H15B 8420   3.479   6.628   7.619 -0.1817  0.4878 -0.1466
   81CHL1   C16 8421   3.330   6.608   7.787  0.5470 -0.3127  0.7166
   81CHL1  H16A 8422   3.375   6.561   7.877  1.1220  0.5314  0.8853
   81CHL1  H16B 8423   3.327   6.719   7.794  0.5280 -0.2390 -0.4228
   81CHL1   C17 8424   3.181   6.562   7.770 -0.1502 -0.2656  0.1407
   81CHL1   H17 8425   3.122   6.649   7.734  0.0484  0.0735  0.6239
   81CHL1   C13 8426   3.179   6.466   7.653  0.8739  0.8746 -0.2826
   81CHL1   C18 8427   3.216   6.329   7.707 -0.1282 -0.1232  0.0086
   81CHL1  H18A 8428   3.231   6.260   7.621  1.9874  0.8923 -0.4464
   81CHL1  H18B 8429   3.311   6.321   7.764  1.1376  0.2082 -2.0264
   81CHL1  H18C 8430   3.131   6.290   7.768 -0.2624  0.2578  0.0687
   81CHL1   C12 8431   3.050   6.465   7.568 -0.3026  0.1641 -0.0453
   81CHL1  H12A 8432   2.969   6.430   7.635  1.2357 -1.5620  0.9720
   81CHL1  H12B 8433   3.038   6.570   7.533 -0.6128  0.0917 -0.1574
   81CHL1   C11 8434   3.071   6.390   7.440 -0.6738  0.6455  0.2084
   81CHL1  H11A 8435   3.083   6.290   7.487  1.5540  1.0143  0.4751
   81CHL1  H11B 8436   2.984   6.377   7.372 -0.7709 -0.8175  0.5942
   81CHL1    C9 8437   3.199   6.435   7.361  0.5130 -0.4220  0.4494
   81CHL1    H9 8438   3.168   6.539   7.335 -2.7881 -0.9043  2.2172
   81CHL1   C10 8439   3.218   6.369   7.221  0.3560  1.1250 -0.3278
   81CHL1   C19 8440   3.218   6.216   7.251 -0.1744  0.2826  0.4641
   81CHL1  H19A 8441   3.276   6.196   7.343  0.4782  0.9322  0.2005
   81CHL1  H19B 8442   3.114   6.189   7.280 -0.1389 -0.5381 -0.1284
   81CHL1  H19C 8443   3.249   6.153   7.164  0.1064  2.0515 -0.7382
   81CHL1    C1 8444   3.106   6.405   7.114  0.5275  0.3705 -0.3532
   81CHL1   H1A 8445   3.011   6.372   7.160  1.4915 -0.0730  1.3549
   81CHL1   H1B 8446   3.101   6.516   7.113  0.6766  0.3713 -0.8986
   81CHL1    C2 8447   3.129   6.354   6.973 -0.1212 -0.9328  0.6277
   81CHL1   H2A 8448   3.070   6.413   6.900  1.9556 -1.8577 -1.9027
   81CHL1   H2B 8449   3.112   6.245   6.962  2.9964 -1.6115  1.9436
   81CHL1   C20 8450   3.119   6.526   7.909 -0.0591 -0.1813 -0.0814
   81CHL1   H20 8451   3.179   6.444   7.955 -1.4193 -0.6315  0.9249
   81CHL1   C21 8452   2.966   6.489   7.889 -0.0517  0.7607  0.1310
   81CHL1  H21A 8453   2.954   6.387   7.847  0.9989  1.6998 -2.5631
   81CHL1  H21B 8454   2.918   6.568   7.826 -2.5338 -1.6349 -1.0625
   81CHL1  H21C 8455   2.913   6.478   7.986 -0.3471  0.5026 -0.0588
   81CHL1   C22 8456   3.124   6.656   8.003  0.1466  0.8064  0.1702
   81CHL1  H22A 8457   3.222   6.706   7.986 -1.1095  2.8396 -1.2257
   81CHL1  H22B 8458   3.040   6.721   7.972  1.5770  1.6928 -1.9403
   81CHL1   C23 8459   3.120   6.626   8.158 -0.6089 -0.3367 -0.5117
   81CHL1  H23A 8460   3.026   6.588   8.201  0.3127 -1.3474  0.6216
   81CHL1  H23B 8461   3.192   6.544   8.180 -1.1114 -1.2930 -2.3548
   81CHL1   C24 8462   3.142   6.758   8.231  0.4271  0.0109 -0.5107
   81CHL1  H24A 8463   3.080   6.842   8.194  0.5822 -0.0958 -1.0139
   81CHL1  H24B 8464   3.106   6.755   8.336  2.0899 -0.7642  0.0599
   81CHL1   C25 8465   3.286   6.808   8.259 -0.3075 -0.0437  0.2746
   81CHL1   H25 8466   3.327   6.823   8.157 -1.9878 -3.3840 -0.9698
   81CHL1   C26 8467   3.286   6.927   8.351  0.8462 -0.2169  0.1264
   81CHL1  H26A 8468   3.381   6.982   8.337  0.0572  0.9803 -0.6733
   81CHL1  H26B 8469   3.198   6.995   8.345  0.7673 -0.2972  0.3727
   81CHL1  H26C 8470   3.274   6.898   8.458  1.9097  1.2546  0.6703
   81CHL1   C27 8471   3.369   6.696   8.320  0.5883  0.1281  0.0660
   81CHL1  H27A 8472   3.378   6.616   8.244 -0.3891  1.1204 -1.1219
   81CHL1  H27B 8473   3.473   6.731   8.334  0.2677  1.5681 -1.0632
   81CHL1  H27C 8474   3.333   6.655   8.417 -0.0031 -2.4049 -1.1895
   82CHL1    C3 8475   4.316   0.340   7.193 -0.1365  0.0869  0.2118
   82CHL1    H3 8476   4.306   0.448   7.215  0.5669 -0.0838  1.3969
   82CHL1    O3 8477   4.367   0.337   7.060  0.1669 -0.8508 -0.4864
   82CHL1   H3' 8478   4.410   0.253   7.046 -0.8367 -1.9480  2.5494
   82CHL1    C4 8479   4.427   0.287   7.295 -0.0986 -0.1064 -0.1578
   82CHL1   H4A 8480   4.465   0.191   7.256 -1.3910 -0.7674  0.1843
   82CHL1   H4B 8481   4.505   0.366   7.291 -0.4576  0.2119 -1.0441
   82CHL1    C5 8482   4.377   0.265   7.436 -0.2003  0.3115 -0.7443
   82CHL1    C6 8483   4.441   0.320   7.540  0.1112  0.7379 -0.4804
   82CHL1    H6 8484   4.529   0.382   7.516  1.9454 -1.7480 -0.4707
   82CHL1    C7 8485   4.402   0.307   7.686  0.3556 -0.6654  0.3918
   82CHL1   H7A 8486   4.482   0.284   7.758 -1.0528 -0.8952  1.9158
   82CHL1   H7B 8487   4.358   0.403   7.722 -2.0278 -2.0043  1.1842
   82CHL1    C8 8488   4.293   0.194   7.700 -0.2023  0.4913 -0.3095
   82CHL1    H8 8489   4.344   0.095   7.703  1.6120  1.3901 -0.7720
   82CHL1   C14 8490   4.224   0.192   7.838 -0.6049 -0.2587  0.2690
   82CHL1   H14 8491   4.171   0.290   7.833 -1.3286 -0.6623 -0.0835
   82CHL1   C15 8492   4.325   0.185   7.952  0.8798  0.4529 -0.1905
   82CHL1  H15A 8493   4.404   0.108   7.938 -1.7984 -2.1450 -1.5582
   82CHL1  H15B 8494   4.375   0.282   7.972  3.4404 -1.1796  1.6696
   82CHL1   C16 8495   4.238   0.142   8.077 -0.2568  0.0662  0.0441
   82CHL1  H16A 8496   4.288   0.048   8.109  0.2574  0.4479  0.3637
   82CHL1  H16B 8497   4.242   0.223   8.153 -1.5063 -0.2802  0.4960
   82CHL1   C17 8498   4.092   0.111   8.017  0.0842  0.1472  0.1248
   82CHL1   H17 8499   4.034   0.205   8.013  0.4009  0.3018 -1.1092
   82CHL1   C13 8500   4.114   0.090   7.864 -0.4169 -0.2878  0.3195
   82CHL1   C18 8501   4.163  -0.055   7.845  0.0128  0.4375  0.1469
   82CHL1  H18A 8502   4.075  -0.119   7.867  0.6563 -0.1604  1.0097
   82CHL1  H18B 8503   4.185  -0.076   7.738  1.4813  2.6552 -0.0086
   82CHL1  H18C 8504   4.251  -0.082   7.908 -0.4119 -1.5854 -0.0803
   82CHL1   C12 8505   4.004   0.129   7.759  1.0493  0.0266  0.5751
   82CHL1  H12A 8506   3.909   0.075   7.779 -0.0413  2.1359  1.1661
   82CHL1  H12B 8507   3.985   0.237   7.772  0.8529  0.0495  0.1191
   82CHL1   C11 8508   4.056   0.120   7.617  0.6330 -0.3247  0.4004
   82CHL1  H11A 8509   4.065   0.013   7.587 -1.5937  0.1187 -2.0330
   82CHL1  H11B 8510   3.983   0.153   7.540  0.0533 -1.5794  0.4045
   82CHL1    C9 8511   4.183   0.205   7.590  0.9038  0.1068 -0.0038
   82CHL1    H9 8512   4.151   0.311   7.597  1.9814  0.5333 -1.2535
   82CHL1   C10 8513   4.245   0.177   7.446  0.1755  0.2859 -0.7634
   82CHL1   C19 8514   4.262   0.023   7.421  0.5076  0.4493  0.4850
   82CHL1  H19A 8515   4.163  -0.027   7.418  0.6755  0.0449  1.5224
   82CHL1  H19B 8516   4.314   0.013   7.323  0.1559 -0.7923  0.4244
   82CHL1  H19C 8517   4.316  -0.021   7.507  0.3770  1.1167  0.9174
   82CHL1    C1 8518   4.143   0.239   7.345 -0.3020 -0.7519  0.4332
   82CHL1   H1A 8519   4.051   0.177   7.336  0.1971 -1.4753  0.3074
   82CHL1   H1B 8520   4.123   0.340   7.387 -0.0636  0.9853 -3.4019
   82CHL1    C2 8521   4.191   0.254   7.196  0.3774 -0.5003 -0.4193
   82CHL1   H2A 8522   4.115   0.296   7.126  1.4687  0.8127 -0.8305
   82CHL1   H2B 8523   4.209   0.155   7.148  1.1948 -0.1059 -0.9313
   82CHL1   C20 8524   4.021   0.011   8.112 -0.0209  0.0191  0.1025
   82CHL1   H20 8525   4.074  -0.087   8.108 -1.8612 -0.9277 -1.7634
   82CHL1   C21 8526   3.883   0.001   8.064  0.8489 -0.1243  0.3452
   82CHL1  H21A 8527   3.827  -0.090   8.093  1.4428 -1.2815 -2.0734
   82CHL1  H21B 8528   3.887  -0.015   7.954  1.2803 -0.6142  0.4366
   82CHL1  H21C 8529   3.823   0.094   8.079  0.8056 -0.0153 -0.4738
   82CHL1   C22 8530   4.024   0.050   8.264  0.0208  0.1228 -0.0515
   82CHL1  H22A 8531   4.130   0.060   8.296  0.6639  0.6357 -2.2130
   82CHL1  H22B 8532   3.995   0.157   8.272 -0.6010 -0.0465  0.0135
   82CHL1   C23 8533   3.944  -0.040   8.361 -0.3271  0.6666 -0.1577
   82CHL1  H23A 8534   3.842  -0.060   8.323  1.0702 -3.6341 -1.9163
   82CHL1  H23B 8535   3.988  -0.142   8.361  0.1363  0.8578 -1.3802
   82CHL1   C24 8536   3.939   0.004   8.508  0.0961  0.4038  0.5314
   82CHL1  H24A 8537   4.045   0.018   8.539  0.1868  0.1076  0.3584
   82CHL1  H24B 8538   3.884   0.099   8.521  2.4103  1.7898  0.5143
   82CHL1   C25 8539   3.885  -0.098   8.615  0.0727 -0.6615 -0.3515
   82CHL1   H25 8540   3.932  -0.199   8.611 -1.9386 -1.6434 -0.0942
   82CHL1   C26 8541   3.930  -0.059   8.757  0.1261  0.2390  0.5543
   82CHL1  H26A 8542   4.040  -0.054   8.768  0.0505  2.7324  0.4393
   82CHL1  H26B 8543   3.895   0.040   8.795 -1.7452  0.7092 -2.2273
   82CHL1  H26C 8544   3.899  -0.133   8.834  2.1448 -2.1995 -0.8992
   82CHL1   C27 8545   3.731  -0.111   8.608 -0.0947 -0.3797  0.1679
   82CHL1  H27A 8546   3.694  -0.006   8.621  1.4964  0.2511 -0.3501
   82CHL1  H27B 8547   3.687  -0.159   8.518  0.8220 -0.3734 -0.2847
   82CHL1  H27C 8548   3.706  -0.173   8.697 -0.0654 -0.1967  0.3072
   83CHL1    C3 8549   0.458   1.782   6.909  0.3110 -0.3625 -0.3975
   83CHL1    H3 8550   0.522   1.691   6.907 -0.1905 -0.7572  0.9646
   83CHL1    O3 8551   0.424   1.810   6.774 -0.4210  0.0765  0.3076
   83CHL1   H3' 8552   0.358   1.878   6.786 -2.2931 -1.4025 -1.1560
   83CHL1    C4 8553   0.334   1.749   6.996 -0.3168 -1.2145  0.6404
   83CHL1   H4A 8554   0.261   1.831   6.981  0.6189 -0.7423 -1.5473
   83CHL1   H4B 8555   0.307   1.651   6.952 -0.8542 -0.3016 -1.1357
   83CHL1    C5 8556   0.357   1.738   7.148 -0.7727 -0.2290 -0.2964
   83CHL1    C6 8557   0.326   1.631   7.220 -0.3089 -0.1858  0.8449
   83CHL1    H6 8558   0.279   1.543   7.173 -1.4310 -0.8344  3.0852
   83CHL1    C7 8559   0.340   1.622   7.367 -0.0583 -0.4224 -0.1497
   83CHL1   H7A 8560   0.249   1.580   7.415 -0.3992 -0.3895 -0.7600
   83CHL1   H7B 8561   0.425   1.554   7.390 -0.4020 -0.8717 -0.2206
   83CHL1    C8 8562   0.384   1.757   7.437  0.8985  0.3881 -0.5465
   83CHL1    H8 8563   0.303   1.830   7.460  1.6803  1.1255 -0.0914
   83CHL1   C14 8564   0.445   1.708   7.567 -0.5368 -0.8365  0.2456
   83CHL1   H14 8565   0.529   1.644   7.530 -1.1954 -1.4517 -0.1983
   83CHL1   C15 8566   0.366   1.624   7.669  0.6166 -0.3917 -0.7498
   83CHL1  H15A 8567   0.260   1.656   7.679  0.8519 -0.4430  2.5477
   83CHL1  H15B 8568   0.355   1.519   7.635 -0.4366  0.1484 -2.1133
   83CHL1   C16 8569   0.439   1.651   7.804 -0.1983 -0.3782 -0.4764
   83CHL1  H16A 8570   0.362   1.690   7.875  0.5072  1.8814 -0.9106
   83CHL1  H16B 8571   0.477   1.558   7.851  2.4702  0.8574 -0.1474
   83CHL1   C17 8572   0.557   1.752   7.777  0.0726  0.2894  0.1813
   83CHL1   H17 8573   0.644   1.688   7.751  0.1271  0.3215  0.2846
   83CHL1   C13 8574   0.513   1.827   7.648 -0.3519  0.8287 -0.1267
   83CHL1   C18 8575   0.405   1.928   7.701  0.0182 -0.0245 -0.5128
   83CHL1  H18A 8576   0.354   1.895   7.794 -0.8732  1.7353 -0.3570
   83CHL1  H18B 8577   0.464   2.018   7.730 -2.4286  0.4224  3.4383
   83CHL1  H18C 8578   0.337   1.962   7.620 -1.0193 -0.4563  0.1670
   83CHL1   C12 8579   0.621   1.894   7.566 -0.1839 -0.8273  0.2283
   83CHL1  H12A 8580   0.654   1.979   7.629 -1.3323  1.0827 -1.6761
   83CHL1  H12B 8581   0.703   1.819   7.559 -0.9437 -1.5916 -0.5822
   83CHL1   C11 8582   0.563   1.945   7.431 -0.6623 -0.3659  0.1637
   83CHL1  H11A 8583   0.475   2.012   7.445 -2.4456 -2.6685  0.2466
   83CHL1  H11B 8584   0.639   1.993   7.365 -1.1716 -0.5216 -0.5452
   83CHL1    C9 8585   0.492   1.824   7.350 -0.2635 -0.2456 -0.4375
   83CHL1    H9 8586   0.573   1.751   7.331  0.6223  0.3778  0.8459
   83CHL1   C10 8587   0.431   1.856   7.206 -0.0224 -0.4404  0.6025
   83CHL1   C19 8588   0.343   1.984   7.216 -0.2887 -0.3480 -0.5751
   83CHL1  H19A 8589   0.407   2.067   7.252  0.7859 -1.3557 -0.1369
   83CHL1  H19B 8590   0.307   2.012   7.115 -3.7988 -2.2108  0.0743
   83CHL1  H19C 8591   0.254   1.977   7.282 -0.6103  0.3588 -0.9332
   83CHL1    C1 8592   0.555   1.894   7.117 -0.4221  0.7972 -0.0950
   83CHL1   H1A 8593   0.604   1.989   7.149 -0.6686  0.6816  0.6317
   83CHL1   H1B 8594   0.640   1.823   7.112 -0.2181  1.0128  0.3097
   83CHL1    C2 8595   0.529   1.902   6.967 -0.4280  0.8241 -0.7161
   83CHL1   H2A 8596   0.626   1.924   6.916  0.1645  0.2565  0.1572
   83CHL1   H2B 8597   0.465   1.992   6.955 -1.5210  0.0941 -0.4127
   83CHL1   C20 8598   0.618   1.817   7.906 -0.2997  0.3205  0.7732
   83CHL1   H20 8599   0.535   1.887   7.930 -0.8133  0.4136 -1.1986
   83CHL1   C21 8600   0.753   1.886   7.878 -0.2765 -0.0615 -0.1981
   83CHL1  H21A 8601   0.798   1.916   7.975  1.0025  2.8400 -1.5946
   83CHL1  H21B 8602   0.744   1.978   7.816  0.4702  0.9515  1.1778
   83CHL1  H21C 8603   0.815   1.812   7.822  0.4853  0.1992  0.2947
   83CHL1   C22 8604   0.636   1.719   8.025  1.0001  0.0095  1.3575
   83CHL1  H22A 8605   0.556   1.643   8.020  0.9855  0.1612 -3.1975
   83CHL1  H22B 8606   0.728   1.669   7.990  0.2034  0.2646 -1.2473
   83CHL1   C23 8607   0.657   1.780   8.166 -0.0138  0.1555  0.2767
   83CHL1  H23A 8608   0.757   1.829   8.163  0.1237 -0.1931 -1.8792
   83CHL1  H23B 8609   0.579   1.855   8.189 -0.4266 -0.7284  1.8449
   83CHL1   C24 8610   0.657   1.671   8.273  0.3042  0.2639  0.0112
   83CHL1  H24A 8611   0.550   1.641   8.278  0.9950 -2.0889  2.1883
   83CHL1  H24B 8612   0.719   1.587   8.236  0.8570  0.9965 -0.7470
   83CHL1   C25 8613   0.696   1.718   8.420  0.3453  0.1935  0.5592
   83CHL1   H25 8614   0.641   1.810   8.447 -0.6234 -0.6159  1.3859
   83CHL1   C26 8615   0.648   1.611   8.517  0.2101 -0.0526 -0.3536
   83CHL1  H26A 8616   0.681   1.511   8.481 -1.2458  0.1442 -2.3174
   83CHL1  H26B 8617   0.693   1.631   8.616 -0.7696  0.0901  0.0729
   83CHL1  H26C 8618   0.537   1.609   8.515  0.0864 -0.5210  3.8853
   83CHL1   C27 8619   0.844   1.745   8.449 -1.0525  0.2538 -0.4048
   83CHL1  H27A 8620   0.870   1.826   8.377  0.1739 -1.0013 -1.4054
   83CHL1  H27B 8621   0.871   1.762   8.555  0.5379  0.7667 -0.8788
   83CHL1  H27C 8622   0.906   1.661   8.411  0.7239  2.0703 -1.6168
   84CHL1    C3 8623   2.806   4.337   6.905 -0.7868 -0.2281 -0.4362
   84CHL1    H3 8624   2.729   4.276   6.956 -0.8251  0.4973  0.3917
   84CHL1    O3 8625   2.809   4.320   6.766  0.3904 -0.1434  0.6038
   84CHL1   H3' 8626   2.720   4.338   6.734 -0.5382 -0.8630  2.6184
   84CHL1    C4 8627   2.769   4.485   6.946  1.0253 -0.3363  0.6202
   84CHL1   H4A 8628   2.852   4.551   6.913  0.1714  1.8417  2.6622
   84CHL1   H4B 8629   2.679   4.521   6.890  1.6778 -0.2599 -0.3826
   84CHL1    C5 8630   2.748   4.508   7.097 -0.2504  0.8459 -0.1272
   84CHL1    C6 8631   2.635   4.554   7.152 -0.7215  0.5434 -0.4280
   84CHL1    H6 8632   2.548   4.581   7.090 -2.4546  0.8662  2.1142
   84CHL1    C7 8633   2.613   4.581   7.300 -0.0430  0.2143 -0.4543
   84CHL1   H7A 8634   2.561   4.678   7.316  0.7315  0.4690  0.5642
   84CHL1   H7B 8635   2.539   4.514   7.348  0.2918 -1.4209 -2.1572
   84CHL1    C8 8636   2.742   4.573   7.382  0.6451  0.0705 -0.2114
   84CHL1    H8 8637   2.796   4.670   7.373 -1.1270  1.1697  0.7658
   84CHL1   C14 8638   2.702   4.556   7.536  0.2051 -0.3396  0.9508
   84CHL1   H14 8639   2.648   4.459   7.534  1.4062 -1.0222  1.1190
   84CHL1   C15 8640   2.612   4.667   7.600 -0.2887 -0.1678  0.3234
   84CHL1  H15A 8641   2.661   4.766   7.592  3.2735 -1.8230  1.0202
   84CHL1  H15B 8642   2.507   4.662   7.564  0.1147  1.3292 -1.1366
   84CHL1   C16 8643   2.607   4.622   7.744 -0.2735 -0.0467 -0.3016
   84CHL1  H16A 8644   2.626   4.716   7.800 -0.3105 -1.8893  2.9842
   84CHL1  H16B 8645   2.513   4.576   7.780  0.2440 -0.7453  0.1731
   84CHL1   C17 8646   2.724   4.519   7.766 -0.0443  0.1700  0.7343
   84CHL1   H17 8647   2.675   4.420   7.762 -1.2805  0.8386 -1.5995
   84CHL1   C13 8648   2.813   4.537   7.636 -0.2722 -0.2890 -0.1290
   84CHL1   C18 8649   2.898   4.668   7.654  0.5884 -0.3038  0.5060
   84CHL1  H18A 8650   2.841   4.746   7.708 -1.3367 -0.3007 -1.4567
   84CHL1  H18B 8651   2.996   4.648   7.701  1.1215 -2.4621 -1.4161
   84CHL1  H18C 8652   2.918   4.706   7.552  1.7307  2.8152  1.8445
   84CHL1   C12 8653   2.898   4.420   7.575  0.0137  0.7137 -0.1057
   84CHL1  H12A 8654   2.982   4.397   7.643  0.7082 -3.2378 -2.1375
   84CHL1  H12B 8655   2.838   4.327   7.563  0.7560  0.2168 -0.0014
   84CHL1   C11 8656   2.950   4.446   7.436 -0.4116  0.6707  0.9149
   84CHL1  H11A 8657   3.009   4.538   7.458 -1.8590  1.3772  1.9202
   84CHL1  H11B 8658   3.027   4.370   7.411 -0.0606  0.5712  2.2862
   84CHL1    C9 8659   2.838   4.465   7.330 -0.0367 -0.3810 -0.6267
   84CHL1    H9 8660   2.775   4.374   7.336 -0.2671 -0.1323  1.3312
   84CHL1   C10 8661   2.872   4.472   7.181  0.8700 -0.0989  0.6062
   84CHL1   C19 8662   2.975   4.589   7.156 -0.4900 -0.4204  0.0612
   84CHL1  H19A 8663   2.999   4.602   7.048 -0.2376  1.3283  0.3101
   84CHL1  H19B 8664   2.927   4.683   7.189  1.1974  0.8778 -1.1073
   84CHL1  H19C 8665   3.069   4.583   7.214 -0.5599 -1.3363  0.0869
   84CHL1    C1 8666   2.933   4.331   7.124  0.5260 -0.8063 -0.1232
   84CHL1   H1A 8667   3.037   4.318   7.159  1.3686 -0.2933 -2.4125
   84CHL1   H1B 8668   2.866   4.252   7.163 -1.9432  1.4887  0.4885
   84CHL1    C2 8669   2.942   4.309   6.963  0.0353  0.6955 -0.5906
   84CHL1   H2A 8670   2.976   4.208   6.933 -2.8555 -0.4980  0.0195
   84CHL1   H2B 8671   3.021   4.378   6.925  2.0948 -1.3716 -0.2235
   84CHL1   C20 8672   2.793   4.541   7.896 -0.3294  0.1907  0.5053
   84CHL1   H20 8673   2.835   4.643   7.906 -1.5386  0.8680 -1.1076
   84CHL1   C21 8674   2.913   4.441   7.897  0.5478  0.2447  0.5279
   84CHL1  H21A 8675   2.972   4.438   7.991  1.2416 -0.4512  0.0701
   84CHL1  H21B 8676   2.992   4.477   7.828 -0.1916  0.5341 -0.1817
   84CHL1  H21C 8677   2.884   4.335   7.880  0.2163  0.3501  0.4306
   84CHL1   C22 8678   2.703   4.516   8.017  0.2637 -0.2700 -0.2337
   84CHL1  H22A 8679   2.613   4.579   8.009 -0.2162 -0.9620 -0.3376
   84CHL1  H22B 8680   2.653   4.417   8.031  0.6719 -0.2879  1.2305
   84CHL1   C23 8681   2.778   4.561   8.144  0.0372  0.1587 -0.4552
   84CHL1  H23A 8682   2.853   4.485   8.176 -0.8370  1.2265  4.6482
   84CHL1  H23B 8683   2.828   4.659   8.133 -1.3968  0.7973 -1.4221
   84CHL1   C24 8684   2.683   4.579   8.270 -0.3794  0.1142  0.7239
   84CHL1  H24A 8685   2.606   4.649   8.231 -0.9425 -0.7833  0.2114
   84CHL1  H24B 8686   2.649   4.475   8.290 -0.2331 -0.5633 -2.3463
   84CHL1   C25 8687   2.753   4.637   8.406  0.2796  0.1617  0.9337
   84CHL1   H25 8688   2.825   4.562   8.447  0.1883 -1.7639 -2.3127
   84CHL1   C26 8689   2.832   4.767   8.371 -0.1721  0.5344  0.1412
   84CHL1  H26A 8690   2.786   4.830   8.292  2.0226  1.9652 -0.0546
   84CHL1  H26B 8691   2.855   4.814   8.469  2.1874 -1.2634  0.4928
   84CHL1  H26C 8692   2.930   4.742   8.325 -0.2078 -2.2630  1.4984
   84CHL1   C27 8693   2.667   4.664   8.517 -0.2938  0.4033 -0.4261
   84CHL1  H27A 8694   2.716   4.720   8.601  0.7459  1.1686 -1.5253
   84CHL1  H27B 8695   2.579   4.721   8.480  0.6897  0.6375 -2.4471
   84CHL1  H27C 8696   2.630   4.565   8.552 -0.9280  0.8446  0.1608
   85CHL1    C3 8697   2.308   1.982   6.866 -0.2888  0.0573  0.5881
   85CHL1    H3 8698   2.407   2.028   6.846 -0.8173  0.5311 -1.0415
   85CHL1    O3 8699   2.248   1.975   6.739  0.0162 -0.0822  0.2771
   85CHL1   H3' 8700   2.321   1.948   6.682 -0.8643 -1.7547 -0.1117
   85CHL1    C4 8701   2.313   1.847   6.927 -0.3041  0.2023  0.0597
   85CHL1   H4A 8702   2.213   1.800   6.917 -0.8770  1.2475  0.9007
   85CHL1   H4B 8703   2.378   1.781   6.864  0.4596  0.0751  0.9662
   85CHL1    C5 8704   2.360   1.841   7.072  0.1561  0.0975  0.0738
   85CHL1    C6 8705   2.469   1.776   7.122  0.5191  0.0396  0.6359
   85CHL1    H6 8706   2.529   1.715   7.054 -0.3570  0.8332 -0.8765
   85CHL1    C7 8707   2.516   1.776   7.264 -0.2800  0.2552 -0.2874
   85CHL1   H7A 8708   2.557   1.676   7.288  2.0555  1.5371  1.2580
   85CHL1   H7B 8709   2.603   1.844   7.264 -0.8834  1.0439 -1.5134
   85CHL1    C8 8710   2.404   1.816   7.364  0.7179 -0.2993 -0.7227
   85CHL1    H8 8711   2.326   1.737   7.373  1.5670 -1.1402 -0.6244
   85CHL1   C14 8712   2.461   1.840   7.506  0.8630 -0.1983 -0.2530
   85CHL1   H14 8713   2.540   1.918   7.493  1.4776 -0.5813  1.1183
   85CHL1   C15 8714   2.529   1.723   7.569 -0.3813  0.1094  0.1760
   85CHL1  H15A 8715   2.479   1.627   7.544 -1.4872 -0.1636  3.1968
   85CHL1  H15B 8716   2.636   1.716   7.540 -0.3564  0.7670  0.0949
   85CHL1   C16 8717   2.510   1.756   7.719  0.5954  0.0584  0.4029
   85CHL1  H16A 8718   2.436   1.682   7.756 -1.0385  0.1973 -2.3746
   85CHL1  H16B 8719   2.604   1.737   7.773 -0.3738  0.1187  2.1449
   85CHL1   C17 8720   2.443   1.901   7.732  0.4559 -0.2000  0.1479
   85CHL1   H17 8721   2.527   1.974   7.723 -0.9670  1.4222 -0.2530
   85CHL1   C13 8722   2.359   1.909   7.608 -0.0271  0.2288 -0.0555
   85CHL1   C18 8723   2.237   1.811   7.615  0.4619 -0.0336  0.1835
   85CHL1  H18A 8724   2.199   1.787   7.513  1.5173 -1.0629  0.0208
   85CHL1  H18B 8725   2.250   1.718   7.675 -2.6416 -0.2150  0.6757
   85CHL1  H18C 8726   2.155   1.871   7.660  0.0222  0.8851 -1.7636
   85CHL1   C12 8727   2.315   2.045   7.549  0.0745 -0.4450  0.2077
   85CHL1  H12A 8728   2.237   2.082   7.620 -1.0607 -1.0452 -0.7078
   85CHL1  H12B 8729   2.408   2.105   7.544 -0.1526 -0.2754 -2.5927
   85CHL1   C11 8730   2.249   2.030   7.410 -0.4712 -0.1389 -0.9874
   85CHL1  H11A 8731   2.149   1.981   7.410 -0.4120 -0.2880  0.0214
   85CHL1  H11B 8732   2.228   2.134   7.378 -2.0749 -0.6315 -1.5809
   85CHL1    C9 8733   2.344   1.954   7.313 -0.5822 -0.6571  0.0675
   85CHL1    H9 8734   2.434   2.016   7.294 -1.0773  0.0003 -0.1536
   85CHL1   C10 8735   2.280   1.936   7.169  0.0566 -0.6121 -0.2867
   85CHL1   C19 8736   2.142   1.858   7.186 -0.1015  0.0751  0.3879
   85CHL1  H19A 8737   2.160   1.754   7.219  0.5949  0.0017 -0.1950
   85CHL1  H19B 8738   2.080   1.897   7.269  1.4311  2.3359  0.5185
   85CHL1  H19C 8739   2.090   1.851   7.088  0.6511  3.0292 -0.2797
   85CHL1    C1 8740   2.255   2.075   7.108  0.4811  0.1136 -0.7295
   85CHL1   H1A 8741   2.172   2.119   7.166  0.8842  0.6593 -0.5583
   85CHL1   H1B 8742   2.338   2.148   7.123  0.5423 -0.1793  0.4241
   85CHL1    C2 8743   2.225   2.080   6.961  1.3493  0.2934 -0.1147
   85CHL1   H2A 8744   2.236   2.179   6.912 -1.2661  0.6872  0.0152
   85CHL1   H2B 8745   2.120   2.048   6.945  1.2076  0.4075  0.5995
   85CHL1   C20 8746   2.367   1.929   7.868 -0.0973  0.1823  0.1404
   85CHL1   H20 8747   2.264   1.892   7.850  0.8608 -2.0280 -0.9459
   85CHL1   C21 8748   2.366   2.081   7.890  0.4556 -0.1011 -0.2405
   85CHL1  H21A 8749   2.322   2.100   7.990 -2.2410 -0.0437 -1.3703
   85CHL1  H21B 8750   2.299   2.129   7.816  0.6141  1.4524  0.6192
   85CHL1  H21C 8751   2.471   2.115   7.887  0.2776  0.5041  0.5127
   85CHL1   C22 8752   2.423   1.863   7.995  0.3204  0.3116 -0.2104
   85CHL1  H22A 8753   2.346   1.885   8.072  0.7502 -1.6356  0.7762
   85CHL1  H22B 8754   2.426   1.754   7.979 -0.1656  0.4190 -1.1046
   85CHL1   C23 8755   2.551   1.930   8.048 -0.0932 -0.2470 -0.2969
   85CHL1  H23A 8756   2.623   1.960   7.969 -0.0066  0.6475  0.1064
   85CHL1  H23B 8757   2.538   2.029   8.097  0.8510  0.1372 -0.8088
   85CHL1   C24 8758   2.616   1.857   8.166  0.5349 -0.4970  0.1342
   85CHL1  H24A 8759   2.529   1.836   8.231  0.4318  2.2218  0.9051
   85CHL1  H24B 8760   2.652   1.758   8.132  2.2885  0.4733 -0.8894
   85CHL1   C25 8761   2.735   1.938   8.226 -0.7470 -0.2986 -0.2132
   85CHL1   H25 8762   2.711   2.046   8.210 -2.1682 -0.8202 -1.7537
   85CHL1   C26 8763   2.738   1.918   8.380  0.5607  0.0288  0.7847
   85CHL1  H26A 8764   2.820   1.973   8.429  1.8099 -1.2923  0.2162
   85CHL1  H26B 8765   2.634   1.928   8.417 -0.0352  2.0927 -1.2883
   85CHL1  H26C 8766   2.761   1.811   8.399 -2.4374 -0.5765  1.2144
   85CHL1   C27 8767   2.858   1.919   8.150  0.8582  0.6536  0.2114
   85CHL1  H27A 8768   2.856   1.958   8.046 -0.0617 -0.6489 -0.2614
   85CHL1  H27B 8769   2.945   1.962   8.205  2.6533  0.7865 -2.6625
   85CHL1  H27C 8770   2.873   1.809   8.160  1.1617  0.8127  1.7546
   86CHL1    C3 8771   4.299   6.483   7.061 -0.2769 -0.0929  0.6407
   86CHL1    H3 8772   4.399   6.445   7.031  0.9058  2.8811  0.6776
   86CHL1    O3 8773   4.243   6.563   6.957  0.2907 -0.2329  0.0609
   86CHL1   H3' 8774   4.157   6.521   6.953  0.3369 -0.4036  0.8313
   86CHL1    C4 8775   4.208   6.362   7.083  0.5859 -0.4791 -0.0354
   86CHL1   H4A 8776   4.106   6.398   7.108  0.2145 -0.8485 -0.9779
   86CHL1   H4B 8777   4.211   6.310   6.985 -0.3224  2.4532 -1.6875
   86CHL1    C5 8778   4.248   6.268   7.199 -0.0956 -0.0654  0.6056
   86CHL1    C6 8779   4.267   6.135   7.175 -0.9051  0.3090  0.1563
   86CHL1    H6 8780   4.229   6.097   7.079 -0.2045  0.0264 -0.0144
   86CHL1    C7 8781   4.322   6.041   7.279  0.3424  0.2740 -0.3857
   86CHL1   H7A 8782   4.258   5.950   7.272  1.2571 -0.4106  0.0911
   86CHL1   H7B 8783   4.431   6.033   7.260  0.1357 -1.9582 -0.8645
   86CHL1    C8 8784   4.311   6.102   7.421 -0.2301  0.0685  0.6306
   86CHL1    H8 8785   4.205   6.102   7.456 -0.2944  0.6914  0.4487
   86CHL1   C14 8786   4.385   6.014   7.514 -0.5029  0.1458 -0.1903
   86CHL1   H14 8787   4.492   6.025   7.489 -0.9181 -0.8934 -2.5504
   86CHL1   C15 8788   4.361   5.864   7.516 -0.3862 -0.2896 -0.5059
   86CHL1  H15A 8789   4.254   5.846   7.494 -0.3482 -0.5906 -0.4352
   86CHL1  H15B 8790   4.419   5.822   7.432  0.1808 -0.7133  0.0921
   86CHL1   C16 8791   4.411   5.817   7.660 -0.6716 -0.1122 -0.1450
   86CHL1  H16A 8792   4.327   5.766   7.712  0.4187 -0.6411  1.1451
   86CHL1  H16B 8793   4.501   5.753   7.650 -0.2348  0.1588  1.7413
   86CHL1   C17 8794   4.459   5.947   7.733  0.4034  1.0834 -0.2387
   86CHL1   H17 8795   4.565   5.958   7.704  0.7527 -0.1626  0.5471
   86CHL1   C13 8796   4.380   6.061   7.665 -0.4192 -0.0657  0.4961
   86CHL1   C18 8797   4.240   6.069   7.720 -0.1521 -0.2465  0.1193
   86CHL1  H18A 8798   4.228   6.107   7.824  1.9873  0.4499  0.1324
   86CHL1  H18B 8799   4.172   6.132   7.659 -0.4771 -1.0324 -0.3339
   86CHL1  H18C 8800   4.191   5.969   7.718  1.9874 -1.3384  0.4790
   86CHL1   C12 8801   4.453   6.198   7.664  0.6428 -0.1667  0.6998
   86CHL1  H12A 8802   4.457   6.247   7.763 -2.7369  0.7422  0.4304
   86CHL1  H12B 8803   4.563   6.189   7.645  0.3454  1.0278 -1.7690
   86CHL1   C11 8804   4.387   6.301   7.571  0.5226 -0.1110 -0.1863
   86CHL1  H11A 8805   4.288   6.322   7.618  1.6097 -1.5654  2.9116
   86CHL1  H11B 8806   4.456   6.387   7.556 -2.2845  2.5477  1.5767
   86CHL1    C9 8807   4.361   6.248   7.423 -0.1494  0.2007  0.2939
   86CHL1    H9 8808   4.463   6.244   7.379 -0.7725 -0.0141 -1.1638
   86CHL1   C10 8809   4.288   6.346   7.324  0.1211  0.0538 -0.3187
   86CHL1   C19 8810   4.158   6.388   7.401 -0.7915 -0.4257  0.2528
   86CHL1  H19A 8811   4.174   6.458   7.485  0.8501 -0.9126  0.3561
   86CHL1  H19B 8812   4.087   6.440   7.333  0.9937  0.7820 -0.7108
   86CHL1  H19C 8813   4.103   6.295   7.431 -0.0038 -0.4095  1.7855
   86CHL1    C1 8814   4.375   6.468   7.285 -0.0908 -0.2721 -0.5822
   86CHL1   H1A 8815   4.407   6.527   7.373 -2.5182  2.2516 -1.3194
   86CHL1   H1B 8816   4.467   6.425   7.240 -0.4511 -2.3731  0.6465
   86CHL1    C2 8817   4.314   6.563   7.186  0.1553 -0.0489  0.1001
   86CHL1   H2A 8818   4.382   6.648   7.165 -1.3727  1.4329  1.1437
   86CHL1   H2B 8819   4.224   6.618   7.220  1.2339  0.5175  2.1192
   86CHL1   C20 8820   4.442   5.926   7.885  0.6576  0.4881  0.1550
   86CHL1   H20 8821   4.334   5.903   7.901  0.8151 -0.6519 -0.4426
   86CHL1   C21 8822   4.468   6.060   7.966  0.1644 -0.1460 -0.1126
   86CHL1  H21A 8823   4.393   6.139   7.947 -0.3583 -0.5475  0.2577
   86CHL1  H21B 8824   4.565   6.110   7.946  0.9309 -0.5417  2.3931
   86CHL1  H21C 8825   4.474   6.032   8.073 -0.8768  0.6522  0.1616
   86CHL1   C22 8826   4.528   5.806   7.940  0.0282  0.3833  0.9228
   86CHL1  H22A 8827   4.495   5.711   7.894  0.0000  1.0524 -0.4744
   86CHL1  H22B 8828   4.630   5.834   7.905  0.7192 -2.4432  0.5237
   86CHL1   C23 8829   4.526   5.777   8.092 -0.2485  0.6628 -0.3522
   86CHL1  H23A 8830   4.547   5.863   8.160 -0.4225  0.4389 -0.0152
   86CHL1  H23B 8831   4.425   5.737   8.115 -0.5546  1.0091 -1.0882
   86CHL1   C24 8832   4.625   5.659   8.137  0.4159 -0.1793 -0.5578
   86CHL1  H24A 8833   4.597   5.564   8.086  0.2283 -0.2726 -0.2833
   86CHL1  H24B 8834   4.725   5.681   8.095 -0.6071  1.7769 -2.0679
   86CHL1   C25 8835   4.658   5.646   8.288 -0.4178  0.1866 -0.5390
   86CHL1   H25 8836   4.699   5.738   8.334  2.3976 -0.3579 -1.8541
   86CHL1   C26 8837   4.533   5.599   8.368 -0.4454  0.2423 -0.0401
   86CHL1  H26A 8838   4.502   5.499   8.330  0.2731 -0.0026  0.0062
   86CHL1  H26B 8839   4.550   5.588   8.478 -0.4370 -1.5881 -0.2071
   86CHL1  H26C 8840   4.456   5.678   8.361  0.1299  0.7205 -1.0183
   86CHL1   C27 8841   4.764   5.538   8.306 -0.1914 -0.1299  0.5484
   86CHL1  H27A 8842   4.789   5.539   8.415  1.1132 -1.5785  0.2753
   86CHL1  H27B 8843   4.717   5.441   8.279  0.3241  0.3235 -2.1269
   86CHL1  H27C 8844   4.848   5.568   8.239  0.4550  1.4242  1.9891
   87CHL1    C3 8845   4.744   4.726   6.940  0.8771 -0.8915  0.0239
   87CHL1    H3 8846   4.752   4.818   7.002 -1.4123  0.3535 -1.4484
   87CHL1    O3 8847   4.797   4.774   6.813  0.3982  0.1281 -0.2029
   87CHL1   H3' 8848   4.858   4.705   6.787 -0.9875 -0.4505 -2.0622
   87CHL1    C4 8849   4.828   4.617   6.998 -0.4731  0.4793  0.7708
   87CHL1   H4A 8850   4.813   4.536   6.923  1.0376  0.2729  0.6628
   87CHL1   H4B 8851   4.937   4.640   6.998 -0.1198 -0.2976 -5.5702
   87CHL1    C5 8852   4.765   4.578   7.133 -0.5486  0.1934  0.0646
   87CHL1    C6 8853   4.842   4.579   7.241 -0.9007 -0.1354  0.2322
   87CHL1    H6 8854   4.946   4.612   7.229 -0.8528  0.0072  1.0380
   87CHL1    C7 8855   4.795   4.532   7.381  0.0847 -0.5153  0.1946
   87CHL1   H7A 8856   4.865   4.458   7.425 -1.9109 -1.0389  2.5395
   87CHL1   H7B 8857   4.795   4.619   7.451  2.0708 -0.5082  0.2330
   87CHL1    C8 8858   4.659   4.461   7.377  0.4446 -0.6001  1.1012
   87CHL1    H8 8859   4.683   4.358   7.345 -2.1553 -0.5217 -1.3023
   87CHL1   C14 8860   4.597   4.460   7.519  0.3922  0.0032 -0.0909
   87CHL1   H14 8861   4.579   4.567   7.542  3.2610  0.4839  0.1817
   87CHL1   C15 8862   4.680   4.400   7.634  0.0907 -0.3729  0.4150
   87CHL1  H15A 8863   4.745   4.321   7.590 -0.2080 -1.0252  1.1451
   87CHL1  H15B 8864   4.743   4.469   7.694 -0.1902  0.8338 -0.6596
   87CHL1   C16 8865   4.569   4.332   7.722 -0.1496 -0.2537 -0.0120
   87CHL1  H16A 8866   4.599   4.225   7.721  0.0046 -0.2198  0.6665
   87CHL1  H16B 8867   4.584   4.375   7.824  0.2882  0.7721 -0.4973
   87CHL1   C17 8868   4.432   4.373   7.665  0.3577  0.0313  0.6321
   87CHL1   H17 8869   4.424   4.475   7.707 -0.1291  0.4494 -0.4809
   87CHL1   C13 8870   4.460   4.383   7.515 -0.6490  0.1201 -0.2397
   87CHL1   C18 8871   4.470   4.249   7.455 -0.1754  0.1837 -0.3432
   87CHL1  H18A 8872   4.498   4.240   7.348  0.8670  2.5386 -0.3019
   87CHL1  H18B 8873   4.540   4.184   7.511 -0.6526 -0.7940 -0.8771
   87CHL1  H18C 8874   4.370   4.203   7.466  0.4734 -0.7851  1.6929
   87CHL1   C12 8875   4.369   4.468   7.431  0.7735  1.1171 -0.2929
   87CHL1  H12A 8876   4.264   4.432   7.434  0.8560  0.9333  0.6918
   87CHL1  H12B 8877   4.360   4.569   7.478 -0.9693  1.7250 -1.8904
   87CHL1   C11 8878   4.417   4.487   7.287  0.5349  0.5798  0.2077
   87CHL1  H11A 8879   4.424   4.390   7.232 -1.7321 -0.1606  1.1610
   87CHL1  H11B 8880   4.354   4.564   7.237 -3.0829  0.1822  3.8767
   87CHL1    C9 8881   4.563   4.536   7.281  0.2325  0.0057  0.2027
   87CHL1    H9 8882   4.574   4.638   7.325 -2.0162 -0.8917  3.0076
   87CHL1   C10 8883   4.613   4.546   7.127 -1.3001 -0.5503  0.5298
   87CHL1   C19 8884   4.607   4.417   7.049 -0.2867 -0.6419  0.4627
   87CHL1  H19A 8885   4.660   4.337   7.107  1.6904 -0.5968 -1.2363
   87CHL1  H19B 8886   4.502   4.380   7.049  0.2039 -2.1542  2.4164
   87CHL1  H19C 8887   4.641   4.423   6.944 -0.0977 -0.9646  0.5023
   87CHL1    C1 8888   4.534   4.659   7.052  0.0001 -0.4174  0.1301
   87CHL1   H1A 8889   4.429   4.638   7.023 -0.3295  0.0673  0.9563
   87CHL1   H1B 8890   4.517   4.751   7.112  3.6702 -0.0832  0.7654
   87CHL1    C2 8891   4.593   4.691   6.916  0.7386 -0.3894  0.0679
   87CHL1   H2A 8892   4.544   4.787   6.888 -0.3874 -1.0396 -0.2379
   87CHL1   H2B 8893   4.581   4.611   6.839 -1.3397 -1.1714  1.1668
   87CHL1   C20 8894   4.317   4.295   7.719  0.1226  0.4463 -1.7108
   87CHL1   H20 8895   4.316   4.194   7.673 -0.0188 -0.1858 -0.3516
   87CHL1   C21 8896   4.179   4.360   7.688 -0.1167  0.0646 -0.9992
   87CHL1  H21A 8897   4.180   4.467   7.717 -0.5567  0.0721 -1.0139
   87CHL1  H21B 8898   4.108   4.318   7.763 -0.2137  1.4756 -0.2955
   87CHL1  H21C 8899   4.140   4.351   7.585  0.8888 -2.1444 -1.2227
   87CHL1   C22 8900   4.328   4.257   7.874  0.6177 -0.0622 -0.6373
   87CHL1  H22A 8901   4.243   4.198   7.913  0.5207 -0.1136 -0.9242
   87CHL1  H22B 8902   4.418   4.192   7.884  0.9071 -0.0326 -2.8113
   87CHL1   C23 8903   4.330   4.370   7.975 -0.1248 -0.3805  0.0311
   87CHL1  H23A 8904   4.410   4.446   7.962 -0.1761 -0.1693  0.8789
   87CHL1  H23B 8905   4.238   4.433   7.973  0.4224  0.4334  0.1653
   87CHL1   C24 8906   4.356   4.322   8.120  0.0021 -0.5998 -0.0002
   87CHL1  H24A 8907   4.279   4.249   8.154 -0.7283  0.8665  1.5564
   87CHL1  H24B 8908   4.447   4.259   8.121 -0.9031 -1.9317  0.0141
   87CHL1   C25 8909   4.354   4.433   8.220  0.7909 -0.2090  0.4611
   87CHL1   H25 8910   4.250   4.472   8.218  0.1653 -1.8638 -0.7042
   87CHL1   C26 8911   4.359   4.389   8.373  0.1815 -0.2156 -0.9744
   87CHL1  H26A 8912   4.321   4.470   8.440  0.8985 -2.2436  2.0145
   87CHL1  H26B 8913   4.282   4.311   8.394 -0.2586  0.4323 -0.1714
   87CHL1  H26C 8914   4.462   4.359   8.402  0.0821  0.1383 -0.2318
   87CHL1   C27 8915   4.459   4.536   8.197 -0.3195  0.0427 -0.0658
   87CHL1  H27A 8916   4.446   4.591   8.101 -1.2526  0.9608  0.5808
   87CHL1  H27B 8917   4.450   4.617   8.272  0.8420  0.4001 -0.3044
   87CHL1  H27C 8918   4.560   4.490   8.207 -0.0701  0.7323  0.6640
   88CHL1    C3 8919   2.227   3.428   6.924 -0.1894  0.5732 -0.9181
   88CHL1    H3 8920   2.299   3.345   6.908  0.3689  0.8223  0.2087
   88CHL1    O3 8921   2.216   3.514   6.811 -0.0822 -0.2684 -0.3536
   88CHL1   H3' 8922   2.151   3.472   6.754 -0.6320 -2.2483  1.6758
   88CHL1    C4 8923   2.093   3.363   6.960 -0.3337 -0.3458 -1.2388
   88CHL1   H4A 8924   2.023   3.448   6.963 -0.4031 -0.4101 -1.0472
   88CHL1   H4B 8925   2.075   3.291   6.877  3.7125 -3.0011  0.0218
   88CHL1    C5 8926   2.086   3.297   7.094 -0.5600  0.3493  0.1567
   88CHL1    C6 8927   2.051   3.170   7.101 -0.4788 -0.4859 -0.4256
   88CHL1    H6 8928   2.029   3.101   7.018  1.2567 -1.5200 -0.0652
   88CHL1    C7 8929   2.037   3.096   7.232  0.7428  0.2222  0.4830
   88CHL1   H7A 8930   1.936   3.049   7.230  0.4529  0.8094  0.8732
   88CHL1   H7B 8931   2.115   3.019   7.247  0.7331  0.3183  1.0493
   88CHL1    C8 8932   2.041   3.193   7.350 -0.8445 -0.4276 -0.3418
   88CHL1    H8 8933   1.946   3.246   7.371 -0.0224  1.2176 -0.6309
   88CHL1   C14 8934   2.065   3.103   7.470 -0.5209 -0.4789 -0.4801
   88CHL1   H14 8935   2.156   3.042   7.449  0.9404  1.7863 -0.8111
   88CHL1   C15 8936   1.958   3.003   7.503  0.2544  0.6646  0.2031
   88CHL1  H15A 8937   1.858   3.047   7.482 -0.8724 -0.5809  2.7818
   88CHL1  H15B 8938   1.972   2.909   7.446  0.2547 -0.4209  1.9623
   88CHL1   C16 8939   1.983   2.970   7.654 -0.7804 -0.7921  0.2192
   88CHL1  H16A 8940   1.892   2.995   7.713 -0.0370 -0.4061  1.2130
   88CHL1  H16B 8941   2.014   2.866   7.679  1.8881 -0.3547 -1.1419
   88CHL1   C17 8942   2.101   3.066   7.706 -0.0187  0.0599 -0.0388
   88CHL1   H17 8943   2.201   3.026   7.679 -0.0451  0.1562 -0.2810
   88CHL1   C13 8944   2.088   3.179   7.601 -0.6272  0.1379  0.0631
   88CHL1   C18 8945   1.959   3.266   7.642  0.3566  0.0683  0.3043
   88CHL1  H18A 8946   1.865   3.207   7.647 -1.9493  3.6287  0.6364
   88CHL1  H18B 8947   1.962   3.315   7.742  0.0765  1.4578 -0.3558
   88CHL1  H18C 8948   1.937   3.337   7.559  4.3626  0.3268 -0.6487
   88CHL1   C12 8949   2.212   3.276   7.582  0.1296 -0.1983 -0.0632
   88CHL1  H12A 8950   2.259   3.319   7.673  1.0927 -1.1291 -0.1115
   88CHL1  H12B 8951   2.297   3.209   7.560 -2.2289 -3.5219  0.5404
   88CHL1   C11 8952   2.189   3.368   7.468 -0.6127  0.4550 -0.0780
   88CHL1  H11A 8953   2.108   3.438   7.499 -1.3031 -0.5173  0.3496
   88CHL1  H11B 8954   2.275   3.436   7.448  0.4817 -0.7984  0.3067
   88CHL1    C9 8955   2.160   3.292   7.341  0.5014  0.2460 -0.5499
   88CHL1    H9 8956   2.251   3.229   7.329  0.1684 -0.6496  1.3774
   88CHL1   C10 8957   2.137   3.382   7.211 -0.3463 -0.0976  0.4823
   88CHL1   C19 8958   2.042   3.501   7.239  0.0202  0.2372  0.2915
   88CHL1  H19A 8959   1.942   3.464   7.268 -0.1053 -0.0701 -0.5321
   88CHL1  H19B 8960   2.080   3.566   7.321  1.8498 -0.2731 -0.1242
   88CHL1  H19C 8961   2.042   3.564   7.147  1.8041  0.9120  0.7320
   88CHL1    C1 8962   2.274   3.430   7.170  0.6720 -0.4978  0.1440
   88CHL1   H1A 8963   2.328   3.493   7.244 -0.9402  1.0585  0.0499
   88CHL1   H1B 8964   2.348   3.348   7.165 -2.2647 -3.2033 -0.1199
   88CHL1    C2 8965   2.278   3.515   7.042 -0.4444  0.5574  0.0729
   88CHL1   H2A 8966   2.381   3.555   7.027 -0.8705  1.6068 -0.0312
   88CHL1   H2B 8967   2.213   3.604   7.053  0.4241  1.3240 -0.8294
   88CHL1   C20 8968   2.096   3.093   7.853 -0.5065 -0.8914 -0.8064
   88CHL1   H20 8969   2.036   3.182   7.882  0.2072 -0.6695  0.0058
   88CHL1   C21 8970   2.239   3.124   7.902  0.4721  0.9430 -0.4282
   88CHL1  H21A 8971   2.304   3.038   7.873  1.3829  1.7442 -0.8117
   88CHL1  H21B 8972   2.250   3.135   8.012  1.5500 -1.3615 -0.2725
   88CHL1  H21C 8973   2.267   3.214   7.843  0.5760  0.1485 -1.6142
   88CHL1   C22 8974   2.029   2.985   7.943  0.6350  0.3544 -0.1358
   88CHL1  H22A 8975   1.919   2.991   7.926  0.1239 -0.8011  2.5171
   88CHL1  H22B 8976   2.059   2.886   7.900 -2.2018  0.1714 -1.8611
   88CHL1   C23 8977   2.050   3.004   8.096  0.3859  0.1519 -0.1635
   88CHL1  H23A 8978   2.154   2.979   8.127  0.5892  0.9890 -0.1612
   88CHL1  H23B 8979   2.043   3.114   8.108 -1.4455  0.0831 -0.4809
   88CHL1   C24 8980   1.957   2.934   8.194 -0.2958  1.0109 -0.1761
   88CHL1  H24A 8981   1.858   2.983   8.192 -0.8634 -0.1284 -0.2628
   88CHL1  H24B 8982   1.947   2.830   8.156  0.4713  0.5984  0.7321
   88CHL1   C25 8983   2.010   2.931   8.340  0.2113  0.2844 -0.2306
   88CHL1   H25 8984   2.116   2.898   8.340  0.5229  1.1957 -2.0402
   88CHL1   C26 8985   2.008   3.074   8.402 -0.5206  0.3722  0.2812
   88CHL1  H26A 8986   2.075   3.144   8.347 -2.5889  0.8682 -1.6538
   88CHL1  H26B 8987   1.909   3.120   8.420  0.8933  3.0985  1.4278
   88CHL1  H26C 8988   2.046   3.053   8.504  1.9417 -2.2552 -1.0926
   88CHL1   C27 8989   1.927   2.839   8.434 -0.1040  0.1650  0.2541
   88CHL1  H27A 8990   1.974   2.822   8.532 -1.1132 -0.6476  0.6132
   88CHL1  H27B 8991   1.830   2.891   8.450  0.0818  0.2865  0.9731
   88CHL1  H27C 8992   1.907   2.743   8.381  1.0092 -0.4428  0.9216
   89CHL1    C3 8993   4.707   6.020   7.077  0.1612  0.1404  0.0056
   89CHL1    H3 8994   4.608   6.047   7.119  0.3631 -0.4433  0.8724
   89CHL1    O3 8995   4.706   6.002   6.933 -0.3590 -0.0907  0.0668
   89CHL1   H3' 8996   4.797   5.977   6.915 -0.9399 -0.2817 -2.8276
   89CHL1    C4 8997   4.800   6.138   7.113  0.6533  0.4518  1.0859
   89CHL1   H4A 8998   4.895   6.124   7.058 -0.3794 -3.7620  0.2016
   89CHL1   H4B 8999   4.734   6.218   7.074  0.7810  1.4084  2.7715
   89CHL1    C5 9000   4.835   6.147   7.256  0.0866  0.0867  0.2765
   89CHL1    C6 9001   4.823   6.257   7.327 -0.0977  0.5248  0.4641
   89CHL1    H6 9002   4.787   6.343   7.269 -0.7443  0.9233  1.4291
   89CHL1    C7 9003   4.862   6.282   7.469 -0.2969 -0.0734  0.2518
   89CHL1   H7A 9004   4.940   6.361   7.470  1.6684 -1.9689  0.5727
   89CHL1   H7B 9005   4.769   6.318   7.520  0.0392 -0.0887  0.8854
   89CHL1    C8 9006   4.930   6.161   7.533 -0.1285 -0.7662  0.5623
   89CHL1    H8 9007   5.036   6.156   7.500  0.1735 -1.1432  1.5783
   89CHL1   C14 9008   4.935   6.172   7.686  0.8900  0.7112 -0.0511
   89CHL1   H14 9009   4.828   6.183   7.716  0.8429 -1.2554  0.5113
   89CHL1   C15 9010   4.998   6.294   7.743 -0.5887  0.4786  0.5723
   89CHL1  H15A 9011   5.101   6.310   7.705 -0.6344 -2.5486 -0.9634
   89CHL1  H15B 9012   4.939   6.383   7.713  0.0416  1.5545  2.4731
   89CHL1   C16 9013   4.983   6.263   7.902  0.1259  0.2959 -0.3283
   89CHL1  H16A 9014   5.071   6.314   7.947 -1.0090  3.0945 -1.1231
   89CHL1  H16B 9015   4.889   6.304   7.946  0.9993  2.2362 -0.2205
   89CHL1   C17 9016   4.987   6.108   7.912 -0.5760 -0.6838  0.3208
   89CHL1   H17 9017   4.885   6.076   7.941 -1.3960 -0.4339 -2.1505
   89CHL1   C13 9018   4.998   6.056   7.767 -0.6221 -0.0622  0.7128
   89CHL1   C18 9019   5.156   6.039   7.729 -0.4309  0.5028  0.0070
   89CHL1  H18A 9020   5.213   5.954   7.772  1.1519  2.2328  1.4447
   89CHL1  H18B 9021   5.185   6.041   7.622  1.6089  1.8595  0.5551
   89CHL1  H18C 9022   5.198   6.139   7.754 -0.7065  0.1553  1.9598
   89CHL1   C12 9023   4.920   5.933   7.721 -1.0115 -0.2201 -0.1752
   89CHL1  H12A 9024   4.961   5.842   7.769 -0.3069 -0.1781 -0.6939
   89CHL1  H12B 9025   4.813   5.940   7.751 -0.3162  1.3115  2.1495
   89CHL1   C11 9026   4.921   5.909   7.566 -0.3351  0.0510 -0.2588
   89CHL1  H11A 9027   5.029   5.899   7.541  0.2242 -0.4528  2.2208
   89CHL1  H11B 9028   4.867   5.819   7.529 -3.4011  1.6720  0.2125
   89CHL1    C9 9029   4.864   6.028   7.487 -0.2381 -0.4709  0.9028
   89CHL1    H9 9030   4.756   6.038   7.513 -0.1590 -1.1616  1.5021
   89CHL1   C10 9031   4.880   6.013   7.332 -0.0713  0.7249  0.7901
   89CHL1   C19 9032   5.024   5.985   7.291  0.2203  0.1218 -0.0740
   89CHL1  H19A 9033   5.012   5.961   7.183  2.1247  0.4418 -0.3826
   89CHL1  H19B 9034   5.100   6.066   7.305  1.4091 -0.6579 -1.7747
   89CHL1  H19C 9035   5.067   5.893   7.336  0.5739 -0.2668 -1.1774
   89CHL1    C1 9036   4.779   5.900   7.281  0.4390  0.2523 -0.3514
   89CHL1   H1A 9037   4.818   5.804   7.321  2.5695  0.4918 -1.7936
   89CHL1   H1B 9038   4.677   5.907   7.323 -0.6035 -1.2601 -2.5392
   89CHL1    C2 9039   4.752   5.888   7.125 -0.3176 -0.5543 -0.4065
   89CHL1   H2A 9040   4.673   5.810   7.111 -1.1378  0.2773 -0.4973
   89CHL1   H2B 9041   4.847   5.854   7.080  0.4177  0.0780  0.6437
   89CHL1   C20 9042   5.080   6.050   8.022 -0.7976 -0.3303 -0.2836
   89CHL1   H20 9043   5.182   6.083   7.993 -1.1572  0.8812 -0.2029
   89CHL1   C21 9044   5.072   5.893   8.025 -0.0920 -0.1803  0.2147
   89CHL1  H21A 9045   4.970   5.855   8.044 -0.7076  1.3293 -0.0123
   89CHL1  H21B 9046   5.130   5.845   8.107  0.6547 -1.6624 -1.1417
   89CHL1  H21C 9047   5.115   5.850   7.932 -1.7735 -0.1515 -0.5864
   89CHL1   C22 9048   5.055   6.106   8.163  0.0100 -0.0073  0.6074
   89CHL1  H22A 9049   5.135   6.062   8.227  2.2489  1.2870 -1.1978
   89CHL1  H22B 9050   5.066   6.217   8.159  1.9087 -0.1826  0.5860
   89CHL1   C23 9051   4.911   6.096   8.223 -0.3020  0.4072  0.6236
   89CHL1  H23A 9052   4.833   6.101   8.144  0.9032  0.3847 -0.5625
   89CHL1  H23B 9053   4.905   5.993   8.263  3.8523 -0.5644 -1.0777
   89CHL1   C24 9054   4.873   6.210   8.312 -0.0395  0.2665 -0.0229
   89CHL1  H24A 9055   4.935   6.212   8.405 -0.4725 -0.3374  0.2768
   89CHL1  H24B 9056   4.878   6.306   8.256  0.0551 -0.0900 -0.6291
   89CHL1   C25 9057   4.730   6.204   8.377 -0.4141 -0.0553 -0.5204
   89CHL1   H25 9058   4.742   6.256   8.475  0.1285  1.9153 -1.6129
   89CHL1   C26 9059   4.637   6.291   8.290  0.1635 -0.0079 -0.4979
   89CHL1  H26A 9060   4.533   6.286   8.330  0.1838 -0.2433 -0.4763
   89CHL1  H26B 9061   4.683   6.392   8.297 -1.6124  0.7726  0.1885
   89CHL1  H26C 9062   4.643   6.271   8.181  0.2237  0.5820 -0.6079
   89CHL1   C27 9063   4.671   6.064   8.407 -0.0220  0.3378 -0.4219
   89CHL1  H27A 9064   4.575   6.057   8.463  0.9555  0.0316  1.2556
   89CHL1  H27B 9065   4.647   6.013   8.311  0.1073 -1.8968  0.6863
   89CHL1  H27C 9066   4.739   5.995   8.462  0.1334 -1.6650 -3.0137
   90CHL1    C3 9067   5.014   0.754   7.007  0.1256 -0.9342 -0.2831
   90CHL1    H3 9068   5.054   0.651   7.014 -1.0675 -1.4255 -0.5657
   90CHL1    O3 9069   4.957   0.779   6.874  0.1856 -0.3106  0.5873
   90CHL1   H3' 9070   4.862   0.783   6.891 -0.4186 -2.3233 -2.0532
   90CHL1    C4 9071   4.909   0.780   7.112  0.0026  0.2026  0.1479
   90CHL1   H4A 9072   4.869   0.883   7.101 -2.0803 -0.3313  2.2862
   90CHL1   H4B 9073   4.834   0.699   7.100  1.3426 -1.1169  0.5247
   90CHL1    C5 9074   4.963   0.773   7.256  0.0725  0.3334 -0.5549
   90CHL1    C6 9075   4.913   0.689   7.346  0.1233  0.1796  0.6742
   90CHL1    H6 9076   4.819   0.635   7.333 -0.0421  0.6407 -0.0893
   90CHL1    C7 9077   4.954   0.694   7.486 -0.0930  0.4972  0.1042
   90CHL1   H7A 9078   4.864   0.695   7.551  0.1685  2.5606  0.4752
   90CHL1   H7B 9079   4.996   0.596   7.515  0.1105  0.3655 -0.6274
   90CHL1    C8 9080   5.035   0.815   7.531 -0.5451  0.5607  0.8320
   90CHL1    H8 9081   4.967   0.902   7.528  0.3951  1.2868 -0.1943
   90CHL1   C14 9082   5.092   0.793   7.671 -0.1631  0.2170  0.2516
   90CHL1   H14 9083   5.170   0.714   7.668 -0.9077 -0.5461  0.4553
   90CHL1   C15 9084   4.989   0.750   7.786 -0.2997 -0.0406  0.6592
   90CHL1  H15A 9085   4.904   0.821   7.782  0.6274  1.0440 -0.3344
   90CHL1  H15B 9086   4.957   0.645   7.771 -1.2042  0.0616  1.8181
   90CHL1   C16 9087   5.070   0.782   7.914  0.7594 -0.1587 -0.3694
   90CHL1  H16A 9088   5.007   0.843   7.983  1.4612 -0.0896  0.2123
   90CHL1  H16B 9089   5.088   0.682   7.958  1.0338  0.6061  1.3008
   90CHL1   C17 9090   5.198   0.854   7.864  0.5620 -0.2204  0.2295
   90CHL1   H17 9091   5.279   0.782   7.839  0.0157 -1.2634  1.4347
   90CHL1   C13 9092   5.167   0.913   7.723  0.5215 -0.3553  0.6116
   90CHL1   C18 9093   5.092   1.049   7.746 -0.0628  0.5434  0.4580
   90CHL1  H18A 9094   5.011   1.053   7.822  0.0830  1.3541  0.5835
   90CHL1  H18B 9095   5.160   1.134   7.768 -1.2513  1.3960  0.9009
   90CHL1  H18C 9096   5.038   1.074   7.653 -2.0210  0.1384  1.4640
   90CHL1   C12 9097   5.293   0.936   7.630 -0.4545 -0.0158  0.2113
   90CHL1  H12A 9098   5.340   1.036   7.642 -2.0700  0.6567  1.2019
   90CHL1  H12B 9099   5.366   0.855   7.651  0.1003 -0.3527 -2.8447
   90CHL1   C11 9100   5.243   0.957   7.481 -0.4443 -0.1069  0.0300
   90CHL1  H11A 9101   5.202   1.060   7.473 -2.5662 -0.7130  2.3892
   90CHL1  H11B 9102   5.337   0.951   7.422 -0.4367 -1.6501  0.1936
   90CHL1    C9 9103   5.142   0.849   7.427  0.7196  0.4281 -0.3842
   90CHL1    H9 9104   5.199   0.754   7.437 -1.5982 -0.9419  0.4007
   90CHL1   C10 9105   5.082   0.869   7.287 -0.2901  0.1985  1.1601
   90CHL1   C19 9106   5.033   1.015   7.271 -0.5477  0.1648 -0.3057
   90CHL1  H19A 9107   4.979   1.039   7.365 -0.4554 -3.3315  0.7010
   90CHL1  H19B 9108   5.124   1.078   7.269 -0.3311 -0.1191  0.3759
   90CHL1  H19C 9109   4.973   1.043   7.182 -1.4962  1.9284  0.8416
   90CHL1    C1 9110   5.183   0.834   7.179  0.1164 -0.3471  0.7413
   90CHL1   H1A 9111   5.266   0.907   7.187 -0.4582  0.5709 -1.3937
   90CHL1   H1B 9112   5.215   0.731   7.207  0.5391  0.0132  1.6165
   90CHL1    C2 9113   5.132   0.845   7.031 -0.1885 -0.3340 -0.7384
   90CHL1   H2A 9114   5.217   0.825   6.963 -0.0652  1.2352 -1.0600
   90CHL1   H2B 9115   5.109   0.952   7.013  1.7141 -0.0457 -1.5710
   90CHL1   C20 9116   5.253   0.956   7.976  0.7724 -0.7082  0.4974
   90CHL1   H20 9117   5.181   1.034   8.007  1.5269  0.5031 -0.7740
   90CHL1   C21 9118   5.390   1.016   7.922 -0.0219  0.3504 -0.3462
   90CHL1  H21A 9119   5.451   1.051   8.008  0.7172 -2.3125  0.2284
   90CHL1  H21B 9120   5.369   1.092   7.843  2.9639  1.0715 -0.4902
   90CHL1  H21C 9121   5.445   0.937   7.867 -1.2463 -0.3100 -0.6365
   90CHL1   C22 9122   5.282   0.872   8.107 -0.0125  0.0349  0.6265
   90CHL1  H22A 9123   5.186   0.820   8.126 -1.1793  0.6388 -3.2406
   90CHL1  H22B 9124   5.361   0.797   8.086 -3.1367 -2.7058 -1.8730
   90CHL1   C23 9125   5.316   0.955   8.232  0.1814 -0.1104  0.7246
   90CHL1  H23A 9126   5.402   1.025   8.223  0.4723 -0.3078  1.8542
   90CHL1  H23B 9127   5.230   1.024   8.248 -0.1667 -0.2073 -0.6823
   90CHL1   C24 9128   5.339   0.874   8.360 -0.0284  0.0351 -1.2012
   90CHL1  H24A 9129   5.438   0.825   8.347  0.6138  0.8953  0.2766
   90CHL1  H24B 9130   5.338   0.948   8.443  0.9418 -0.3916 -0.8067
   90CHL1   C25 9131   5.232   0.778   8.405 -0.3193 -0.0673  0.2505
   90CHL1   H25 9132   5.137   0.813   8.359 -0.2218 -0.3432 -0.1564
   90CHL1   C26 9133   5.270   0.636   8.366 -0.3962  0.0884  0.4749
   90CHL1  H26A 9134   5.261   0.628   8.256 -0.2486  2.7023  0.2217
   90CHL1  H26B 9135   5.370   0.609   8.407 -0.8643 -0.8653  0.9909
   90CHL1  H26C 9136   5.198   0.556   8.392  1.2975 -1.0103  1.9334
   90CHL1   C27 9137   5.229   0.772   8.558 -0.7748  0.5341  0.4030
   90CHL1  H27A 9138   5.136   0.737   8.606 -0.8557  1.9227  1.2837
   90CHL1  H27B 9139   5.312   0.712   8.601 -0.4712  2.0170  1.9535
   90CHL1  H27C 9140   5.228   0.877   8.595  2.9488  0.7786  0.0205
   91CHL1    C3 9141   6.511   2.351   7.236  0.3397 -0.0923 -0.3155
   91CHL1    H3 9142   6.462   2.450   7.246  0.6652 -0.0640  1.2745
   91CHL1    O3 9143   6.577   2.343   7.110 -0.6830 -1.0153 -0.4683
   91CHL1   H3' 9144   6.518   2.371   7.040 -1.2179  0.0915  0.3950
   91CHL1    C4 9145   6.614   2.345   7.352  0.1355 -0.0832 -0.9579
   91CHL1   H4A 9146   6.669   2.249   7.341  1.2514  0.3588  0.5396
   91CHL1   H4B 9147   6.684   2.431   7.340  2.2269 -1.3121  1.8649
   91CHL1    C5 9148   6.549   2.353   7.493  0.4716 -0.2847  0.3907
   91CHL1    C6 9149   6.583   2.456   7.570 -0.3129  0.2154 -0.3223
   91CHL1    H6 9150   6.666   2.515   7.529 -1.6674  1.5770 -1.1484
   91CHL1    C7 9151   6.525   2.480   7.707  0.1160  0.7577 -0.3756
   91CHL1   H7A 9152   6.602   2.519   7.777 -2.5336  3.1546  1.2528
   91CHL1   H7B 9153   6.451   2.560   7.688  0.8500  1.3349 -0.8722
   91CHL1    C8 9154   6.440   2.361   7.763  0.1478 -0.3381  0.8680
   91CHL1    H8 9155   6.515   2.286   7.797 -0.0926  0.0868  2.3318
   91CHL1   C14 9156   6.350   2.403   7.880 -0.3518  0.7828  0.0425
   91CHL1   H14 9157   6.277   2.473   7.832  0.1812  1.2786 -0.0471
   91CHL1   C15 9158   6.394   2.496   8.000 -0.1175  0.0375 -0.6820
   91CHL1  H15A 9159   6.488   2.451   8.039  1.3436  2.1447 -1.6896
   91CHL1  H15B 9160   6.419   2.601   7.977  1.7486 -0.4477 -0.9456
   91CHL1   C16 9161   6.296   2.474   8.112  0.1710  0.0638  0.3070
   91CHL1  H16A 9162   6.329   2.429   8.208  1.0519  0.4384  0.1861
   91CHL1  H16B 9163   6.241   2.569   8.132  0.7612  0.8712 -1.8061
   91CHL1   C17 9164   6.184   2.378   8.043  0.5259 -0.3252 -0.0040
   91CHL1   H17 9165   6.111   2.443   7.989 -1.3036 -1.5866  0.8943
   91CHL1   C13 9166   6.263   2.292   7.938 -0.1167  0.6165 -0.1383
   91CHL1   C18 9167   6.344   2.186   8.017  0.3377  1.1858 -0.1053
   91CHL1  H18A 9168   6.412   2.128   7.951  0.7379  1.5414 -0.0074
   91CHL1  H18B 9169   6.409   2.233   8.094  0.3455  0.4965  0.3152
   91CHL1  H18C 9170   6.283   2.109   8.070  1.0514  1.8658  1.7743
   91CHL1   C12 9171   6.179   2.236   7.822 -0.5073  0.4811 -0.8609
   91CHL1  H12A 9172   6.117   2.149   7.852 -2.1500  1.2947 -1.8312
   91CHL1  H12B 9173   6.116   2.313   7.772 -2.2792 -0.6010 -0.3665
   91CHL1   C11 9174   6.270   2.185   7.709 -0.3065 -0.1226 -0.0003
   91CHL1  H11A 9175   6.334   2.102   7.746  0.0069 -0.2089 -0.7288
   91CHL1  H11B 9176   6.217   2.140   7.623  1.5373  0.5012 -1.4925
   91CHL1    C9 9177   6.357   2.294   7.647 -0.6197 -0.6832 -0.4028
   91CHL1    H9 9178   6.288   2.376   7.617 -0.0124  0.0701  0.2644
   91CHL1   C10 9179   6.432   2.254   7.514  0.7999 -0.1696  0.2675
   91CHL1   C19 9180   6.495   2.118   7.536 -0.3124 -0.4791  0.5924
   91CHL1  H19A 9181   6.567   2.096   7.454  0.5835  0.9800  0.9768
   91CHL1  H19B 9182   6.540   2.105   7.637  1.4698 -0.3403 -0.1625
   91CHL1  H19C 9183   6.409   2.048   7.542 -0.3749 -0.2400  3.2720
   91CHL1    C1 9184   6.338   2.256   7.390  0.3936  0.0200 -0.9635
   91CHL1   H1A 9185   6.278   2.163   7.404  0.3092  0.2992  0.6188
   91CHL1   H1B 9186   6.265   2.340   7.393 -0.7607 -0.9985  0.3470
   91CHL1    C2 9187   6.394   2.249   7.252 -0.8086 -0.1485  0.1812
   91CHL1   H2A 9188   6.318   2.269   7.173 -0.0612 -0.8052 -0.7210
   91CHL1   H2B 9189   6.433   2.148   7.226  0.3807  0.4528 -0.4378
   91CHL1   C20 9190   6.095   2.311   8.152  0.4283  0.0997 -0.7510
   91CHL1   H20 9191   6.147   2.220   8.190 -1.0434 -1.6792 -2.9120
   91CHL1   C21 9192   5.968   2.261   8.082  0.0420  0.0715  0.1189
   91CHL1  H21A 9193   5.986   2.167   8.026 -0.0076  0.4634 -0.5648
   91CHL1  H21B 9194   5.930   2.333   8.006 -0.6339 -0.7530 -0.3388
   91CHL1  H21C 9195   5.893   2.226   8.155 -0.4276 -0.2703 -0.5233
   91CHL1   C22 9196   6.069   2.408   8.279 -0.4696  0.6663  0.7087
   91CHL1  H22A 9197   6.162   2.434   8.335  1.4611 -2.6458 -0.8058
   91CHL1  H22B 9198   6.035   2.507   8.243 -0.3102  0.2498 -0.6279
   91CHL1   C23 9199   5.983   2.344   8.390  0.3612  0.3872 -0.0307
   91CHL1  H23A 9200   5.887   2.310   8.347  0.8608  1.3559 -2.0024
   91CHL1  H23B 9201   6.034   2.254   8.430  1.4784  1.0048 -0.0280
   91CHL1   C24 9202   5.943   2.439   8.500  0.0256 -0.1939  0.0547
   91CHL1  H24A 9203   6.039   2.461   8.551 -1.0386 -2.2696  3.1102
   91CHL1  H24B 9204   5.903   2.535   8.463  0.4053 -0.9068 -2.3337
   91CHL1   C25 9205   5.858   2.364   8.601 -0.6554 -0.1955  0.2456
   91CHL1   H25 9206   5.794   2.294   8.543 -2.3003  1.4391  0.0416
   91CHL1   C26 9207   5.955   2.286   8.686  0.6154  0.5321 -0.6087
   91CHL1  H26A 9208   6.022   2.217   8.629 -2.5263 -2.1008 -1.2937
   91CHL1  H26B 9209   6.011   2.351   8.756 -2.4502  1.4027  1.1001
   91CHL1  H26C 9210   5.891   2.211   8.737  0.7916  0.1293 -0.9623
   91CHL1   C27 9211   5.771   2.459   8.684  0.5797  0.7754 -0.8243
   91CHL1  H27A 9212   5.835   2.537   8.731  0.5431  0.2761  0.0642
   91CHL1  H27B 9213   5.695   2.493   8.611 -0.3532  1.5052  0.4604
   91CHL1  H27C 9214   5.717   2.407   8.767 -2.1998  0.7464 -2.6063
   92CHL1    C3 9215   3.204   3.699   6.786 -0.1354  0.3464  0.3874
   92CHL1    H3 9216   3.094   3.687   6.770 -0.6407  2.8981  1.7155
   92CHL1    O3 9217   3.275   3.700   6.660 -0.0877 -0.1447  0.1913
   92CHL1   H3' 9218   3.271   3.620   6.608 -0.8542 -0.1090  0.1982
   92CHL1    C4 9219   3.224   3.841   6.850  0.3527  0.1954 -0.0986
   92CHL1   H4A 9220   3.333   3.864   6.853  0.6820 -1.1126 -1.8838
   92CHL1   H4B 9221   3.170   3.906   6.778  1.6379  1.0448 -0.3304
   92CHL1    C5 9222   3.178   3.851   6.997 -1.1734  0.6942 -0.4778
   92CHL1    C6 9223   3.092   3.954   7.036  0.6780  0.2224  0.3530
   92CHL1    H6 9224   3.059   4.028   6.961  2.1662 -0.4208 -0.9477
   92CHL1    C7 9225   3.046   3.971   7.178 -0.4451 -0.0620 -0.3387
   92CHL1   H7A 9226   3.060   4.075   7.214  1.7554 -0.6883  0.6529
   92CHL1   H7B 9227   2.938   3.941   7.181 -0.2392 -0.9529 -1.4984
   92CHL1    C8 9228   3.127   3.881   7.281  0.5074  0.2304 -0.1039
   92CHL1    H8 9229   3.216   3.943   7.304  0.4129  0.6662 -0.8902
   92CHL1   C14 9230   3.047   3.855   7.412  0.0495 -0.6494  0.0400
   92CHL1   H14 9231   2.960   3.794   7.380 -0.9028  1.8703 -2.3256
   92CHL1   C15 9232   2.978   3.976   7.477  0.1185 -0.3336  0.2861
   92CHL1  H15A 9233   3.050   4.059   7.488 -2.0818  1.6296  0.2350
   92CHL1  H15B 9234   2.890   3.996   7.412 -0.2445  1.5787  1.3511
   92CHL1   C16 9235   2.938   3.925   7.614  0.9152 -0.9648 -0.3748
   92CHL1  H16A 9236   2.978   3.994   7.692  0.7603 -1.5989  0.2657
   92CHL1  H16B 9237   2.828   3.915   7.625  0.9031 -1.4702 -0.9527
   92CHL1   C17 9238   3.001   3.784   7.624 -0.1726 -0.3321 -0.1155
   92CHL1   H17 9239   2.919   3.712   7.606  0.4221 -1.5909  2.0125
   92CHL1   C13 9240   3.118   3.781   7.522 -0.1171  0.1154 -0.0887
   92CHL1   C18 9241   3.242   3.855   7.561  0.5881  0.1862  0.2571
   92CHL1  H18A 9242   3.224   3.963   7.577  3.0657  0.9666 -1.7980
   92CHL1  H18B 9243   3.277   3.812   7.658 -1.3056 -1.2286  0.3541
   92CHL1  H18C 9244   3.318   3.853   7.480 -1.0155  0.0525 -1.2786
   92CHL1   C12 9245   3.153   3.632   7.465  0.4838 -0.1758 -0.1182
   92CHL1  H12A 9246   3.187   3.552   7.534  2.1900  1.3982  0.9090
   92CHL1  H12B 9247   3.052   3.603   7.428  0.7902  1.1707 -2.0726
   92CHL1   C11 9248   3.229   3.643   7.332 -1.2090 -0.0641 -0.7320
   92CHL1  H11A 9249   3.331   3.678   7.356 -2.3929  1.8398  1.7538
   92CHL1  H11B 9250   3.238   3.544   7.281  1.2989  0.0106 -0.4658
   92CHL1    C9 9251   3.163   3.742   7.232 -0.3199  0.4788 -0.3554
   92CHL1    H9 9252   3.064   3.694   7.219  0.9767 -2.0961 -0.9483
   92CHL1   C10 9253   3.223   3.736   7.087 -0.2917  0.1500  0.3036
   92CHL1   C19 9254   3.372   3.754   7.106  0.3850 -0.4088  1.1242
   92CHL1  H19A 9255   3.440   3.741   7.019  0.7799  1.0735  1.1922
   92CHL1  H19B 9256   3.402   3.849   7.155  0.9334 -1.6804  3.3094
   92CHL1  H19C 9257   3.409   3.675   7.175 -0.2625 -1.4138  0.3365
   92CHL1    C1 9258   3.207   3.599   7.019 -0.5728  0.5231 -0.1904
   92CHL1   H1A 9259   3.265   3.529   7.082  0.5011 -0.2656 -2.0229
   92CHL1   H1B 9260   3.099   3.572   7.023 -0.0651 -1.3555  1.2222
   92CHL1    C2 9261   3.262   3.584   6.873  0.1871 -0.1833 -0.3239
   92CHL1   H2A 9262   3.243   3.483   6.832 -1.0764 -1.2332  2.6574
   92CHL1   H2B 9263   3.372   3.590   6.867  0.3129  0.6571  2.1311
   92CHL1   C20 9264   3.029   3.755   7.780 -0.1126  0.3660  0.4772
   92CHL1   H20 9265   3.103   3.832   7.811 -2.3996  2.9529 -0.2669
   92CHL1   C21 9266   3.088   3.611   7.794  0.1021  0.1293  0.0992
   92CHL1  H21A 9267   3.012   3.545   7.745  1.4265 -0.9936 -0.4851
   92CHL1  H21B 9268   3.096   3.565   7.895 -0.4964 -3.1649 -1.2853
   92CHL1  H21C 9269   3.189   3.596   7.750 -0.6368 -1.6737 -1.0646
   92CHL1   C22 9270   2.907   3.768   7.872  0.2565  0.7797 -0.8417
   92CHL1  H22A 9271   2.853   3.864   7.859 -0.5545  0.8894  2.8546
   92CHL1  H22B 9272   2.832   3.687   7.870  0.9127  0.1726 -0.9899
   92CHL1   C23 9273   2.940   3.780   8.018  0.4150  0.2371 -0.2552
   92CHL1  H23A 9274   3.011   3.708   8.063  0.1998  1.1359  1.5588
   92CHL1  H23B 9275   2.985   3.880   8.034  1.2560 -0.1899  0.0259
   92CHL1   C24 9276   2.812   3.756   8.106 -0.6206 -0.3387  0.0743
   92CHL1  H24A 9277   2.734   3.804   8.044  0.4666 -0.5896 -1.5294
   92CHL1  H24B 9278   2.795   3.646   8.111  2.1360 -0.8278 -0.1944
   92CHL1   C25 9279   2.829   3.825   8.244 -0.1514  0.6341 -0.0930
   92CHL1   H25 9280   2.855   3.932   8.230  0.8806  0.2657 -1.0397
   92CHL1   C26 9281   2.694   3.811   8.319  0.2219  0.3035  0.2740
   92CHL1  H26A 9282   2.672   3.705   8.345 -2.5503  1.1795  1.6915
   92CHL1  H26B 9283   2.683   3.875   8.410 -2.0830  0.1383  0.1332
   92CHL1  H26C 9284   2.607   3.840   8.257 -0.3706  1.8241  1.7776
   92CHL1   C27 9285   2.939   3.764   8.331  0.0377  0.6342 -0.7176
   92CHL1  H27A 9286   2.942   3.821   8.427 -1.4153  1.0490 -0.9123
   92CHL1  H27B 9287   2.920   3.656   8.350 -1.6273  0.9450 -0.5158
   92CHL1  H27C 9288   3.030   3.777   8.269 -0.3859  0.4654 -1.3755
   93CHL1    C3 9289   1.042   1.956   6.880  0.1610  0.3679 -1.0123
   93CHL1    H3 9290   1.102   2.048   6.869 -1.5204  1.4018 -1.7484
   93CHL1    O3 9291   1.001   1.927   6.750  0.1560 -0.3941  0.2767
   93CHL1   H3' 9292   0.969   1.838   6.768 -2.0457  0.5729  1.2885
   93CHL1    C4 9293   1.121   1.837   6.938  0.6489  0.0060 -0.3484
   93CHL1   H4A 9294   1.065   1.741   6.930 -2.7660  1.7900  0.9692
   93CHL1   H4B 9295   1.212   1.826   6.875  1.2937 -0.7740  0.7010
   93CHL1    C5 9296   1.156   1.847   7.084  0.3258 -0.0996 -0.1954
   93CHL1    C6 9297   1.282   1.824   7.123 -0.4447  0.0756  0.8609
   93CHL1    H6 9298   1.354   1.795   7.046 -1.4432  1.3860 -0.6045
   93CHL1    C7 9299   1.336   1.844   7.261 -0.6201  0.0802 -0.3765
   93CHL1   H7A 9300   1.411   1.770   7.298 -1.2851 -0.1010  0.6393
   93CHL1   H7B 9301   1.376   1.947   7.263 -1.0958  0.2456  0.9152
   93CHL1    C8 9302   1.217   1.849   7.366  0.4043 -0.3718  0.1972
   93CHL1    H8 9303   1.169   1.749   7.378  1.5862 -1.2617 -2.0352
   93CHL1   C14 9304   1.265   1.894   7.505  0.5102 -1.0506  0.0869
   93CHL1   H14 9305   1.301   1.997   7.488 -0.9567 -0.2434  1.7552
   93CHL1   C15 9306   1.388   1.826   7.566 -0.6075 -0.4755  0.2873
   93CHL1  H15A 9307   1.372   1.718   7.548  0.4491 -1.0105  2.3581
   93CHL1  H15B 9308   1.479   1.864   7.516 -0.8343 -0.1256  0.1332
   93CHL1   C16 9309   1.381   1.867   7.711 -0.7158  0.2142  0.1205
   93CHL1  H16A 9310   1.359   1.775   7.771  1.6540 -1.9676 -2.1938
   93CHL1  H16B 9311   1.475   1.912   7.751 -0.6204  0.1548 -0.0346
   93CHL1   C17 9312   1.254   1.960   7.722 -0.6258 -0.3629 -0.5639
   93CHL1   H17 9313   1.277   2.064   7.691 -1.8861  0.5492  1.4137
   93CHL1   C13 9314   1.158   1.910   7.609  0.0518  0.2345  0.3392
   93CHL1   C18 9315   1.089   1.778   7.645  1.2377  0.8129  0.0768
   93CHL1  H18A 9316   1.053   1.735   7.548 -0.9708 -1.2109  1.7441
   93CHL1  H18B 9317   1.152   1.707   7.703  0.3213  1.3982  1.8046
   93CHL1  H18C 9318   0.998   1.802   7.704  0.7144  0.3829 -0.5443
   93CHL1   C12 9319   1.055   2.016   7.555  0.0919 -1.1593 -0.5166
   93CHL1  H12A 9320   0.972   2.030   7.628 -0.5156  1.1935 -1.6251
   93CHL1  H12B 9321   1.118   2.107   7.555 -1.1430 -0.2795 -1.6512
   93CHL1   C11 9322   0.993   1.978   7.419 -0.4528  0.1279  0.8938
   93CHL1  H11A 9323   0.922   1.897   7.445  1.5103 -1.2695  2.0530
   93CHL1  H11B 9324   0.941   2.068   7.379  1.6090  1.0281  0.1644
   93CHL1    C9 9325   1.106   1.947   7.311  0.4564  0.0987  0.6688
   93CHL1    H9 9326   1.148   2.049   7.299  0.7293  0.2162  2.4636
   93CHL1   C10 9327   1.047   1.894   7.174  0.5000 -0.1837 -0.4349
   93CHL1   C19 9328   0.956   1.762   7.202  0.3946 -0.0866  0.8139
   93CHL1  H19A 9329   0.872   1.781   7.273 -1.8300 -0.2043 -1.6978
   93CHL1  H19B 9330   0.898   1.718   7.118 -0.0708  2.0796 -0.0350
   93CHL1  H19C 9331   1.013   1.670   7.229 -1.2549 -1.1229  0.8624
   93CHL1    C1 9332   0.958   2.009   7.110  0.0811  0.1719  0.3544
   93CHL1   H1A 9333   0.874   2.039   7.175  1.0252 -0.3333  1.8288
   93CHL1   H1B 9334   1.023   2.100   7.102  0.1859  0.0100 -0.7530
   93CHL1    C2 9335   0.920   1.990   6.967  0.1462  0.5376 -0.6346
   93CHL1   H2A 9336   0.874   2.081   6.922  0.4413  0.6980 -0.6093
   93CHL1   H2B 9337   0.846   1.907   6.964 -0.4096  0.9854  0.2474
   93CHL1   C20 9338   1.199   1.979   7.862 -0.4784  0.4262  0.5929
   93CHL1   H20 9339   1.142   1.889   7.893 -1.2694  1.7639  3.1890
   93CHL1   C21 9340   1.095   2.085   7.897  0.3656 -0.8289  0.3853
   93CHL1  H21A 9341   1.084   2.112   8.004 -0.1746  0.2067  0.0783
   93CHL1  H21B 9342   0.995   2.063   7.853  0.2020  1.3699 -0.3949
   93CHL1  H21C 9343   1.121   2.173   7.835 -1.2425 -1.8581 -1.8270
   93CHL1   C22 9344   1.307   1.970   7.982  0.5022 -0.2442 -0.5294
   93CHL1  H22A 9345   1.255   1.958   8.080  1.0413 -2.0371 -0.4571
   93CHL1  H22B 9346   1.367   1.877   7.984 -0.3981 -0.8517 -1.2182
   93CHL1   C23 9347   1.397   2.096   7.984  0.3922 -0.4370  0.1463
   93CHL1  H23A 9348   1.448   2.112   7.886 -0.4651  0.4967 -0.1549
   93CHL1  H23B 9349   1.343   2.192   7.998  3.6389  1.1216  2.6450
   93CHL1   C24 9350   1.518   2.071   8.083 -0.0388  0.8174 -0.1084
   93CHL1  H24A 9351   1.566   1.974   8.059 -3.2421 -0.7557 -0.4635
   93CHL1  H24B 9352   1.582   2.161   8.070  0.3610  0.3527 -1.4387
   93CHL1   C25 9353   1.475   2.066   8.238  0.3159  0.3730  0.2705
   93CHL1   H25 9354   1.389   1.995   8.234 -0.7854  1.7793 -1.8255
   93CHL1   C26 9355   1.591   2.029   8.322 -0.4744  0.2632 -0.2348
   93CHL1  H26A 9356   1.665   2.112   8.326  1.1483 -1.0668 -1.6757
   93CHL1  H26B 9357   1.559   2.013   8.427  3.1051  1.3728  1.1253
   93CHL1  H26C 9358   1.648   1.946   8.275 -0.2054  0.8541 -0.9713
   93CHL1   C27 9359   1.414   2.195   8.293  0.4543 -0.0253 -0.5039
   93CHL1  H27A 9360   1.359   2.166   8.385 -0.3360 -0.0146 -0.9694
   93CHL1  H27B 9361   1.475   2.284   8.317 -1.1065  1.4302 -1.8228
   93CHL1  H27C 9362   1.344   2.228   8.213 -1.3127 -1.6201  0.3351
   94CHL1    C3 9363   3.505   4.796   6.921  0.3283  0.8487 -0.2061
   94CHL1    H3 9364   3.423   4.870   6.909  0.6333  1.2522  0.1989
   94CHL1    O3 9365   3.563   4.763   6.796  0.1301 -0.3791 -0.4766
   94CHL1   H3' 9366   3.610   4.841   6.768  0.1459  0.4845  1.8498
   94CHL1    C4 9367   3.616   4.846   7.018 -0.2914  0.2158 -0.3429
   94CHL1   H4A 9368   3.701   4.775   7.014  1.8145  2.5621  0.9719
   94CHL1   H4B 9369   3.666   4.936   6.975  0.5626 -0.8426 -1.6047
   94CHL1    C5 9370   3.562   4.883   7.157 -0.4266  0.3807  0.0345
   94CHL1    C6 9371   3.561   4.999   7.210 -0.2063 -0.2393  0.0014
   94CHL1    H6 9372   3.607   5.082   7.155 -1.3609 -0.8765 -1.9631
   94CHL1    C7 9373   3.526   5.024   7.357 -0.6541  0.1252  0.2409
   94CHL1   H7A 9374   3.619   5.070   7.397  0.7703 -1.4516 -1.2362
   94CHL1   H7B 9375   3.433   5.085   7.357 -0.7833 -0.0606  0.9024
   94CHL1    C8 9376   3.511   4.894   7.436 -0.3898  0.7699 -0.3400
   94CHL1    H8 9377   3.614   4.859   7.459 -0.0472  1.3552 -0.9600
   94CHL1   C14 9378   3.430   4.918   7.566 -0.4032 -0.1007 -1.1311
   94CHL1   H14 9379   3.331   4.952   7.527 -0.1939  0.3698 -1.2572
   94CHL1   C15 9380   3.474   5.029   7.653  0.3557 -0.1968  0.1228
   94CHL1  H15A 9381   3.585   5.036   7.657  0.5039 -2.2961  0.3841
   94CHL1  H15B 9382   3.432   5.123   7.612 -1.0925 -1.2948 -0.9589
   94CHL1   C16 9383   3.413   4.993   7.794 -0.3271  0.0147 -0.0931
   94CHL1  H16A 9384   3.502   4.972   7.858  0.4292 -1.8487 -1.6879
   94CHL1  H16B 9385   3.365   5.082   7.840 -2.6825 -0.6167 -1.2932
   94CHL1   C17 9386   3.334   4.863   7.779  0.5806  0.3596  0.0624
   94CHL1   H17 9387   3.230   4.892   7.753  0.9644  0.2110 -1.7622
   94CHL1   C13 9388   3.401   4.798   7.657  0.3511  0.1710 -0.3236
   94CHL1   C18 9389   3.542   4.733   7.695 -0.0946  0.5581 -0.0589
   94CHL1  H18A 9390   3.523   4.640   7.752 -0.5579  0.0661 -0.9990
   94CHL1  H18B 9391   3.606   4.710   7.607  0.5677  0.9128  0.3260
   94CHL1  H18C 9392   3.597   4.806   7.758 -0.7282  0.3962  0.6859
   94CHL1   C12 9393   3.323   4.703   7.575 -0.0186 -0.0327 -0.5412
   94CHL1  H12A 9394   3.303   4.605   7.622 -0.6090 -0.3354 -1.4090
   94CHL1  H12B 9395   3.224   4.750   7.555 -0.0842 -0.4825 -1.3130
   94CHL1   C11 9396   3.386   4.661   7.441  0.5427 -0.4183 -0.4323
   94CHL1  H11A 9397   3.478   4.601   7.458  1.3864  0.5647 -1.4016
   94CHL1  H11B 9398   3.318   4.600   7.378 -0.1937  0.8470 -0.8724
   94CHL1    C9 9399   3.430   4.787   7.361  0.5210 -0.0019 -0.1647
   94CHL1    H9 9400   3.337   4.842   7.335 -0.5415 -0.4864  2.4231
   94CHL1   C10 9401   3.510   4.753   7.226  0.2435 -0.1039  0.8438
   94CHL1   C19 9402   3.624   4.652   7.262  0.6533  0.0594 -0.1374
   94CHL1  H19A 9403   3.674   4.618   7.169 -1.5456 -2.7962 -0.3686
   94CHL1  H19B 9404   3.699   4.700   7.327  1.6462  0.6097 -1.6724
   94CHL1  H19C 9405   3.583   4.560   7.311  0.2974  0.6206  0.6284
   94CHL1    C1 9406   3.403   4.688   7.130  0.4099 -0.0558  0.9202
   94CHL1   H1A 9407   3.370   4.592   7.176 -2.1209  0.6491  0.6252
   94CHL1   H1B 9408   3.310   4.748   7.133 -0.6198 -1.6010  0.8585
   94CHL1    C2 9409   3.451   4.669   6.988  0.1368  0.2551 -0.3582
   94CHL1   H2A 9410   3.377   4.627   6.917 -1.5910  2.0182  0.3454
   94CHL1   H2B 9411   3.527   4.588   6.981  0.5446  0.6635 -0.6567
   94CHL1   C20 9412   3.326   4.791   7.916 -0.3671  0.5632  0.5347
   94CHL1   H20 9413   3.426   4.772   7.960 -1.2133 -0.0169  2.2831
   94CHL1   C21 9414   3.261   4.654   7.903  0.4216  0.4425  0.1199
   94CHL1  H21A 9415   3.325   4.579   7.852  1.8321  0.3119  2.0009
   94CHL1  H21B 9416   3.163   4.665   7.854  0.7427 -0.4463 -0.7376
   94CHL1  H21C 9417   3.250   4.619   8.008 -1.6851  3.8777  1.1292
   94CHL1   C22 9418   3.257   4.872   8.029 -0.1134 -0.8191 -0.3562
   94CHL1  H22A 9419   3.271   4.982   8.013 -0.7083 -0.7164 -0.1814
   94CHL1  H22B 9420   3.146   4.865   8.018 -0.3042 -2.1681  2.0866
   94CHL1   C23 9421   3.294   4.837   8.168 -0.1574  0.3002 -0.4014
   94CHL1  H23A 9422   3.215   4.862   8.243  1.7694  2.2174  1.0480
   94CHL1  H23B 9423   3.295   4.726   8.168 -0.3909  0.2962 -1.2061
   94CHL1   C24 9424   3.426   4.880   8.223  0.3920 -0.1743 -0.2971
   94CHL1  H24A 9425   3.502   4.840   8.153 -0.1883 -0.0142 -1.0229
   94CHL1  H24B 9426   3.430   4.991   8.224  2.3799 -0.2336  1.1387
   94CHL1   C25 9427   3.456   4.822   8.367 -0.4943  0.0244 -0.2193
   94CHL1   H25 9428   3.428   4.714   8.372  2.4219 -0.7710 -0.4415
   94CHL1   C26 9429   3.607   4.837   8.392  0.3988  0.3063  0.9083
   94CHL1  H26A 9430   3.642   4.800   8.491  0.0030  1.7999  1.6113
   94CHL1  H26B 9431   3.653   4.787   8.304 -2.0145 -0.1824 -0.0979
   94CHL1  H26C 9432   3.634   4.945   8.383 -0.6642  0.4033 -1.4699
   94CHL1   C27 9433   3.383   4.895   8.474 -0.0164 -0.4044  0.7688
   94CHL1  H27A 9434   3.275   4.871   8.485 -0.1439  0.1136  0.6530
   94CHL1  H27B 9435   3.423   4.865   8.573  2.1987 -1.5321 -0.4458
   94CHL1  H27C 9436   3.388   5.005   8.460 -0.9166 -0.2679  1.4327
   95CHL1    C3 9437   3.652   3.183   6.766  0.5216 -0.1481 -0.7082
   95CHL1    H3 9438   3.759   3.185   6.798 -0.0024  0.4921  1.0362
   95CHL1    O3 9439   3.647   3.158   6.628  0.3434 -0.4949  0.6896
   95CHL1   H3' 9440   3.669   3.064   6.626 -0.8187 -0.7632 -1.8577
   95CHL1    C4 9441   3.569   3.081   6.851  0.5860 -0.0024  0.1371
   95CHL1   H4A 9442   3.461   3.089   6.825  0.5424 -0.3109  0.2145
   95CHL1   H4B 9443   3.606   2.979   6.825  0.8237  0.1615 -0.1755
   95CHL1    C5 9444   3.593   3.106   6.997  0.3171 -0.2967 -0.3096
   95CHL1    C6 9445   3.639   3.009   7.081 -0.1019 -0.2233  0.0012
   95CHL1    H6 9446   3.654   2.907   7.043  0.4667  0.3778 -1.3946
   95CHL1    C7 9447   3.650   3.030   7.231 -0.5987 -0.1587  0.6427
   95CHL1   H7A 9448   3.616   2.948   7.298  0.1834  0.1069  1.3569
   95CHL1   H7B 9449   3.755   3.051   7.258  0.1971 -1.0924 -1.5947
   95CHL1    C8 9450   3.570   3.157   7.283  0.4393  0.4133 -0.6023
   95CHL1    H8 9451   3.464   3.124   7.286  1.3613 -2.6652  0.4246
   95CHL1   C14 9452   3.602   3.188   7.428  0.0290 -0.0155 -0.2199
   95CHL1   H14 9453   3.713   3.191   7.432  0.1572 -3.2799  0.2024
   95CHL1   C15 9454   3.557   3.084   7.529 -0.1419  0.8959 -0.3531
   95CHL1  H15A 9455   3.449   3.058   7.523  0.0509 -0.4771  1.4774
   95CHL1  H15B 9456   3.625   2.996   7.527  1.9713  2.4630  0.3122
   95CHL1   C16 9457   3.583   3.155   7.662  0.0572 -0.9988  0.3083
   95CHL1  H16A 9458   3.495   3.130   7.725 -0.9565  0.6547 -0.4061
   95CHL1  H16B 9459   3.677   3.138   7.719 -1.2727 -0.4053  2.7504
   95CHL1   C17 9460   3.596   3.310   7.625  0.3240 -0.2566  0.0909
   95CHL1   H17 9461   3.706   3.327   7.630  0.2602  0.1562  0.1406
   95CHL1   C13 9462   3.548   3.321   7.481 -0.7286  1.4931 -0.2383
   95CHL1   C18 9463   3.393   3.319   7.474  0.0234 -0.0443 -0.4626
   95CHL1  H18A 9464   3.358   3.285   7.374 -2.1847  0.1386  0.2150
   95CHL1  H18B 9465   3.343   3.252   7.547  1.3213 -0.2295  0.2757
   95CHL1  H18C 9466   3.340   3.415   7.489 -1.7056 -1.3047  1.7528
   95CHL1   C12 9467   3.614   3.429   7.395 -0.4465 -0.1043 -0.5439
   95CHL1  H12A 9468   3.581   3.529   7.431  0.4066  0.5162 -1.4909
   95CHL1  H12B 9469   3.724   3.429   7.406 -0.5062 -1.0182  0.0894
   95CHL1   C11 9470   3.569   3.421   7.244 -0.3268  0.5467  0.1193
   95CHL1  H11A 9471   3.465   3.459   7.236  0.1270  2.0583  1.1087
   95CHL1  H11B 9472   3.632   3.497   7.194  1.9180 -2.0397 -1.1016
   95CHL1    C9 9473   3.596   3.274   7.191  0.0663 -0.4475  0.1734
   95CHL1    H9 9474   3.707   3.277   7.186  0.1116 -2.3838 -0.5982
   95CHL1   C10 9475   3.552   3.248   7.044 -0.1063 -0.9066 -0.4545
   95CHL1   C19 9476   3.397   3.257   7.042 -0.1570  0.3638  0.4396
   95CHL1  H19A 9477   3.361   3.271   6.937 -3.2571 -1.5182  1.1640
   95CHL1  H19B 9478   3.359   3.162   7.087  1.7023 -0.8720 -0.5388
   95CHL1  H19C 9479   3.365   3.352   7.088  1.8815  1.3216 -0.0651
   95CHL1    C1 9480   3.608   3.351   6.947  0.5768 -0.5302  0.4757
   95CHL1   H1A 9481   3.564   3.451   6.965  0.6052 -0.7011  1.4999
   95CHL1   H1B 9482   3.715   3.366   6.973  0.4979 -0.0198  0.5089
   95CHL1    C2 9483   3.598   3.318   6.798  0.3549  0.4894  0.6461
   95CHL1   H2A 9484   3.659   3.390   6.740 -1.0412 -0.6620 -2.3505
   95CHL1   H2B 9485   3.492   3.325   6.764  0.9687 -0.2340 -1.4663
   95CHL1   C20 9486   3.536   3.402   7.735  0.1732 -0.2367 -0.1691
   95CHL1   H20 9487   3.426   3.393   7.749  0.0756  1.6865  0.4366
   95CHL1   C21 9488   3.564   3.544   7.690  0.1468  0.2604 -0.1053
   95CHL1  H21A 9489   3.503   3.581   7.604  1.3030 -1.9917 -1.9462
   95CHL1  H21B 9490   3.671   3.563   7.665  0.5052  2.1908  2.6709
   95CHL1  H21C 9491   3.538   3.616   7.770  0.1504  1.0368 -0.7875
   95CHL1   C22 9492   3.614   3.370   7.863  0.7431  0.3332  0.5075
   95CHL1  H22A 9493   3.583   3.271   7.903 -2.7946  1.4142  0.6131
   95CHL1  H22B 9494   3.723   3.367   7.847  0.7298 -0.8339  0.6059
   95CHL1   C23 9495   3.580   3.464   7.981 -0.3988 -1.0895  1.1587
   95CHL1  H23A 9496   3.624   3.565   7.966 -2.3080 -0.3215  0.5927
   95CHL1  H23B 9497   3.473   3.489   7.989  0.0217  0.1493  3.0671
   95CHL1   C24 9498   3.624   3.409   8.114  0.2388 -0.3063 -0.1220
   95CHL1  H24A 9499   3.545   3.343   8.154 -0.9096  1.7122  1.0016
   95CHL1  H24B 9500   3.722   3.359   8.094  0.1339  0.1948 -2.0137
   95CHL1   C25 9501   3.653   3.510   8.228  0.7601 -0.5353  0.3828
   95CHL1   H25 9502   3.562   3.572   8.239 -1.0589 -2.5542 -2.4749
   95CHL1   C26 9503   3.669   3.445   8.361 -0.3447  0.9073 -0.0020
   95CHL1  H26A 9504   3.772   3.405   8.368 -0.0411  1.3862 -1.5386
   95CHL1  H26B 9505   3.677   3.525   8.438 -2.6353  1.8285 -0.6530
   95CHL1  H26C 9506   3.579   3.383   8.381 -0.4690  0.7393 -1.0509
   95CHL1   C27 9507   3.775   3.601   8.207 -0.0708 -0.1338 -0.5337
   95CHL1  H27A 9508   3.789   3.675   8.289 -0.5729 -0.5686 -0.0468
   95CHL1  H27B 9509   3.865   3.538   8.189  2.2825  2.9997 -0.1292
   95CHL1  H27C 9510   3.754   3.668   8.121 -1.4786  1.0678  0.7068
   96CHL1    C3 9511   3.408   2.602   6.780 -0.4792 -0.0344 -0.2645
   96CHL1    H3 9512   3.303   2.589   6.813 -0.9568  1.6779 -1.0241
   96CHL1    O3 9513   3.402   2.641   6.646  0.2197 -0.0378 -0.1428
   96CHL1   H3' 9514   3.346   2.575   6.605  0.0407  0.7127 -1.1247
   96CHL1    C4 9515   3.453   2.725   6.860  0.1269  0.5112  0.0957
   96CHL1   H4A 9516   3.555   2.751   6.825 -0.3890  1.7501 -0.4895
   96CHL1   H4B 9517   3.388   2.812   6.837  1.1431  0.7329 -2.0568
   96CHL1    C5 9518   3.455   2.686   7.006  0.1077  0.3373  0.1398
   96CHL1    C6 9519   3.385   2.754   7.091 -0.5114  0.4735  0.1392
   96CHL1    H6 9520   3.327   2.840   7.055  0.1166  0.3331 -1.2325
   96CHL1    C7 9521   3.385   2.728   7.239  0.2708  0.3565 -0.3503
   96CHL1   H7A 9522   3.387   2.818   7.305 -1.8327 -0.5041  0.9449
   96CHL1   H7B 9523   3.291   2.674   7.266  0.3501 -0.2257 -1.2474
   96CHL1    C8 9524   3.512   2.649   7.287 -0.1928 -0.0990  0.3427
   96CHL1    H8 9525   3.600   2.713   7.266  1.1347 -1.7563  0.7332
   96CHL1   C14 9526   3.512   2.602   7.435  0.2526 -0.1340  0.1194
   96CHL1   H14 9527   3.420   2.540   7.434 -0.7600  1.3468 -0.1577
   96CHL1   C15 9528   3.472   2.705   7.546  0.3779 -0.2288 -1.3735
   96CHL1  H15A 9529   3.528   2.801   7.545  0.2609 -0.1450 -0.4481
   96CHL1  H15B 9530   3.365   2.730   7.537  0.2709 -0.1212  0.1237
   96CHL1   C16 9531   3.509   2.632   7.673  0.0665 -0.5968 -0.0665
   96CHL1  H16A 9532   3.582   2.680   7.742 -0.3918  0.1643 -0.1001
   96CHL1  H16B 9533   3.421   2.617   7.740  1.6134  2.4295  2.7907
   96CHL1   C17 9534   3.567   2.492   7.630 -0.4136 -0.0422 -0.1252
   96CHL1   H17 9535   3.477   2.428   7.629 -1.6403  1.6016  1.6879
   96CHL1   C13 9536   3.621   2.513   7.486 -0.4650  0.0640 -0.0169
   96CHL1   C18 9537   3.761   2.578   7.499  0.0634  0.3350 -0.0123
   96CHL1  H18A 9538   3.800   2.612   7.400 -0.9787  1.0817 -0.1743
   96CHL1  H18B 9539   3.751   2.667   7.564  3.5772  1.6472 -1.1464
   96CHL1  H18C 9540   3.839   2.507   7.534 -1.8766 -1.9643 -0.2345
   96CHL1   C12 9541   3.623   2.390   7.392 -0.8263  0.1811 -0.6347
   96CHL1  H12A 9542   3.703   2.319   7.423 -0.1038  1.2649  0.0235
   96CHL1  H12B 9543   3.534   2.324   7.391 -0.4396 -0.5079  3.6122
   96CHL1   C11 9544   3.639   2.436   7.242  0.9727 -0.8614  0.5496
   96CHL1  H11A 9545   3.732   2.496   7.234  1.7753 -2.1177  0.2786
   96CHL1  H11B 9546   3.648   2.352   7.171 -1.3033  1.0609 -2.1091
   96CHL1    C9 9547   3.524   2.529   7.194  0.4379  0.1895 -0.0390
   96CHL1    H9 9548   3.432   2.467   7.202  0.3707  0.3663  0.5554
   96CHL1   C10 9549   3.536   2.562   7.048 -0.0281 -0.2656  0.0249
   96CHL1   C19 9550   3.682   2.606   7.009  0.0333 -0.9046 -0.1568
   96CHL1  H19A 9551   3.696   2.629   6.902 -2.1377  1.1063 -0.0677
   96CHL1  H19B 9552   3.721   2.689   7.071  0.7927  0.5697 -2.5599
   96CHL1  H19C 9553   3.757   2.525   7.023  0.5867 -0.2525  0.7056
   96CHL1    C1 9554   3.490   2.448   6.963  0.2989  0.2320  0.6742
   96CHL1   H1A 9555   3.553   2.357   6.970 -0.7825 -0.5353  0.6294
   96CHL1   H1B 9556   3.388   2.423   7.001  0.2689 -0.0750  0.3983
   96CHL1    C2 9557   3.484   2.473   6.810  0.2607  1.0946 -0.1858
   96CHL1   H2A 9558   3.431   2.384   6.768  0.5396 -0.4216  2.5667
   96CHL1   H2B 9559   3.587   2.466   6.769  0.0705 -1.1432 -0.3508
   96CHL1   C20 9560   3.673   2.433   7.732  0.5006 -0.1505 -0.1147
   96CHL1   H20 9561   3.763   2.497   7.738  1.2054 -1.2364  1.0502
   96CHL1   C21 9562   3.712   2.290   7.687  0.6379 -0.8309  0.5091
   96CHL1  H21A 9563   3.768   2.243   7.771  0.9568  0.6092  1.1198
   96CHL1  H21B 9564   3.784   2.289   7.603 -0.9927 -2.7314 -0.9296
   96CHL1  H21C 9565   3.622   2.234   7.654 -0.6435  1.3023  0.2691
   96CHL1   C22 9566   3.618   2.418   7.873  0.3456  0.1959  0.5012
   96CHL1  H22A 9567   3.565   2.511   7.902 -0.4117 -0.9793  2.9891
   96CHL1  H22B 9568   3.547   2.333   7.878  1.8465 -1.3459 -2.8135
   96CHL1   C23 9569   3.736   2.422   7.976 -0.2010  0.0391  0.3332
   96CHL1  H23A 9570   3.802   2.334   7.962 -1.6738 -1.2214  1.0978
   96CHL1  H23B 9571   3.790   2.511   7.937  1.4156 -0.3817  1.5770
   96CHL1   C24 9572   3.687   2.445   8.116 -0.0722  0.1042 -0.5639
   96CHL1  H24A 9573   3.605   2.374   8.137 -0.0592  0.4155  0.5536
   96CHL1  H24B 9574   3.773   2.421   8.182 -1.5511 -0.5099  1.1466
   96CHL1   C25 9575   3.632   2.589   8.151 -0.1795  1.1070 -0.6278
   96CHL1   H25 9576   3.543   2.608   8.087 -1.2334  0.3541  0.6013
   96CHL1   C26 9577   3.575   2.597   8.297 -0.0619  0.3403  1.0177
   96CHL1  H26A 9578   3.503   2.681   8.302  0.8544  1.3323 -1.5155
   96CHL1  H26B 9579   3.520   2.502   8.314 -0.5530  1.0203  3.4092
   96CHL1  H26C 9580   3.655   2.614   8.372  0.3436  0.7424  0.4990
   96CHL1   C27 9581   3.745   2.692   8.135 -0.4372 -0.0192 -1.1659
   96CHL1  H27A 9582   3.798   2.687   8.232 -2.0570 -1.0901 -0.3107
   96CHL1  H27B 9583   3.825   2.678   8.059 -0.1573 -0.0055 -0.8734
   96CHL1  H27C 9584   3.697   2.792   8.123 -2.5430 -1.1489 -2.4806
   97OSM      N 9585   0.826   4.778  11.136  0.2468  1.1289 -0.6416
   97OSM    C15 9586   0.971   4.796  11.159  0.3926 -0.5777  0.0687
   97OSM   H15A 9587   1.004   4.899  11.151 -1.3249 -0.0162  0.0089
   97OSM   H15B 9588   1.024   4.744  11.081 -1.2899 -2.6637  0.2934
   97OSM   H15C 9589   1.016   4.760  11.250 -2.0574  0.4436  1.7211
   97OSM    C14 9590   0.790   4.637  11.152 -0.2522  0.3304  0.1802
   97OSM   H14A 9591   0.683   4.641  11.142 -0.1020 -0.3798 -1.9248
   97OSM   H14B 9592   0.817   4.588  11.245 -3.8745 -1.6117  0.2993
   97OSM   H14C 9593   0.834   4.581  11.070  0.9631  1.1061  0.2858
   97OSM    C13 9594   0.766   4.853  11.251 -0.3727 -0.4274 -0.4474
   97OSM   H13A 9595   0.772   4.813  11.351 -0.1002  1.3203  0.2435
   97OSM   H13B 9596   0.660   4.867  11.232 -0.5834  0.9919  1.6341
   97OSM   H13C 9597   0.810   4.950  11.267 -0.1808 -0.6223  0.1907
   97OSM    C12 9598   0.783   4.833  11.002  0.0448 -0.1841 -0.4555
   97OSM   H12A 9599   0.820   4.770  10.922 -0.7801  1.2409 -2.0106
   97OSM   H12B 9600   0.824   4.932  10.990 -0.7292  0.3184  1.0076
   97OSM    C11 9601   0.629   4.837  10.975  0.3620 -0.4876  0.2722
   97OSM   H11A 9602   0.582   4.737  10.985 -0.2319 -0.1516  0.8421
   97OSM   H11B 9603   0.630   4.853  10.865  0.5166 -2.3576 -0.0179
   97OSM      P 9604   0.411   4.921  11.082 -0.4736 -0.2727  0.7206
   97OSM    O13 9605   0.391   4.803  11.167 -0.3976  0.4840 -0.3764
   97OSM    O14 9606   0.366   5.051  11.129  0.5389 -0.1316 -0.0861
   97OSM    O11 9607   0.346   4.876  10.942 -0.2501  0.1837 -0.4891
   97OSM    O12 9608   0.560   4.934  11.051 -0.5274 -0.3635  0.1160
   97OSM    C1S 9609   0.292   4.972  10.855  0.1616 -0.2696 -0.1770
   97OSM    H1S 9610   0.342   5.070  10.869  0.0448 -0.4545  1.6613
   97OSM    H1T 9611   0.184   4.990  10.874  0.9013  0.8612  3.3434
   97OSM     NF 9612   0.256   5.019  10.609 -0.1669  0.5174  0.0801
   97OSM    HNF 9613   0.167   4.992  10.574 -0.0708  1.3879 -0.8619
   97OSM    C2S 9614   0.324   4.929  10.703 -0.2972 -0.1054  0.4376
   97OSM    H2S 9615   0.435   4.926  10.696 -0.1545  3.1236  0.4963
   97OSM    C3S 9616   0.274   4.778  10.686  0.0176 -1.0323 -0.2698
   97OSM    H3S 9617   0.165   4.784  10.705 -0.2172 -0.0653 -1.7952
   97OSM     O3 9618   0.321   4.683  10.782 -0.1516  0.6093 -0.4223
   97OSM    HO3 9619   0.347   4.740  10.855 -2.0412 -0.0083  0.7517
   97OSM    C4S 9620   0.295   4.719  10.552 -0.1602  0.4631  0.0118
   97OSM    H4S 9621   0.400   4.693  10.535 -0.6157 -0.2400 -1.9049
   97OSM    C5S 9622   0.201   4.702  10.455  0.2534  0.0224  0.3205
   97OSM    H5S 9623   0.095   4.718  10.478  0.4824  3.0987 -0.5148
   97OSM    C6S 9624   0.229   4.636  10.321 -0.1405  0.0732  0.3058
   97OSM    H6S 9625   0.140   4.580  10.287 -2.1949  3.6443 -0.5173
   97OSM    H6T 9626   0.312   4.563  10.327 -1.0972 -1.0515 -0.0899
   97OSM    C7S 9627   0.265   4.738  10.217 -0.9107 -0.4058 -0.1612
   97OSM    H7S 9628   0.347   4.796  10.264 -2.5485  2.5229 -0.7410
   97OSM    H7T 9629   0.179   4.808  10.207 -1.3443 -0.6665  1.5542
   97OSM    C8S 9630   0.317   4.689  10.082  0.9958 -0.0791 -0.2442
   97OSM    H8S 9631   0.369   4.596  10.112  0.0489 -0.9169 -1.1557
   97OSM    H8T 9632   0.382   4.768  10.038 -0.8763  0.4487 -2.1615
   97OSM    C9S 9633   0.208   4.656   9.978 -1.3556  0.3343 -0.0880
   97OSM    H9S 9634   0.147   4.747   9.963 -1.3247  0.4957  0.7087
   97OSM    H9T 9635   0.128   4.594  10.024  0.1290 -3.5938 -2.5316
   97OSM   C10S 9636   0.263   4.597   9.851 -0.2898  0.0710 -0.1608
   97OSM   H10S 9637   0.293   4.494   9.879 -1.0141 -0.2638 -0.6022
   97OSM   H10T 9638   0.355   4.652   9.820 -0.3602 -0.3070 -1.0472
   97OSM   C11S 9639   0.164   4.624   9.738  0.4750  0.1601  0.9219
   97OSM   H11S 9640   0.165   4.735   9.726  2.8628 -0.0484 -1.0872
   97OSM   H11T 9641   0.062   4.606   9.778 -1.0981  5.5837 -0.2001
   97OSM   C12S 9642   0.188   4.555   9.603  0.2703  0.1881 -0.9246
   97OSM   H12S 9643   0.173   4.448   9.627  2.2309  0.2900  0.8969
   97OSM   H12T 9644   0.292   4.554   9.563 -0.6255  0.0494 -3.3494
   97OSM   C13S 9645   0.083   4.624   9.510 -0.0870 -0.0480  0.2697
   97OSM   H13S 9646   0.109   4.731   9.501  0.0788 -0.0279  0.9754
   97OSM   H13T 9647  -0.015   4.616   9.560 -0.2611  1.4318  0.1657
   97OSM   C14S 9648   0.077   4.551   9.378 -0.6246 -0.1530 -0.5282
   97OSM   H14S 9649   0.061   4.444   9.407  0.1230 -0.6875 -2.0577
   97OSM   H14T 9650   0.172   4.559   9.321 -0.8459  3.2639 -0.4724
   97OSM   C15S 9651  -0.037   4.581   9.280 -0.7512  0.3907  0.5618
   97OSM   H15S 9652  -0.039   4.687   9.246  0.8137  1.1472  2.7215
   97OSM   H15T 9653  -0.128   4.556   9.339 -0.1383  1.4059  1.9762
   97OSM   C16S 9654  -0.020   4.485   9.159 -0.0014 -0.7344  0.0153
   97OSM   H16S 9655   0.031   4.391   9.190 -2.1538 -1.3763  1.7405
   97OSM   H16T 9656   0.035   4.546   9.083  0.7979  0.0504  1.1933
   97OSM   C17S 9657  -0.142   4.452   9.078 -0.7811  0.1837  0.1067
   97OSM   H17S 9658  -0.220   4.411   9.146 -0.6422 -2.6415 -1.3461
   97OSM   H17T 9659  -0.115   4.371   9.007 -0.9017 -0.1331  0.4181
   97OSM   C18S 9660  -0.214   4.575   9.026 -0.3962 -0.0868 -0.1080
   97OSM   H18S 9661  -0.152   4.649   8.971 -0.9419 -0.0674 -0.7098
   97OSM   H18T 9662  -0.263   4.630   9.109  1.6362  1.1080  0.3384
   97OSM   H18U 9663  -0.301   4.551   8.961 -1.0198  1.9038 -0.0539
   97OSM    C1F 9664   0.307   5.137  10.576  0.5187  0.1210  0.1793
   97OSM     OF 9665   0.415   5.175  10.621  0.3283 -0.3241 -0.2795
   97OSM    C2F 9666   0.219   5.234  10.489 -0.2983 -0.5656  0.0060
   97OSM    H2F 9667   0.209   5.333  10.537 -2.3443 -0.7222 -0.0279
   97OSM    H2G 9668   0.115   5.195  10.483 -1.1648  1.8470 -1.0023
   97OSM    C3F 9669   0.273   5.250  10.339 -0.3543 -1.0938 -0.5499
   97OSM    H3F 9670   0.379   5.284  10.346 -0.8682  0.2404  0.8223
   97OSM    H3G 9671   0.209   5.327  10.292  0.2517 -1.1422 -1.4709
   97OSM    C4F 9672   0.268   5.124  10.246  0.2799  0.1815  0.1962
   97OSM    H4F 9673   0.161   5.091  10.245  0.8064 -1.5903 -0.9353
   97OSM    H4G 9674   0.330   5.038  10.279 -1.4622 -1.1377  0.1498
   97OSM    C5F 9675   0.331   5.165  10.114 -0.4937 -0.5046  0.2191
   97OSM    H5F 9676   0.439   5.185  10.131 -0.6544  0.5833 -0.0190
   97OSM    H5G 9677   0.296   5.265  10.080  0.8196 -1.0606 -2.9504
   97OSM    C6F 9678   0.306   5.064   9.999 -0.7578 -0.0813  0.0179
   97OSM    H6F 9679   0.202   5.023   9.992 -0.4060 -1.0495  0.3438
   97OSM    H6G 9680   0.376   4.981  10.021 -0.3021 -0.0686 -1.3605
   97OSM    C7F 9681   0.328   5.140   9.868 -0.0251  0.4785  0.3645
   97OSM    H7F 9682   0.433   5.177   9.867  0.4915 -0.9551 -0.0529
   97OSM    H7G 9683   0.260   5.228   9.864  0.5894  0.9326 -0.2193
   97OSM    C8F 9684   0.294   5.060   9.739  0.7499 -0.7947  0.1123
   97OSM    H8F 9685   0.294   5.119   9.645 -0.8172 -0.2848  0.4302
   97OSM    H8G 9686   0.188   5.031   9.755  0.7931 -0.3755  1.2162
   97OSM    C9F 9687   0.378   4.934   9.722 -0.2778 -0.3106  0.0938
   97OSM    H9F 9688   0.381   4.884   9.820 -2.2361  0.3158  0.4973
   97OSM   C10F 9689   0.441   4.885   9.616  0.6040 -0.0096 -0.1016
   97OSM   H10F 9690   0.494   4.789   9.623  1.3625  0.4374  0.3092
   97OSM   C11F 9691   0.445   4.949   9.484 -0.4710  0.2529  0.2723
   97OSM   H11F 9692   0.544   4.915   9.446 -0.7634 -0.2954  0.0005
   97OSM   H11G 9693   0.452   5.059   9.496  1.8795  0.1927 -0.2873
   97OSM   C12F 9694   0.333   4.911   9.387 -0.3579 -0.2186 -0.9356
   97OSM   H12F 9695   0.237   4.924   9.443  0.9359  2.5195  0.7627
   97OSM   H12G 9696   0.343   4.807   9.350 -0.6416 -0.0612 -1.4567
   97OSM   C13F 9697   0.302   5.000   9.265  0.0221 -0.0842  0.7549
   97OSM   H13F 9698   0.407   5.026   9.238  0.5059 -1.9088  0.8060
   97OSM   H13G 9699   0.240   5.087   9.295 -1.7766 -1.3774  0.8251
   97OSM   C14F 9700   0.222   4.945   9.145  0.5166  0.4944 -0.1631
   97OSM   H14F 9701   0.122   4.913   9.182  0.7438  0.8261  0.7448
   97OSM   H14G 9702   0.277   4.855   9.109  2.4524  1.6919 -0.2605
   97OSM   C15F 9703   0.210   5.041   9.032  0.2346 -0.3430 -0.1912
   97OSM   H15F 9704   0.317   5.065   9.020  0.8467 -1.6323  2.3184
   97OSM   H15G 9705   0.146   5.123   9.072  1.2650 -0.1616  1.1076
   97OSM   C16F 9706   0.147   4.986   8.907 -0.8880 -0.7731  0.7988
   97OSM   H16F 9707   0.132   5.079   8.848 -2.1567 -1.5468 -0.0958
   97OSM   H16G 9708   0.050   4.938   8.931 -3.3154  2.2475 -2.5089
   97OSM   C17F 9709   0.243   4.893   8.835 -0.3159 -0.5457  0.4802
   97OSM   H17F 9710   0.207   4.788   8.836  1.2418 -1.1170 -0.7630
   97OSM   H17G 9711   0.343   4.899   8.882  0.2050 -1.7308 -0.4355
   97OSM   C18F 9712   0.255   4.929   8.686  0.3926  0.1175 -0.2171
   97OSM   H18F 9713   0.158   4.933   8.633 -0.0435 -1.4391  0.4384
   97OSM   H18G 9714   0.311   4.848   8.635 -0.3282 -0.9108  0.6141
   97OSM   H18H 9715   0.305   5.026   8.662  2.6860 -1.1445 -0.7192
   98OSM      N 9716   5.864   4.474  10.730 -0.1276  0.0032  0.5439
   98OSM    C15 9717   5.872   4.349  10.810 -0.2457 -0.0718  0.2444
   98OSM   H15A 9718   5.972   4.328  10.845  0.1643  2.7872  0.9189
   98OSM   H15B 9719   5.838   4.262  10.755 -1.5187 -0.2372  1.2588
   98OSM   H15C 9720   5.800   4.358  10.890  0.9880  0.7304  1.2874
   98OSM    C14 9721   5.936   4.458  10.602  0.7924  0.2052  0.0694
   98OSM   H14A 9722   5.898   4.366  10.559 -2.1194  0.8937  1.0733
   98OSM   H14B 9723   6.043   4.455  10.615  1.0067 -0.1602 -1.6727
   98OSM   H14C 9724   5.915   4.544  10.540 -1.3348  1.5553  2.5810
   98OSM    C13 9725   5.721   4.492  10.682  0.1863  0.2281 -0.1516
   98OSM   H13A 9726   5.707   4.569  10.608 -2.5999 -0.0455  0.0444
   98OSM   H13B 9727   5.660   4.507  10.770  0.9087 -0.0560  0.4100
   98OSM   H13C 9728   5.692   4.399  10.635  0.5047  0.6362 -1.1770
   98OSM    C12 9729   5.903   4.604  10.804 -0.3985  0.4065 -0.0997
   98OSM   H12A 9730   5.862   4.599  10.904 -0.1618 -1.3653 -0.0760
   98OSM   H12B 9731   5.849   4.684  10.756 -0.0208  0.9838  0.4432
   98OSM    C11 9732   6.048   4.650  10.798 -0.2998  0.5522  0.0459
   98OSM   H11A 9733   6.061   4.751  10.844  1.1775 -0.5623  2.1637
   98OSM   H11B 9734   6.078   4.658  10.691 -0.1641 -1.0056 -0.0351
   98OSM      P 9735   6.272   4.537  10.839 -0.1803  0.2475 -0.3678
   98OSM    O13 9736   6.354   4.653  10.881 -0.0880  0.5832 -0.6171
   98OSM    O14 9737   6.314   4.414  10.894  0.0981  0.2715 -0.1414
   98OSM    O11 9738   6.273   4.531  10.680  0.4638 -0.1112  0.2061
   98OSM    O12 9739   6.121   4.557  10.878 -0.4279 -0.6913 -0.3240
   98OSM    C1S 9740   6.375   4.597  10.602  0.6199 -0.7732 -0.3009
   98OSM    H1S 9741   6.474   4.590  10.652  0.1538 -0.1747  0.7249
   98OSM    H1T 9742   6.361   4.706  10.589  1.2572 -0.6669 -0.0739
   98OSM     NF 9743   6.468   4.620  10.381  0.0188 -0.3409 -0.4995
   98OSM    HNF 9744   6.416   4.676  10.318  1.4289 -0.5055 -1.8454
   98OSM    C2S 9745   6.386   4.533  10.464  0.4209 -0.4957  0.0880
   98OSM    H2S 9746   6.442   4.438  10.473 -0.0959 -0.8438 -0.3270
   98OSM    C3S 9747   6.256   4.499  10.398 -0.3389  0.5471  0.6401
   98OSM    H3S 9748   6.181   4.580  10.410 -3.1317 -1.2639 -3.3851
   98OSM     O3 9749   6.189   4.388  10.466 -0.3367 -0.4567  0.1889
   98OSM    HO3 9750   6.230   4.379  10.552 -0.4841  0.7538  0.3911
   98OSM    C4S 9751   6.265   4.467  10.252  0.3030  0.3249  0.1177
   98OSM    H4S 9752   6.280   4.562  10.198  1.1335 -0.2154 -0.6098
   98OSM    C5S 9753   6.273   4.351  10.185 -0.5539  0.4463  0.6791
   98OSM    H5S 9754   6.250   4.256  10.236  2.1492 -0.0155  1.1339
   98OSM    C6S 9755   6.296   4.330  10.031  0.0424  0.6247 -0.4851
   98OSM    H6S 9756   6.235   4.253   9.978  0.5137 -1.1072  1.4136
   98OSM    H6T 9757   6.400   4.293  10.026 -1.2212 -3.0550 -1.2463
   98OSM    C7S 9758   6.297   4.458   9.945 -0.3431  0.3828  0.0512
   98OSM    H7S 9759   6.379   4.527   9.977 -1.7120  2.2708 -0.4568
   98OSM    H7T 9760   6.201   4.514   9.952 -0.1370  1.2774 -3.3655
   98OSM    C8S 9761   6.329   4.428   9.803  0.6057  0.2433 -0.5402
   98OSM    H8S 9762   6.253   4.355   9.769  0.1793 -0.6790  2.2377
   98OSM    H8T 9763   6.429   4.378   9.797  0.3581 -0.7592  2.8128
   98OSM    C9S 9764   6.324   4.551   9.719 -0.4873  0.0960  0.2481
   98OSM    H9S 9765   6.385   4.629   9.769  1.6000 -2.1255  1.2402
   98OSM    H9T 9766   6.222   4.594   9.709 -0.5747 -0.3787 -1.0162
   98OSM   C10S 9767   6.363   4.537   9.565 -0.2754  0.1868 -0.0060
   98OSM   H10S 9768   6.474   4.535   9.562 -0.2928 -0.7809 -0.3272
   98OSM   H10T 9769   6.323   4.634   9.529 -0.4970 -0.6368 -2.0251
   98OSM   C11S 9770   6.289   4.427   9.493 -0.1454 -0.3570  1.0596
   98OSM   H11S 9771   6.184   4.461   9.485  0.0819  0.4750  1.5357
   98OSM   H11T 9772   6.304   4.336   9.556  1.2306  1.7770  3.9134
   98OSM   C12S 9773   6.353   4.381   9.358  0.3422  0.0744 -0.4899
   98OSM   H12S 9774   6.443   4.317   9.372 -0.7010 -1.2272  0.3760
   98OSM   H12T 9775   6.388   4.463   9.291  1.3236  0.0933  0.0446
   98OSM   C13S 9776   6.255   4.297   9.280 -0.7359 -0.0083 -0.9922
   98OSM   H13S 9777   6.167   4.363   9.275  0.9013  2.7384  3.1941
   98OSM   H13T 9778   6.223   4.214   9.347  2.4957 -0.4879  0.0836
   98OSM   C14S 9779   6.315   4.251   9.147 -0.4120 -0.5865  0.0459
   98OSM   H14S 9780   6.400   4.183   9.169  2.2629  2.4091 -0.6409
   98OSM   H14T 9781   6.361   4.332   9.086 -0.3405 -0.5993  0.0830
   98OSM   C15S 9782   6.216   4.167   9.057  0.3985  0.1488 -0.5374
   98OSM   H15S 9783   6.140   4.220   8.995  3.0875  2.2434 -2.1886
   98OSM   H15T 9784   6.165   4.099   9.128 -0.5453 -0.9366 -2.2172
   98OSM   C16S 9785   6.293   4.074   8.966 -0.3369 -0.0058  0.3386
   98OSM   H16S 9786   6.222   3.992   8.940 -0.4727  0.2247 -0.0209
   98OSM   H16T 9787   6.382   4.026   9.012  0.3398 -0.9231 -1.8545
   98OSM   C17S 9788   6.346   4.141   8.837 -0.1755  0.6206 -0.1207
   98OSM   H17S 9789   6.397   4.237   8.858 -1.3071  1.4914 -1.2570
   98OSM   H17T 9790   6.260   4.170   8.773 -1.1105  2.5205  1.9287
   98OSM   C18S 9791   6.454   4.071   8.754  0.1781 -0.2244  0.0513
   98OSM   H18S 9792   6.445   4.091   8.645 -0.5948 -0.4723  0.0674
   98OSM   H18T 9793   6.445   3.961   8.760 -3.8138 -0.0642 -1.4528
   98OSM   H18U 9794   6.559   4.097   8.782  0.4320  1.4507 -2.2782
   98OSM    C1F 9795   6.597   4.633  10.370  0.0288  0.2841 -0.7608
   98OSM     OF 9796   6.668   4.552  10.426  0.2972  0.1999 -0.3146
   98OSM    C2F 9797   6.657   4.745  10.285 -0.2896  0.2830 -0.0796
   98OSM    H2F 9798   6.725   4.694  10.213  0.0415  1.0001 -0.2766
   98OSM    H2G 9799   6.717   4.817  10.345  2.2449 -1.3544 -0.5661
   98OSM    C3F 9800   6.549   4.826  10.210  0.4681  0.6007 -0.5366
   98OSM    H3F 9801   6.460   4.847  10.272 -0.6581 -0.1157 -1.8894
   98OSM    H3G 9802   6.523   4.777  10.114 -0.3021  2.0611 -1.0851
   98OSM    C4F 9803   6.598   4.960  10.154 -0.0415 -0.0458  0.1112
   98OSM    H4F 9804   6.612   5.024  10.244 -1.3284 -0.5936  0.7198
   98OSM    H4G 9805   6.515   5.005  10.094  0.4412 -0.5137 -0.9115
   98OSM    C5F 9806   6.723   4.963  10.071  0.6208 -0.5421  0.7575
   98OSM    H5F 9807   6.782   4.871  10.089  3.5046  0.7626 -1.6091
   98OSM    H5G 9808   6.778   5.057  10.089 -0.4658  0.2175  0.1505
   98OSM    C6F 9809   6.704   4.943   9.917  0.6532 -0.6178 -0.9226
   98OSM    H6F 9810   6.801   4.929   9.863  1.4859 -0.9774  0.6488
   98OSM    H6G 9811   6.648   5.033   9.883 -1.2067 -0.7565  1.6840
   98OSM    C7F 9812   6.618   4.828   9.870  0.2734  0.2710  0.1321
   98OSM    H7F 9813   6.510   4.826   9.892  0.3198  0.9509  0.4211
   98OSM    H7G 9814   6.664   4.739   9.919  0.2295  0.0601 -0.2124
   98OSM    C8F 9815   6.632   4.814   9.715  0.3690  0.3230  0.1318
   98OSM    H8F 9816   6.601   4.715   9.677 -0.6969  0.6625  0.1168
   98OSM    H8G 9817   6.739   4.809   9.684  0.1812  0.5677 -0.5490
   98OSM    C9F 9818   6.557   4.936   9.655 -0.2745  0.4272 -0.5366
   98OSM    H9F 9819   6.457   4.957   9.694 -0.6748  1.6537 -2.1474
   98OSM   C10F 9820   6.592   4.997   9.543 -0.4810  0.8014 -0.1506
   98OSM   H10F 9821   6.530   5.081   9.510 -1.5040  0.6322  1.3026
   98OSM   C11F 9822   6.710   4.968   9.457 -0.1091 -0.5476 -0.0776
   98OSM   H11F 9823   6.698   4.873   9.401  1.8425 -1.1304  0.4239
   98OSM   H11G 9824   6.798   4.953   9.523  0.0642 -0.3050 -0.2547
   98OSM   C12F 9825   6.729   5.082   9.360  0.3410  0.2876 -0.0304
   98OSM   H12F 9826   6.795   5.048   9.277 -2.5827  0.7377 -2.6422
   98OSM   H12G 9827   6.774   5.174   9.401 -0.4643  1.3562 -1.4829
   98OSM   C13F 9828   6.605   5.117   9.273 -0.1815  0.0649 -0.3324
   98OSM   H13F 9829   6.634   5.207   9.215 -0.2445 -0.2302 -0.8211
   98OSM   H13G 9830   6.513   5.151   9.326  0.6459  1.4344  0.2538
   98OSM   C14F 9831   6.572   5.011   9.167  1.0738  0.4339 -0.8657
   98OSM   H14F 9832   6.523   4.920   9.210 -0.4272  1.8885  0.5837
   98OSM   H14G 9833   6.671   4.979   9.129  1.2589  0.1585 -0.1579
   98OSM   C15F 9834   6.494   5.048   9.044  0.6091 -1.0226  0.0467
   98OSM   H15F 9835   6.549   5.110   8.970  0.4386  1.4147  1.9239
   98OSM   H15G 9836   6.410   5.104   9.089 -0.3738 -0.9309 -1.8518
   98OSM   C16F 9837   6.438   4.933   8.961  0.7039 -0.1733  0.4461
   98OSM   H16F 9838   6.336   4.941   8.918  1.2933  0.6569 -0.8229
   98OSM   H16G 9839   6.443   4.843   9.026 -3.3728 -0.2146  0.8722
   98OSM   C17F 9840   6.530   4.910   8.835 -0.2974  0.0525 -0.4745
   98OSM   H17F 9841   6.519   4.804   8.804  0.7252  0.0530 -0.8630
   98OSM   H17G 9842   6.636   4.936   8.856 -0.0975 -0.7621 -0.4487
   98OSM   C18F 9843   6.476   4.984   8.712  0.4306 -0.7234  0.0149
   98OSM   H18F 9844   6.465   5.091   8.737  2.7493 -0.0024 -1.8960
   98OSM   H18G 9845   6.372   4.951   8.687  0.2790  0.3468 -0.8196
   98OSM   H18H 9846   6.536   4.980   8.619  0.5752 -1.2297  0.1277
   99OSM      N 9847   1.490   5.210  11.343 -0.0489  0.2839  0.5253
   99OSM    C15 9848   1.539   5.069  11.395  0.0077  0.1503  0.3680
   99OSM   H15A 9849   1.449   5.012  11.412  0.2440 -0.0440  0.9805
   99OSM   H15B 9850   1.591   5.090  11.488  1.5254  3.4808 -1.1378
   99OSM   H15C 9851   1.604   5.016  11.327 -1.1439  0.9154 -1.3543
   99OSM    C14 9852   1.373   5.253  11.433 -0.2503 -0.3150  0.1867
   99OSM   H14A 9853   1.306   5.170  11.445  0.2376 -0.5667  1.2338
   99OSM   H14B 9854   1.319   5.340  11.399 -0.6877 -1.2427 -1.5271
   99OSM   H14C 9855   1.403   5.282  11.533  1.8110 -2.5396  0.2703
   99OSM    C13 9856   1.598   5.313  11.355  0.1437 -0.1861 -0.1055
   99OSM   H13A 9857   1.556   5.411  11.341  0.2262  0.0196  1.0497
   99OSM   H13B 9858   1.676   5.292  11.283  1.3175 -0.1769  1.1421
   99OSM   H13C 9859   1.651   5.319  11.449  0.3191 -1.5084 -0.1013
   99OSM    C12 9860   1.424   5.195  11.205 -0.0425 -0.4858  0.5651
   99OSM   H12A 9861   1.402   5.298  11.184  0.2497 -0.6481 -0.5490
   99OSM   H12B 9862   1.336   5.131  11.211  0.5186 -1.2680  0.5606
   99OSM    C11 9863   1.519   5.146  11.094 -0.0559  0.4331 -0.6678
   99OSM   H11A 9864   1.476   5.143  10.992 -3.4298  0.8517  0.6899
   99OSM   H11B 9865   1.532   5.041  11.128 -3.5752 -0.6538 -2.4554
   99OSM      P 9866   1.788   5.144  11.076  0.1398  0.0449  0.0626
   99OSM    O13 9867   1.881   5.258  11.086  0.3382 -0.6154 -0.3145
   99OSM    O14 9868   1.805   5.036  11.179  0.1245 -0.5156 -0.1632
   99OSM    O11 9869   1.800   5.078  10.928  0.8203  0.3511 -0.2328
   99OSM    O12 9870   1.642   5.212  11.085 -0.4124 -0.8567  0.0402
   99OSM    C1S 9871   1.766   5.154  10.812  0.0081 -0.2375  0.3443
   99OSM    H1S 9872   1.837   5.238  10.794  0.9270 -0.3380  3.3363
   99OSM    H1T 9873   1.664   5.197  10.820 -0.2855 -0.6952 -0.7326
   99OSM     NF 9874   1.723   5.162  10.561  0.5009  0.2083  0.5471
   99OSM    HNF 9875   1.630   5.150  10.525 -0.0431 -1.4513  2.3967
   99OSM    C2S 9876   1.763   5.076  10.678  0.5833 -0.0791 -0.1621
   99OSM    H2S 9877   1.858   5.025  10.654  0.5736 -0.6300  0.9244
   99OSM    C3S 9878   1.666   4.955  10.697  0.3102 -0.5860  0.3319
   99OSM    H3S 9879   1.572   4.983  10.748 -0.1042  1.1050 -1.3013
   99OSM     O3 9880   1.727   4.857  10.775  0.0241  0.4617  0.3403
   99OSM    HO3 9881   1.782   4.912  10.831 -2.0547  1.3725  1.5210
   99OSM    C4S 9882   1.625   4.901  10.569  0.0170  0.8009  0.0771
   99OSM    H4S 9883   1.707   4.912  10.496  0.0515  2.5722  0.3763
   99OSM    C5S 9884   1.512   4.849  10.525  0.1738 -0.3562 -0.0459
   99OSM    H5S 9885   1.422   4.846  10.587  0.0304 -4.4478 -0.3177
   99OSM    C6S 9886   1.483   4.814  10.384  0.0117  0.7614  0.0506
   99OSM    H6S 9887   1.393   4.877  10.364  0.1460  0.8250 -0.3545
   99OSM    H6T 9888   1.453   4.707  10.382  1.1559  0.3843  1.5599
   99OSM    C7S 9889   1.589   4.852  10.274  0.6350 -0.0632 -0.0100
   99OSM    H7S 9890   1.690   4.812  10.295  1.8783  2.8212 -0.1905
   99OSM    H7T 9891   1.598   4.963  10.271  0.5134 -0.0820 -2.2414
   99OSM    C8S 9892   1.543   4.803  10.129 -0.2200 -0.5693 -0.2796
   99OSM    H8S 9893   1.434   4.825  10.123 -0.1623 -0.7932 -2.7088
   99OSM    H8T 9894   1.554   4.694  10.112 -1.7452 -0.9308  0.9211
   99OSM    C9S 9895   1.598   4.883  10.017 -0.3882 -0.2294 -0.1900
   99OSM    H9S 9896   1.708   4.864  10.022 -0.1394  1.3240  0.6615
   99OSM    H9T 9897   1.584   4.993  10.029 -0.1747 -0.0681 -1.3311
   99OSM   C10S 9898   1.548   4.844   9.877 -0.3786 -0.6719  0.0065
   99OSM   H10S 9899   1.577   4.933   9.817 -1.4504  0.7765  1.5790
   99OSM   H10T 9900   1.438   4.848   9.888 -0.4760  0.7040 -1.3636
   99OSM   C11S 9901   1.606   4.726   9.808  0.3093 -0.1639 -0.4450
   99OSM   H11S 9902   1.560   4.631   9.842  1.3246 -0.4932  0.0194
   99OSM   H11T 9903   1.717   4.718   9.818  0.2004 -0.8790  0.2197
   99OSM   C12S 9904   1.582   4.710   9.655  0.0322 -0.4527  0.1595
   99OSM   H12S 9905   1.656   4.634   9.621 -1.0741 -0.4662 -2.3398
   99OSM   H12T 9906   1.483   4.671   9.624  0.4099 -0.3874 -1.1491
   99OSM   C13S 9907   1.620   4.846   9.580  0.4298  0.4822  0.4964
   99OSM   H13S 9908   1.714   4.885   9.625 -0.0500  0.7541  1.2773
   99OSM   H13T 9909   1.537   4.915   9.608  2.2837  2.3002  1.7152
   99OSM   C14S 9910   1.625   4.832   9.427  0.0600 -0.2713 -0.4523
   99OSM   H14S 9911   1.533   4.775   9.403  0.2397  0.0591 -1.9786
   99OSM   H14T 9912   1.715   4.769   9.408 -1.7298 -2.3146 -2.4748
   99OSM   C15S 9913   1.617   4.964   9.350  0.4252 -0.1646  0.2935
   99OSM   H15S 9914   1.611   4.943   9.241 -0.0730  2.3514 -0.1949
   99OSM   H15T 9915   1.702   5.032   9.372  0.4300  0.0318 -0.3465
   99OSM   C16S 9916   1.475   5.034   9.367 -1.0235  0.5844 -0.1181
   99OSM   H16S 9917   1.472   5.050   9.477 -0.4155 -1.7090  0.2584
   99OSM   H16T 9918   1.389   4.969   9.340 -0.6636  0.1852 -0.3069
   99OSM   C17S 9919   1.461   5.170   9.299 -0.3845 -0.1648 -0.5391
   99OSM   H17S 9920   1.499   5.148   9.197 -1.5129  1.6716 -1.3857
   99OSM   H17T 9921   1.532   5.238   9.351  0.6587 -0.4101 -1.6043
   99OSM   C18S 9922   1.312   5.221   9.294 -0.0891 -0.6456 -0.1292
   99OSM   H18S 9923   1.318   5.322   9.247  2.3505 -0.9971 -0.6341
   99OSM   H18T 9924   1.260   5.232   9.391  1.1397  0.4315  0.4301
   99OSM   H18U 9925   1.258   5.152   9.226  2.6007 -2.4061 -0.5608
   99OSM    C1F 9926   1.808   5.239  10.503 -0.2573  0.0957  0.0206
   99OSM     OF 9927   1.926   5.229  10.532  0.8468 -0.0253  0.6050
   99OSM    C2F 9928   1.756   5.316  10.389  0.0959  0.2372 -0.6347
   99OSM    H2F 9929   1.787   5.421  10.404 -0.5625  0.2278  0.9674
   99OSM    H2G 9930   1.647   5.307  10.374  0.3520  0.5830 -2.8088
   99OSM    C3F 9931   1.829   5.265  10.261  0.2816  0.7373  0.0562
   99OSM    H3F 9932   1.939   5.276  10.269  0.7099  0.7003 -4.5494
   99OSM    H3G 9933   1.802   5.159  10.241 -1.3981  0.3287  3.9608
   99OSM    C4F 9934   1.788   5.351  10.136  0.0483  0.0210 -0.4146
   99OSM    H4F 9935   1.824   5.453  10.164  2.3338 -0.5910 -0.9940
   99OSM    H4G 9936   1.678   5.351  10.122 -0.1329  2.1494  0.8076
   99OSM    C5F 9937   1.858   5.312  10.000  0.3811 -0.4474 -0.1236
   99OSM    H5F 9938   1.784   5.241   9.958 -0.9488  0.2484  1.0158
   99OSM    H5G 9939   1.950   5.259  10.033 -0.2672 -1.8780 -0.5819
   99OSM    C6F 9940   1.885   5.443   9.906  0.1484  0.2057  0.3252
   99OSM    H6F 9941   1.988   5.479   9.928  0.2529 -0.4833  1.0043
   99OSM    H6G 9942   1.804   5.517   9.927  0.5459  0.3086  1.5723
   99OSM    C7F 9943   1.868   5.402   9.759 -0.3366  0.0877 -1.3271
   99OSM    H7F 9944   1.872   5.486   9.686 -2.6770 -0.2662 -1.8901
   99OSM    H7G 9945   1.766   5.359   9.753 -0.1055 -0.4067 -1.7366
   99OSM    C8F 9946   1.979   5.296   9.715  0.2119  0.0861 -0.6354
   99OSM    H8F 9947   1.995   5.209   9.782  2.8637  3.1265  2.8801
   99OSM    H8G 9948   2.079   5.343   9.727  0.0707  0.5236 -1.1663
   99OSM    C9F 9949   1.953   5.257   9.567  0.4494  0.3575  0.3317
   99OSM    H9F 9950   1.867   5.190   9.553  1.1888 -0.0150 -2.9262
   99OSM   C10F 9951   2.032   5.271   9.462  0.5039 -0.6050  0.0243
   99OSM   H10F 9952   2.003   5.226   9.366 -0.0501 -2.9968  1.2764
   99OSM   C11F 9953   2.158   5.348   9.466 -0.1189  0.1261  0.0064
   99OSM   H11F 9954   2.142   5.427   9.543 -2.2184  0.9814 -1.2687
   99OSM   H11G 9955   2.165   5.390   9.364 -0.4541 -1.0185 -0.4974
   99OSM   C12F 9956   2.275   5.250   9.508 -0.4995 -1.4220  0.2719
   99OSM   H12F 9957   2.291   5.183   9.421  0.6873 -1.2636  0.3640
   99OSM   H12G 9958   2.247   5.200   9.604 -0.4109 -1.1303  0.4506
   99OSM   C13F 9959   2.415   5.305   9.532 -0.0425  0.4545  0.2762
   99OSM   H13F 9960   2.441   5.336   9.429 -0.3402  1.1481  0.4112
   99OSM   H13G 9961   2.484   5.224   9.564  1.8679  1.8675 -0.1682
   99OSM   C14F 9962   2.404   5.409   9.641 -0.0161  0.4256  0.3677
   99OSM   H14F 9963   2.334   5.492   9.621 -0.5320 -0.3580 -1.1215
   99OSM   H14G 9964   2.503   5.459   9.643 -0.7202  1.9514 -1.5444
   99OSM   C15F 9965   2.380   5.346   9.779 -0.2656 -0.5842 -0.3524
   99OSM   H15F 9966   2.463   5.279   9.811  0.5416 -0.8088 -2.8425
   99OSM   H15G 9967   2.284   5.291   9.775 -1.1354  0.8431  0.3743
   99OSM   C16F 9968   2.372   5.453   9.890  0.0491  0.3836  0.5243
   99OSM   H16F 9969   2.274   5.503   9.878 -0.3304 -0.8625 -1.7517
   99OSM   H16G 9970   2.463   5.516   9.879  2.4529 -2.7249  1.7693
   99OSM   C17F 9971   2.380   5.404  10.033  0.1008 -0.6604 -0.0773
   99OSM   H17F 9972   2.402   5.495  10.093 -0.3346 -0.6026  0.0029
   99OSM   H17G 9973   2.466   5.335  10.046  0.8332  0.2165 -0.2209
   99OSM   C18F 9974   2.255   5.334  10.076  0.6339 -0.0541 -0.0234
   99OSM   H18F 9975   2.232   5.244  10.015 -2.9399  0.3681  0.6163
   99OSM   H18G 9976   2.163   5.394  10.063 -0.4704 -1.5653  0.5797
   99OSM   H18H 9977   2.275   5.299  10.180  0.9196 -1.0864 -0.4163
  100OSM      N 9978   3.814   5.463  11.047 -0.3996 -0.1672 -0.1758
  100OSM    C15 9979   3.731   5.568  11.115 -0.2863  0.3896  0.9480
  100OSM   H15A 9980   3.671   5.617  11.039  0.5632  2.7380  1.7585
  100OSM   H15B 9981   3.789   5.647  11.158 -0.8158  1.7504 -0.7786
  100OSM   H15C 9982   3.668   5.520  11.188  0.1362 -0.5410  0.7183
  100OSM    C14 9983   3.872   5.528  10.927  0.1149 -0.6220  0.4628
  100OSM   H14A 9984   3.940   5.606  10.959 -1.3490  1.4380 -1.3022
  100OSM   H14B 9985   3.795   5.576  10.869  1.8037  0.7720 -0.6434
  100OSM   H14C 9986   3.924   5.452  10.870  2.0411  0.8387  0.2454
  100OSM    C13 9987   3.925   5.419  11.144  0.2824  0.6097 -1.2004
  100OSM   H13A 9988   4.000   5.353  11.102 -0.4229  1.4634 -3.8958
  100OSM   H13B 9989   3.891   5.380  11.239  1.6936  0.3936 -0.7678
  100OSM   H13C 9990   3.999   5.490  11.179 -1.2086  2.0615 -0.9708
  100OSM    C12 9991   3.733   5.348  10.997  0.5285 -0.0840 -0.9196
  100OSM   H12A 9992   3.673   5.387  10.916 -0.6134 -1.3782 -0.7055
  100OSM   H12B 9993   3.657   5.331  11.072 -1.5460 -1.8195 -3.2916
  100OSM    C11 9994   3.803   5.209  10.964  0.9542  0.1487 -0.3122
  100OSM   H11A 9995   3.719   5.143  10.936  1.9349 -1.6021  0.7934
  100OSM   H11B 9996   3.850   5.164  11.054  0.0635 -3.9316 -1.7958
  100OSM      P 9997   4.053   5.187  10.879 -0.3166 -0.2176  0.2639
  100OSM    O13 9998   4.120   5.315  10.922 -0.5885  0.3608  0.0504
  100OSM    O14 9999   4.062   5.076  10.978 -0.6200 -0.4151 -0.1085
  100OSM    O1110000   4.118   5.140  10.747 -0.7178 -0.4213  0.0949
  100OSM    O1210001   3.900   5.213  10.857  0.7483 -0.4370 -0.2797
  100OSM    C1S10002   4.037   5.081  10.644 -0.0890 -0.0297  0.4920
  100OSM    H1S10003   3.954   5.022  10.689  0.5943 -0.6949  0.8831
  100OSM    H1T10004   4.082   4.999  10.584 -1.4439 -0.1518 -0.3815
  100OSM     NF10005   3.898   5.113  10.442 -1.0315 -0.5363 -0.1242
  100OSM    HNF10006   3.931   5.100  10.349 -1.0575  0.6523 -0.3011
  100OSM    C2S10007   3.981   5.181  10.534 -0.6489 -0.4343 -0.3023
  100OSM    H2S10008   3.919   5.254  10.590  0.6303 -0.5165  1.2552
  100OSM    C3S10009   4.094   5.259  10.463  0.4972 -0.1798  0.1273
  100OSM    H3S10010   4.174   5.195  10.421  0.7495  0.5844 -0.5748
  100OSM     O310011   4.174   5.332  10.554 -0.0973 -0.6208  0.2325
  100OSM    HO310012   4.139   5.301  10.638 -0.5736 -0.3876  0.1211
  100OSM    C4S10013   4.033   5.345  10.359  0.4818  0.2553 -0.7880
  100OSM    H4S10014   4.041   5.305  10.257 -0.2551  2.2302 -1.6459
  100OSM    C5S10015   3.974   5.466  10.373 -0.0005 -0.0518 -0.1982
  100OSM    H5S10016   3.970   5.523  10.467 -0.9874 -0.4061 -0.0177
  100OSM    C6S10017   3.914   5.546  10.261 -0.1706 -0.2980  0.0462
  100OSM    H6S10018   3.941   5.653  10.278  1.3443 -0.5774 -0.5520
  100OSM    H6T10019   3.803   5.544  10.268 -0.1734  0.2585  0.2151
  100OSM    C7S10020   3.957   5.505  10.118 -1.0601  0.0056 -0.1059
  100OSM    H7S10021   3.932   5.397  10.108  0.6523 -0.2372 -1.9109
  100OSM    H7T10022   4.065   5.514  10.096 -0.6042 -0.5991  1.8052
  100OSM    C8S10023   3.871   5.592  10.025 -0.3740 -0.1574  0.1486
  100OSM    H8S10024   3.922   5.690  10.010  2.2540 -1.2933  1.2367
  100OSM    H8T10025   3.769   5.603  10.065 -0.8299  1.7935 -1.4253
  100OSM    C9S10026   3.872   5.534   9.877 -0.0414  0.0351 -0.7480
  100OSM    H9S10027   3.805   5.446   9.889 -0.9750  1.1057  2.5719
  100OSM    H9T10028   3.977   5.521   9.846  0.3895  0.2744  0.5923
  100OSM   C10S10029   3.794   5.636   9.791  0.1172  0.5176 -0.1461
  100OSM   H10S10030   3.860   5.720   9.759 -0.6412  0.9173 -0.6863
  100OSM   H10T10031   3.717   5.673   9.861 -0.0975 -0.4655  0.1410
  100OSM   C11S10032   3.726   5.587   9.661 -0.0809  0.3077 -1.0854
  100OSM   H11S10033   3.699   5.686   9.618  0.3668  1.4160  1.0877
  100OSM   H11T10034   3.634   5.540   9.702  0.4019  0.7736  0.5928
  100OSM   C12S10035   3.832   5.513   9.574 -0.5008 -0.0432  0.2751
  100OSM   H12S10036   3.849   5.418   9.629  0.9053 -0.6431 -1.1806
  100OSM   H12T10037   3.930   5.561   9.591 -0.2459  0.2653 -1.8820
  100OSM   C13S10038   3.805   5.477   9.427  0.5503 -0.2425  0.8114
  100OSM   H13S10039   3.711   5.421   9.410  0.4866 -0.1198  0.7625
  100OSM   H13T10040   3.890   5.411   9.401 -0.9216 -1.6764 -0.4443
  100OSM   C14S10041   3.814   5.611   9.333 -0.3369  0.2986 -0.4681
  100OSM   H14S10042   3.894   5.673   9.378 -0.6490 -0.1303  0.6984
  100OSM   H14T10043   3.713   5.656   9.332 -0.0409  0.9634 -0.5071
  100OSM   C15S10044   3.835   5.586   9.189 -0.1425  0.0563 -0.7233
  100OSM   H15S10045   3.922   5.517   9.184 -0.1335 -0.1828  1.8023
  100OSM   H15T10046   3.862   5.686   9.150  0.8086 -0.1207 -0.5389
  100OSM   C16S10047   3.713   5.525   9.115  0.3816 -0.2893 -0.4984
  100OSM   H16S10048   3.622   5.584   9.137  0.0354 -0.8154 -0.5175
  100OSM   H16T10049   3.706   5.425   9.163 -0.7399  0.3789  0.7512
  100OSM   C17S10050   3.743   5.505   8.966 -0.1061 -0.0972  0.2573
  100OSM   H17S10051   3.761   5.608   8.927 -0.5091 -0.6009 -1.3208
  100OSM   H17T10052   3.655   5.451   8.925 -0.2126  0.9670 -0.9400
  100OSM   C18S10053   3.867   5.420   8.949 -0.7421  0.9216 -0.3553
  100OSM   H18S10054   3.879   5.397   8.841  1.1289  0.9927 -0.1750
  100OSM   H18T10055   3.846   5.329   9.009 -1.0216  0.0849 -1.6840
  100OSM   H18U10056   3.959   5.471   8.983  0.6496  0.3323 -3.0943
  100OSM    C1F10057   3.779   5.066  10.483 -0.6056  0.7478 -0.2775
  100OSM     OF10058   3.756   5.061  10.602  0.7144  0.6819  0.2402
  100OSM    C2F10059   3.673   5.023  10.382  0.1026  0.8342 -0.8278
  100OSM    H2F10060   3.612   4.944  10.432  1.3440  0.4049  0.0368
  100OSM    H2G10061   3.726   4.971  10.300 -0.1531  0.1386 -0.5558
  100OSM    C3F10062   3.576   5.132  10.326  0.1215  0.4035 -0.7290
  100OSM    H3F10063   3.570   5.207  10.409 -1.3658  0.4723 -0.8773
  100OSM    H3G10064   3.481   5.076  10.316 -0.4835  1.1531  0.5708
  100OSM    C4F10065   3.620   5.192  10.196 -0.5358 -0.1177 -0.1999
  100OSM    H4F10066   3.722   5.233  10.209 -0.7233  0.3656 -0.2200
  100OSM    H4G10067   3.557   5.283  10.186  0.1313  0.3044 -0.5845
  100OSM    C5F10068   3.609   5.108  10.071  1.0075  0.8598  0.4983
  100OSM    H5F10069   3.505   5.070  10.062  0.0784  3.1395  0.9958
  100OSM    H5G10070   3.671   5.017  10.074  1.0494  0.7856 -1.7996
  100OSM    C6F10071   3.638   5.188   9.941 -0.1163 -0.0444  0.2848
  100OSM    H6F10072   3.745   5.217   9.931  0.4817 -3.1330 -3.1661
  100OSM    H6G10073   3.568   5.274   9.933 -1.0489 -0.7184  1.0646
  100OSM    C7F10074   3.618   5.092   9.822 -0.5068  0.4132  0.7758
  100OSM    H7F10075   3.518   5.047   9.838 -0.6869  0.1411 -1.0378
  100OSM    H7G10076   3.689   5.007   9.832  0.3099  0.9006 -0.6356
  100OSM    C8F10077   3.626   5.169   9.688  0.2310 -0.5521  0.2692
  100OSM    H8F10078   3.730   5.209   9.688  0.0904 -0.1739 -0.3744
  100OSM    H8G10079   3.563   5.257   9.709  1.1800  0.2100 -0.0594
  100OSM    C9F10080   3.571   5.087   9.572  0.1574  0.5662  0.2463
  100OSM    H9F10081   3.475   5.034   9.580  1.8275 -2.5195  0.7328
  100OSM   C10F10082   3.643   5.055   9.458 -0.9662 -0.3822 -0.2307
  100OSM   H10F10083   3.608   4.998   9.371 -0.3743 -2.6114  0.9418
  100OSM   C11F10084   3.788   5.097   9.436  0.5660  0.6672  0.0988
  100OSM   H11F10085   3.860   5.021   9.475  0.7009  1.0495  0.5963
  100OSM   H11G10086   3.817   5.192   9.486  1.0821 -0.3102  1.7207
  100OSM   C12F10087   3.803   5.133   9.286  0.3715  0.3700 -0.2877
  100OSM   H12F10088   3.908   5.171   9.276  0.6547 -1.1665 -3.5425
  100OSM   H12G10089   3.731   5.208   9.248 -0.3507 -0.6794 -0.9866
  100OSM   C13F10090   3.796   5.007   9.192  0.2862 -0.3109 -0.0689
  100OSM   H13F10091   3.791   4.912   9.249 -1.1873 -1.1079 -1.4811
  100OSM   H13G10092   3.891   5.013   9.134 -0.8393 -1.2712 -2.0732
  100OSM   C14F10093   3.662   5.009   9.107  0.3941  0.2048  0.4294
  100OSM   H14F10094   3.583   5.076   9.146 -2.2059 -2.1570 -0.5820
  100OSM   H14G10095   3.607   4.913   9.115  0.2340  0.1217 -1.4763
  100OSM   C15F10096   3.674   5.038   8.958 -0.0955 -0.5528 -0.4761
  100OSM   H15F10097   3.718   5.136   8.929 -1.1059 -0.4354 -1.6523
  100OSM   H15G10098   3.576   5.040   8.905  0.6715  0.2656 -1.8864
  100OSM   C16F10099   3.762   4.931   8.889  0.0066 -0.1470 -0.6013
  100OSM   H16F10100   3.861   4.938   8.939  0.0787 -1.6033 -0.5204
  100OSM   H16G10101   3.774   4.958   8.782  0.5853  1.6477 -0.0972
  100OSM   C17F10102   3.707   4.788   8.902  0.1783  0.2659  0.1639
  100OSM   H17F10103   3.619   4.768   8.836 -0.9075  1.4659  1.2222
  100OSM   H17G10104   3.672   4.766   9.006  0.0682  0.3614  0.1462
  100OSM   C18F10105   3.809   4.681   8.876 -0.0445  0.3377  0.3828
  100OSM   H18F10106   3.894   4.678   8.948  2.0642 -1.0284 -2.0600
  100OSM   H18G10107   3.859   4.699   8.778 -0.7873  0.3411 -0.0001
  100OSM   H18H10108   3.763   4.580   8.873 -1.3085  0.8863  0.9278
  101OSM      N10109   0.028   5.667  11.164 -0.2994 -0.5555 -0.9220
  101OSM    C1510110   0.050   5.523  11.145 -0.5817  0.1188 -0.6218
  101OSM   H15A10111   0.142   5.501  11.195 -0.3513 -0.8560 -1.4316
  101OSM   H15B10112   0.061   5.499  11.040  1.1002  0.0908 -0.4473
  101OSM   H15C10113  -0.025   5.471  11.203  0.0361  0.8070  0.7918
  101OSM    C1410114  -0.111   5.714  11.107  0.9007 -0.0720  0.2138
  101OSM   H14A10115  -0.121   5.820  11.128 -1.3278 -0.1504 -0.2675
  101OSM   H14B10116  -0.200   5.665  11.145  0.1684  1.8662  1.0804
  101OSM   H14C10117  -0.101   5.718  10.999  1.7673  2.8312  0.3460
  101OSM    C1310118   0.016   5.692  11.312  0.4950 -0.0298 -0.4595
  101OSM   H13A10119  -0.049   5.624  11.365  2.3684 -1.5556 -0.0522
  101OSM   H13B10120  -0.027   5.787  11.338 -3.5166 -2.4027  2.1072
  101OSM   H13C10121   0.111   5.687  11.362  1.3782  0.0746 -2.1094
  101OSM    C1210122   0.142   5.763  11.125  0.3911 -0.1010  0.2473
  101OSM   H12A10123   0.236   5.727  11.165  1.1568  3.3088  1.7156
  101OSM   H12B10124   0.109   5.850  11.179 -1.5306 -1.2346  0.9291
  101OSM    C1110125   0.159   5.793  10.971  0.0101  0.4108  0.0139
  101OSM   H11A10126   0.235   5.874  10.972  2.2603 -1.6138  0.1593
  101OSM   H11B10127   0.064   5.819  10.921  1.6566  1.0033 -2.9302
  101OSM      P10128   0.206   5.594  10.797  0.4111 -0.1984  0.4160
  101OSM    O1310129   0.338   5.558  10.746 -0.1399 -0.2094 -0.2432
  101OSM    O1410130   0.112   5.487  10.829  0.3442 -0.3166 -0.3493
  101OSM    O1110131   0.141   5.696  10.696  0.4405 -0.2252  0.5870
  101OSM    O1210132   0.226   5.686  10.919  0.4173  0.0609 -0.4404
  101OSM    C1S10133   0.203   5.822  10.665 -0.3344  0.5676 -1.1204
  101OSM    H1S10134   0.261   5.862  10.750  0.7130 -2.2886 -0.4141
  101OSM    H1T10135   0.118   5.892  10.656 -0.8137  0.3380  1.3709
  101OSM     NF10136   0.341   5.940  10.505  0.2785  0.1179 -0.9388
  101OSM    HNF10137   0.307   5.981  10.420 -0.0906  0.2336 -0.7411
  101OSM    C2S10138   0.283   5.807  10.536 -0.7607 -0.6178  0.8272
  101OSM    H2S10139   0.368   5.736  10.541 -0.5858 -0.5215 -0.6977
  101OSM    C3S10140   0.194   5.763  10.416 -0.2601 -0.0988 -0.2589
  101OSM    H3S10141   0.114   5.837  10.395 -3.8966 -3.7684  0.0109
  101OSM     O310142   0.130   5.638  10.440  0.6250  0.2998 -0.0782
  101OSM    HO310143   0.138   5.630  10.535  0.0279  2.8311  0.2240
  101OSM    C4S10144   0.267   5.731  10.290 -0.2350 -0.7322  0.3558
  101OSM    H4S10145   0.302   5.627  10.280 -0.4825 -0.9340  1.5536
  101OSM    C5S10146   0.262   5.802  10.178 -0.2235 -0.1374 -0.3889
  101OSM    H5S10147   0.200   5.892  10.171  0.3573  0.3893  1.0085
  101OSM    C6S10148   0.340   5.758  10.054 -0.1718  0.4700 -0.3605
  101OSM    H6S10149   0.391   5.660  10.065 -1.1575  0.0896  0.8761
  101OSM    H6T10150   0.411   5.837  10.020 -0.3293 -0.6828 -3.5925
  101OSM    C7S10151   0.234   5.749   9.948  0.5728 -0.3256  0.0374
  101OSM    H7S10152   0.171   5.841   9.947 -1.0147 -1.3622  1.8307
  101OSM    H7T10153   0.161   5.666   9.962  1.1947 -1.1514 -1.4844
  101OSM    C8S10154   0.298   5.713   9.811 -0.3194  0.4447  0.9553
  101OSM    H8S10155   0.332   5.607   9.820 -2.1606 -0.1985  0.5180
  101OSM    H8T10156   0.371   5.795   9.791  2.3861 -2.0613  0.1848
  101OSM    C9S10157   0.195   5.704   9.693 -0.2402 -0.1030 -1.1208
  101OSM    H9S10158   0.148   5.804   9.677 -4.8515 -1.9219  0.3258
  101OSM    H9T10159   0.116   5.628   9.707  0.1128 -0.1479  0.7607
  101OSM   C10S10160   0.255   5.664   9.559 -0.2374 -0.9177 -0.5030
  101OSM   H10S10161   0.273   5.555   9.564  0.4799 -0.7846 -0.0663
  101OSM   H10T10162   0.357   5.703   9.534 -0.0008 -0.6385  0.8850
  101OSM   C11S10163   0.165   5.674   9.437 -0.8412 -0.0951  0.2027
  101OSM   H11S10164   0.233   5.669   9.350 -1.2531 -1.1233 -0.0765
  101OSM   H11T10165   0.108   5.768   9.421 -0.1629 -0.2083 -3.1355
  101OSM   C12S10166   0.076   5.553   9.406 -0.4983 -0.5965  0.1157
  101OSM   H12S10167  -0.010   5.540   9.475 -2.2784  1.8778 -1.5814
  101OSM   H12T10168   0.134   5.458   9.397  0.2043  0.0281 -2.1207
  101OSM   C13S10169   0.021   5.575   9.265 -0.2327 -0.2946  1.0766
  101OSM   H13S10170   0.102   5.609   9.197 -0.8392  0.7917  0.8782
  101OSM   H13T10171  -0.063   5.648   9.266  0.0905  0.0750  1.8832
  101OSM   C14S10172  -0.037   5.445   9.198 -0.1483 -0.6350  0.1750
  101OSM   H14S10173  -0.115   5.412   9.271  0.2561 -1.9190  0.0455
  101OSM   H14T10174   0.042   5.368   9.196  0.3933 -0.0508 -1.6477
  101OSM   C15S10175  -0.093   5.468   9.058 -0.0104  0.4696 -0.3179
  101OSM   H15S10176  -0.164   5.553   9.053  1.1591  1.5666  1.2062
  101OSM   H15T10177  -0.147   5.372   9.045 -0.5136  0.7818 -0.5267
  101OSM   C16S10178   0.015   5.490   8.947 -0.2086  0.1580 -0.2593
  101OSM   H16S10179   0.091   5.409   8.950 -1.6776 -1.2962 -1.6625
  101OSM   H16T10180   0.071   5.585   8.960  1.2611 -0.8054  0.6091
  101OSM   C17S10181  -0.049   5.469   8.809  0.0915 -0.6226  0.0675
  101OSM   H17S10182   0.031   5.493   8.736  1.9675  0.8785  2.5227
  101OSM   H17T10183  -0.140   5.525   8.779  1.2955  0.3403 -1.8880
  101OSM   C18S10184  -0.091   5.330   8.779  0.1182  0.3540 -0.5640
  101OSM   H18S10185  -0.146   5.277   8.860  1.1324 -0.6458 -0.5116
  101OSM   H18T10186  -0.006   5.260   8.764 -1.0003 -0.9308 -1.0476
  101OSM   H18U10187  -0.155   5.343   8.690  1.0038  3.1175 -0.8531
  101OSM    C1F10188   0.439   6.000  10.570 -0.5862 -0.1286  0.0514
  101OSM     OF10189   0.467   5.968  10.684  0.5951  0.2850 -0.6441
  101OSM    C2F10190   0.503   6.115  10.498  0.0537  0.1396  0.4611
  101OSM    H2F10191   0.536   6.179  10.583  0.2817 -0.6638  0.9769
  101OSM    H2G10192   0.429   6.169  10.435  1.1610  2.2924  0.9535
  101OSM    C3F10193   0.630   6.082  10.426  0.1173 -0.1958  0.8604
  101OSM    H3F10194   0.696   6.023  10.493  1.4103  0.7473  0.4263
  101OSM    H3G10195   0.688   6.176  10.415 -0.3631 -0.1363 -1.3748
  101OSM    C4F10196   0.601   6.037  10.284  0.7609 -0.2062  0.0631
  101OSM    H4F10197   0.566   6.116  10.216 -1.7888 -1.5251 -0.2059
  101OSM    H4G10198   0.520   5.962  10.267 -0.1392  0.5727  0.8378
  101OSM    C5F10199   0.734   5.990  10.222  0.0413  0.4640 -0.5969
  101OSM    H5F10200   0.768   5.902  10.280  1.0195  0.7425 -0.7356
  101OSM    H5G10201   0.817   6.062  10.233 -0.4610  0.9673 -0.1284
  101OSM    C6F10202   0.711   5.931  10.076  1.2233  0.4777 -0.0575
  101OSM    H6F10203   0.805   5.874  10.060  0.2467 -1.0274 -0.5158
  101OSM    H6G10204   0.627   5.858  10.074  1.3397  0.3312  0.2453
  101OSM    C7F10205   0.688   6.043   9.975  0.3188  0.3286 -0.0903
  101OSM    H7F10206   0.776   6.111   9.969  0.1615  0.7187  1.8024
  101OSM    H7G10207   0.594   6.094  10.003  0.1751 -0.3434  0.6897
  101OSM    C8F10208   0.663   5.983   9.839 -0.0595  0.0527 -0.0358
  101OSM    H8F10209   0.602   6.054   9.780 -1.4633 -0.0064  1.3203
  101OSM    H8G10210   0.604   5.889   9.849 -2.3916  1.1876 -2.5944
  101OSM    C9F10211   0.789   5.960   9.765  1.5335 -0.9911 -1.2524
  101OSM    H9F10212   0.884   5.938   9.816  0.3460 -1.9020  0.6567
  101OSM   C10F10213   0.807   5.970   9.635  0.4169  0.5067  0.0746
  101OSM   H10F10214   0.909   5.956   9.596 -0.2734 -1.5035 -1.0935
  101OSM   C11F10215   0.685   5.994   9.541 -0.6756 -0.3434 -0.3908
  101OSM   H11F10216   0.675   6.098   9.506 -0.7443 -0.8669 -1.9700
  101OSM   H11G10217   0.593   5.959   9.591 -1.3071 -0.0225 -1.3190
  101OSM   C12F10218   0.698   5.909   9.410  0.1379 -0.2054 -0.5073
  101OSM   H12F10219   0.725   5.805   9.439  0.5280 -0.2958 -1.1848
  101OSM   H12G10220   0.786   5.946   9.353  0.8643 -3.3512 -1.5194
  101OSM   C13F10221   0.568   5.916   9.329  0.0132 -0.4210 -0.6034
  101OSM   H13F10222   0.539   6.020   9.305 -0.2765 -0.3878 -0.1288
  101OSM   H13G10223   0.486   5.885   9.398 -0.3802  0.1618 -0.8053
  101OSM   C14F10224   0.563   5.827   9.208  0.2569  0.9731  0.4217
  101OSM   H14F10225   0.455   5.814   9.186  0.6133  1.7865 -2.0059
  101OSM   H14G10226   0.621   5.732   9.217  2.5934  2.3329  0.0357
  101OSM   C15F10227   0.615   5.886   9.074 -0.3209 -1.0557 -0.1211
  101OSM   H15F10228   0.723   5.888   9.101 -0.4043 -0.9260  0.2145
  101OSM   H15G10229   0.568   5.987   9.065  1.5033 -0.1670  0.1622
  101OSM   C16F10230   0.605   5.799   8.947  0.3392 -0.4704 -0.3375
  101OSM   H16F10231   0.501   5.770   8.920 -0.9343  1.9198  1.7421
  101OSM   H16G10232   0.644   5.699   8.977  1.2312  0.1022  0.4348
  101OSM   C17F10233   0.690   5.841   8.828  0.0531  0.3429 -0.3792
  101OSM   H17F10234   0.787   5.882   8.863  0.2811 -0.5514  0.0418
  101OSM   H17G10235   0.629   5.921   8.781 -0.3696  0.4645  0.3756
  101OSM   C18F10236   0.700   5.723   8.732  0.2167  0.3953 -0.0957
  101OSM   H18F10237   0.774   5.650   8.771  0.7310  0.2246 -1.3561
  101OSM   H18G10238   0.742   5.752   8.633 -2.5199 -2.5022 -2.2042
  101OSM   H18H10239   0.608   5.666   8.707  2.1280 -3.1026  0.4983
  102OSM      N10240   2.567   0.257  10.960 -0.2861 -0.1505 -0.2749
  102OSM    C1510241   2.504   0.361  11.049 -0.2031 -0.5641  0.1421
  102OSM   H15A10242   2.404   0.336  11.081 -0.6079  0.4138 -0.3354
  102OSM   H15B10243   2.502   0.457  10.998  0.2088 -0.4346  0.3687
  102OSM   H15C10244   2.561   0.384  11.138 -0.8553  3.4610 -0.3918
  102OSM    C1410245   2.700   0.316  10.924  0.7831  0.1457  0.0345
  102OSM   H14A10246   2.756   0.349  11.010 -1.9369 -0.8811  2.2729
  102OSM   H14B10247   2.686   0.410  10.873 -0.8623  0.7919  1.6374
  102OSM   H14C10248   2.765   0.255  10.862  0.2634  0.5352 -0.8991
  102OSM    C1310249   2.591   0.129  11.038 -0.2781 -0.4754 -0.0063
  102OSM   H13A10250   2.688   0.143  11.082 -1.2455  0.8376  1.7503
  102OSM   H13B10251   2.593   0.038  10.979  0.0440 -2.0043  2.3122
  102OSM   H13C10252   2.517   0.117  11.116  0.2916 -1.7441  0.3583
  102OSM    C1210253   2.478   0.224  10.842 -0.0582  0.0068 -0.2280
  102OSM   H12A10254   2.401   0.150  10.856 -0.1715  0.2586  0.4957
  102OSM   H12B10255   2.541   0.163  10.778 -1.4460 -0.5417 -1.0854
  102OSM    C1110256   2.412   0.343  10.762 -1.0242  0.3294 -0.3172
  102OSM   H11A10257   2.384   0.305  10.661 -0.7056 -1.4249  0.2333
  102OSM   H11B10258   2.496   0.414  10.748 -1.0112  0.3440 -0.1653
  102OSM      P10259   2.163   0.416  10.796 -0.3079 -0.1394 -0.6938
  102OSM    O1310260   2.108   0.275  10.800  0.4730 -0.2135 -0.2828
  102OSM    O1410261   2.099   0.521  10.880  0.2478  0.3515  0.5896
  102OSM    O1110262   2.177   0.475  10.646 -0.2870 -0.2758 -0.2501
  102OSM    O1210263   2.317   0.413  10.840  0.1739  0.0686  0.3903
  102OSM    C1S10264   2.252   0.594  10.617  0.3912  0.3679  0.3995
  102OSM    H1S10265   2.353   0.591  10.663  0.1667 -1.1812  0.8044
  102OSM    H1T10266   2.206   0.688  10.655 -1.0953 -0.1936  0.0004
  102OSM     NF10267   2.377   0.698  10.440  0.0548 -0.2221 -0.5855
  102OSM    HNF10268   2.362   0.792  10.411  3.7026  0.7759  0.4277
  102OSM    C2S10269   2.263   0.609  10.465  0.2652 -0.0169  0.8138
  102OSM    H2S10270   2.297   0.514  10.418 -0.0906  0.1584  0.1879
  102OSM    C3S10271   2.130   0.652  10.399 -0.3831 -0.2517  0.0597
  102OSM    H3S10272   2.086   0.742  10.448 -0.7452 -0.3128 -0.1546
  102OSM     O310273   2.022   0.556  10.415 -0.4529 -0.4249 -0.4698
  102OSM    HO310274   2.066   0.487  10.465  2.3264  1.5582 -0.0929
  102OSM    C4S10275   2.155   0.689  10.254  0.4951  0.2439 -0.3711
  102OSM    H4S10276   2.237   0.761  10.244  0.6612  0.5837  2.9000
  102OSM    C5S10277   2.085   0.634  10.145  1.2242 -1.0286 -0.3039
  102OSM    H5S10278   2.001   0.566  10.163 -1.1040  2.1939  1.4212
  102OSM    C6S10279   2.122   0.666  10.005  0.1092 -0.3613 -0.1546
  102OSM    H6S10280   2.035   0.637   9.943  0.8718 -2.4332 -0.2872
  102OSM    H6T10281   2.209   0.601   9.984 -1.4915 -2.7303  0.2588
  102OSM    C7S10282   2.152   0.808   9.948 -0.3580 -0.2248 -0.0737
  102OSM    H7S10283   2.242   0.853   9.995 -0.2771 -0.7876  0.3208
  102OSM    H7T10284   2.076   0.880   9.983  1.9297  0.9112  2.7978
  102OSM    C8S10285   2.172   0.825   9.794 -0.9188  0.4200 -0.0789
  102OSM    H8S10286   2.181   0.930   9.760 -0.9024  0.0671 -1.1897
  102OSM    H8T10287   2.077   0.782   9.754 -0.2541 -1.6829  0.5290
  102OSM    C9S10288   2.279   0.744   9.730  0.1038  0.2586  0.8968
  102OSM    H9S10289   2.297   0.658   9.798 -0.3691 -0.1200  0.5417
  102OSM    H9T10290   2.375   0.798   9.713  0.1504  0.1895  0.9383
  102OSM   C10S10291   2.235   0.681   9.595  0.5403 -0.0862  0.6455
  102OSM   H10S10292   2.127   0.655   9.602  0.9628 -2.4403 -1.0393
  102OSM   H10T10293   2.298   0.590   9.584  0.9126 -0.0517  2.3064
  102OSM   C11S10294   2.248   0.777   9.475 -0.5549 -0.0382 -0.4307
  102OSM   H11S10295   2.345   0.831   9.472 -1.8384  2.2934 -1.2334
  102OSM   H11T10296   2.164   0.846   9.498 -0.8820 -1.3049  2.3450
  102OSM   C12S10297   2.212   0.721   9.338 -0.0082  0.4544  0.2514
  102OSM   H12S10298   2.132   0.783   9.292  0.4478  1.1065  0.3455
  102OSM   H12T10299   2.159   0.625   9.358  0.5740 -0.5031 -2.6378
  102OSM   C13S10300   2.337   0.684   9.251  0.0001 -0.2658 -0.5868
  102OSM   H13S10301   2.414   0.620   9.299  0.2414  1.0899  0.8865
  102OSM   H13T10302   2.379   0.782   9.218  1.3555 -0.2422  1.1761
  102OSM   C14S10303   2.300   0.614   9.123  0.4259  0.7013 -0.2284
  102OSM   H14S10304   2.237   0.680   9.058  1.3510  0.4250 -1.4255
  102OSM   H14T10305   2.236   0.531   9.160  0.7879  0.7972  0.6116
  102OSM   C15S10306   2.421   0.550   9.057  0.1656 -0.0997  0.1073
  102OSM   H15S10307   2.457   0.474   9.130  0.2459 -0.7816 -0.6295
  102OSM   H15T10308   2.494   0.632   9.045 -2.4095  2.2931  0.4701
  102OSM   C16S10309   2.385   0.490   8.924  0.3582 -0.3135 -0.5878
  102OSM   H16S10310   2.347   0.569   8.856  2.7970  2.8685  1.5861
  102OSM   H16T10311   2.314   0.404   8.929 -1.3207  0.9287 -2.5644
  102OSM   C17S10312   2.517   0.429   8.858  0.1627 -0.9634  0.0711
  102OSM   H17S10313   2.550   0.356   8.935 -0.7494 -0.6500  0.7702
  102OSM   H17T10314   2.590   0.509   8.883 -2.0961  1.1756  0.0518
  102OSM   C18S10315   2.512   0.391   8.715 -0.1676 -0.5891 -0.1743
  102OSM   H18S10316   2.617   0.395   8.677  0.8191  0.1248  2.5122
  102OSM   H18T10317   2.440   0.457   8.662  1.9736  0.8022 -1.4446
  102OSM   H18U10318   2.470   0.289   8.699 -0.7742 -0.2010 -1.1002
  102OSM    C1F10319   2.499   0.661  10.469  0.2944  0.2262  0.1707
  102OSM     OF10320   2.528   0.551  10.510  0.1269  0.0472 -0.1993
  102OSM    C2F10321   2.611   0.759  10.438  0.6313 -0.0583 -0.3195
  102OSM    H2F10322   2.651   0.797  10.534  0.0917 -1.6843  0.5769
  102OSM    H2G10323   2.579   0.832  10.361 -0.9712  0.8339  1.1607
  102OSM    C3F10324   2.733   0.691  10.371 -0.8150  0.5013 -0.7271
  102OSM    H3F10325   2.729   0.632  10.277 -0.7368 -2.2719  0.9529
  102OSM    H3G10326   2.784   0.618  10.437  0.5656 -0.5646 -2.9354
  102OSM    C4F10327   2.845   0.800  10.326 -0.5818 -0.3049  0.1429
  102OSM    H4F10328   2.855   0.863  10.417 -1.4918 -1.3452  0.9823
  102OSM    H4G10329   2.813   0.863  10.239 -0.5122 -1.1560 -0.5070
  102OSM    C5F10330   2.977   0.726  10.297 -0.0982  0.8693 -0.8004
  102OSM    H5F10331   2.989   0.673  10.394 -2.3604  1.0322 -0.4106
  102OSM    H5G10332   3.062   0.797  10.289  0.9544  0.1146  2.8342
  102OSM    C6F10333   2.983   0.619  10.194 -0.2910 -0.0834  0.5185
  102OSM    H6F10334   2.916   0.533  10.215 -0.7599 -0.0046 -0.5836
  102OSM    H6G10335   3.085   0.575  10.196  0.4427  1.3863 -1.8688
  102OSM    C7F10336   2.951   0.660  10.044  0.1679 -0.2877  0.4803
  102OSM    H7F10337   3.004   0.755  10.026  1.1859 -0.7958  0.7850
  102OSM    H7G10338   2.842   0.684  10.046 -0.0937 -1.2509 -0.8863
  102OSM    C8F10339   2.983   0.543   9.953 -0.7872  0.1940  0.1422
  102OSM    H8F10340   3.083   0.498   9.965 -1.8563 -2.8997 -1.8683
  102OSM    H8G10341   2.971   0.565   9.844  1.2320 -0.1859 -0.1707
  102OSM    C9F10342   2.884   0.432   9.977 -0.8184 -0.1362  0.2791
  102OSM    H9F10343   2.914   0.345  10.036 -2.5847 -1.3156 -0.5199
  102OSM   C10F10344   2.750   0.442   9.937  0.3906  0.1970  0.5001
  102OSM   H10F10345   2.691   0.355   9.972  0.1275  0.1423 -0.0792
  102OSM   C11F10346   2.676   0.555   9.870  0.1361  0.6422 -0.1912
  102OSM   H11F10347   2.741   0.643   9.857  1.9263 -0.5982  0.2198
  102OSM   H11G10348   2.589   0.583   9.933 -0.6999 -1.1871 -0.4670
  102OSM   C12F10349   2.626   0.530   9.729  0.3728  0.7134  0.6017
  102OSM   H12F10350   2.591   0.627   9.687  1.9349  0.0208 -2.4366
  102OSM   H12G10351   2.540   0.460   9.730  0.7265  0.2536 -0.1792
  102OSM   C13F10352   2.735   0.476   9.621 -0.4710 -0.1519 -0.6625
  102OSM   H13F10353   2.754   0.369   9.640  2.8358  0.3805 -0.6563
  102OSM   H13G10354   2.836   0.522   9.618  0.0954 -1.3841 -0.5319
  102OSM   C14F10355   2.685   0.488   9.476  0.4096  0.2121 -0.1523
  102OSM   H14F10356   2.680   0.589   9.432  1.8257  0.3933  0.0774
  102OSM   H14G10357   2.594   0.427   9.457  0.1657  1.4401 -3.1644
  102OSM   C15F10358   2.788   0.418   9.384 -0.1193 -0.0783 -0.3161
  102OSM   H15F10359   2.817   0.316   9.416 -1.5808 -0.8679 -1.4786
  102OSM   H15G10360   2.879   0.480   9.401 -1.2968  1.4339  0.5239
  102OSM   C16F10361   2.749   0.447   9.234 -1.3691  0.0042  0.0710
  102OSM   H16F10362   2.733   0.556   9.222  1.3429  0.2573 -1.4912
  102OSM   H16G10363   2.654   0.397   9.203 -0.0032 -1.9633 -1.0177
  102OSM   C17F10364   2.872   0.420   9.140  0.3061  0.4439 -0.3045
  102OSM   H17F10365   2.918   0.322   9.164  0.2756  0.6627  0.6841
  102OSM   H17G10366   2.952   0.486   9.180  0.8640 -0.8986  0.8361
  102OSM   C18F10367   2.848   0.439   8.995  0.4211  0.1285  0.1627
  102OSM   H18F10368   2.786   0.356   8.954 -0.4249 -0.3187  2.2633
  102OSM   H18G10369   2.951   0.418   8.959 -0.0190 -3.3158  0.7379
  102OSM   H18H10370   2.804   0.539   8.980 -0.0702 -0.0090  0.6739
  103OSM      N10371   1.291   4.330  11.135 -0.0132  0.1857  0.3150
  103OSM    C1510372   1.157   4.292  11.189  0.5277 -0.1705  0.5741
  103OSM   H15A10373   1.142   4.185  11.183 -1.3093  0.1819 -1.9643
  103OSM   H15B10374   1.081   4.345  11.135 -1.6407 -1.4218  2.3279
  103OSM   H15C10375   1.162   4.321  11.293 -2.7248 -0.1522  0.7593
  103OSM    C1410376   1.394   4.284  11.233 -0.0994 -0.3359  0.1704
  103OSM   H14A10377   1.362   4.310  11.333 -0.1752 -1.8493  0.5589
  103OSM   H14B10378   1.491   4.325  11.211  1.0887 -2.1984  1.7252
  103OSM   H14C10379   1.412   4.178  11.234  0.8049 -0.1752  0.8428
  103OSM    C1310380   1.316   4.247  11.008  0.2897  0.2895  0.0086
  103OSM   H13A10381   1.303   4.141  11.025  1.3581  0.3409  1.2412
  103OSM   H13B10382   1.415   4.267  10.970  0.0683 -2.9610 -2.4184
  103OSM   H13C10383   1.239   4.279  10.939 -0.6236  1.8752  1.6887
  103OSM    C1210384   1.300   4.481  11.095 -0.0623  0.5497  0.0787
  103OSM   H12A10385   1.396   4.490  11.047 -0.7934  1.3141 -1.2765
  103OSM   H12B10386   1.286   4.540  11.184 -0.9103 -0.7280  0.8142
  103OSM    C1110387   1.195   4.533  10.990 -0.6506  0.7035 -0.0322
  103OSM   H11A10388   1.208   4.644  10.989 -1.1489  0.7822  1.0826
  103OSM   H11B10389   1.098   4.502  11.034  0.2196  0.5895  1.8682
  103OSM      P10390   1.320   4.523  10.755 -0.3068  0.1042  0.5092
  103OSM    O1310391   1.453   4.545  10.814 -0.3336  0.7458 -0.1951
  103OSM    O1410392   1.314   4.428  10.644 -0.5504 -0.1347 -0.3140
  103OSM    O1110393   1.255   4.661  10.708  0.0174 -0.3577 -0.0425
  103OSM    O1210394   1.213   4.473  10.862 -0.6798 -0.3443  0.6808
  103OSM    C1S10395   1.198   4.671  10.569  0.5334 -0.7500  0.6177
  103OSM    H1S10396   1.257   4.615  10.494  0.9066 -2.4998  2.1922
  103OSM    H1T10397   1.175   4.771  10.527 -0.4386 -1.1810  0.0957
  103OSM     NF10398   0.999   4.640  10.423  0.0306  0.3318 -0.2244
  103OSM    HNF10399   0.957   4.728  10.404 -2.8942 -0.6591  1.3725
  103OSM    C2S10400   1.049   4.619  10.562 -1.0251 -0.3559 -0.1705
  103OSM    H2S10401   1.040   4.511  10.587  1.0551  0.0033  2.2629
  103OSM    C3S10402   0.965   4.698  10.665  0.4597  0.0446  0.0675
  103OSM    H3S10403   0.964   4.805  10.638 -4.1315 -0.4249 -2.1550
  103OSM     O310404   1.013   4.695  10.796 -0.2448  0.0194  0.1284
  103OSM    HO310405   1.105   4.673  10.783 -0.5007 -1.4096  0.6303
  103OSM    C4S10406   0.826   4.655  10.665  0.5263 -0.0628  0.5831
  103OSM    H4S10407   0.774   4.699  10.579  2.4689 -1.4190 -1.3144
  103OSM    C5S10408   0.763   4.569  10.729 -0.0295  0.0375  0.0301
  103OSM    H5S10409   0.813   4.521  10.815 -0.1830 -2.4415 -1.2391
  103OSM    C6S10410   0.617   4.541  10.712  0.6117 -1.3307 -0.0801
  103OSM    H6S10411   0.572   4.621  10.650  1.5209 -0.0204  0.9480
  103OSM    H6T10412   0.563   4.554  10.808 -0.9789 -0.3437 -1.0904
  103OSM    C7S10413   0.592   4.406  10.667  0.2543  0.0140 -0.6204
  103OSM    H7S10414   0.487   4.374  10.681 -0.0212  0.8284 -0.8158
  103OSM    H7T10415   0.644   4.333  10.735  1.5231  1.2026 -0.2886
  103OSM    C8S10416   0.627   4.379  10.522 -0.0564 -0.1623 -0.3937
  103OSM    H8S10417   0.596   4.274  10.501 -0.4346  0.3153 -2.2924
  103OSM    H8T10418   0.737   4.380  10.512  0.5042  1.0485  4.3187
  103OSM    C9S10419   0.570   4.477  10.418 -0.2310 -0.0323  0.1366
  103OSM    H9S10420   0.623   4.575  10.420  3.2162 -1.8060 -0.7347
  103OSM    H9T10421   0.463   4.502  10.436 -0.0714  1.9016 -1.3644
  103OSM   C10S10422   0.575   4.417  10.277 -0.0105  0.0021 -0.5732
  103OSM   H10S10423   0.472   4.408  10.237 -0.1905 -0.3158 -0.0433
  103OSM   H10T10424   0.618   4.314  10.283 -0.1970 -0.0473 -0.0860
  103OSM   C11S10425   0.642   4.498  10.173 -0.4400  0.2035  0.2294
  103OSM   H11S10426   0.749   4.518  10.194 -0.6786 -0.6693  2.3565
  103OSM   H11T10427   0.586   4.593  10.153 -0.3238  0.0153 -1.0706
  103OSM   C12S10428   0.619   4.432  10.035 -0.0676 -0.8552  0.1271
  103OSM   H12S10429   0.512   4.401  10.035 -1.2669  2.9935 -1.0844
  103OSM   H12T10430   0.691   4.348  10.032  1.2070  0.2211 -0.1582
  103OSM   C13S10431   0.651   4.519   9.916 -0.1720  0.0882 -0.2015
  103OSM   H13S10432   0.759   4.544   9.918 -0.4496  1.3504 -0.1592
  103OSM   H13T10433   0.587   4.610   9.922 -2.7667 -1.6378 -0.8145
  103OSM   C14S10434   0.616   4.437   9.787  0.3560 -0.1902 -0.4107
  103OSM   H14S10435   0.512   4.399   9.789  0.6366 -1.1489 -2.8741
  103OSM   H14T10436   0.686   4.352   9.774  0.7463 -0.1422  1.2874
  103OSM   C15S10437   0.640   4.517   9.654 -0.3350  0.1497  0.1695
  103OSM   H15S10438   0.743   4.558   9.658 -0.6870  1.0860 -0.1639
  103OSM   H15T10439   0.571   4.604   9.655 -1.0848 -0.4309 -0.8215
  103OSM   C16S10440   0.601   4.429   9.534 -0.0072 -0.4563 -0.2544
  103OSM   H16S10441   0.491   4.414   9.532 -0.2135  0.3370  2.6758
  103OSM   H16T10442   0.641   4.326   9.547  0.1547 -0.4541 -0.7306
  103OSM   C17S10443   0.652   4.487   9.398 -0.2343  0.2505 -0.4842
  103OSM   H17S10444   0.625   4.416   9.317 -1.9790  0.4107 -0.0696
  103OSM   H17T10445   0.762   4.472   9.404 -0.3819 -1.0139 -0.8363
  103OSM   C18S10446   0.604   4.630   9.358  0.3970  0.2861  0.1482
  103OSM   H18S10447   0.632   4.656   9.253 -1.5004  0.9136 -0.2228
  103OSM   H18T10448   0.640   4.704   9.432  1.9515 -1.0061  0.6997
  103OSM   H18U10449   0.493   4.638   9.361  0.2682 -1.3812  0.3036
  103OSM    C1F10450   1.029   4.557  10.324  0.5723 -0.0653  0.4136
  103OSM     OF10451   1.069   4.444  10.339 -0.1068 -0.8427  0.6103
  103OSM    C2F10452   1.027   4.613  10.179 -0.0766  0.2624 -0.3784
  103OSM    H2F10453   0.946   4.689  10.177 -1.8694 -1.5716  0.4419
  103OSM    H2G10454   0.998   4.534  10.106 -0.1503  0.0536 -0.1218
  103OSM    C3F10455   1.166   4.674  10.139 -0.2681 -0.3902  0.2751
  103OSM    H3F10456   1.245   4.601  10.166  0.3730 -0.0077 -0.5477
  103OSM    H3G10457   1.198   4.757  10.206  1.3188 -0.3966 -0.4374
  103OSM    C4F10458   1.189   4.699   9.989  0.0664  0.7547  0.5947
  103OSM    H4F10459   1.281   4.762   9.991  0.7222 -0.2048  0.7311
  103OSM    H4G10460   1.105   4.755   9.942 -0.9883  0.2909  1.8996
  103OSM    C5F10461   1.214   4.577   9.902 -0.0264  0.6963  1.0085
  103OSM    H5F10462   1.134   4.500   9.910  2.8046 -2.4973  0.0256
  103OSM    H5G10463   1.308   4.532   9.942 -1.0426 -2.9878 -0.4876
  103OSM    C6F10464   1.246   4.614   9.761  0.0931 -0.5187  0.2498
  103OSM    H6F10465   1.306   4.535   9.712 -1.5089 -1.5931 -0.0353
  103OSM    H6G10466   1.307   4.707   9.766  0.6073 -0.7352 -1.7430
  103OSM    C7F10467   1.117   4.630   9.675 -0.0438 -0.2954 -0.3069
  103OSM    H7F10468   1.052   4.697   9.735 -0.9601 -2.3910  1.0896
  103OSM    H7G10469   1.065   4.532   9.667 -1.5350  0.5973 -1.9535
  103OSM    C8F10470   1.146   4.681   9.530 -0.3477 -0.2908  0.1199
  103OSM    H8F10471   1.172   4.789   9.533 -0.8906 -0.1249 -1.0279
  103OSM    H8G10472   1.049   4.677   9.476 -0.8275 -0.5070  0.9927
  103OSM    C9F10473   1.253   4.596   9.460 -0.5796  0.6039 -0.6185
  103OSM    H9F10474   1.336   4.565   9.525 -2.6746  0.0794  1.8495
  103OSM   C10F10475   1.241   4.560   9.327  0.7142 -0.6319 -0.0440
  103OSM   H10F10476   1.321   4.508   9.272 -1.7614 -1.4074 -3.0465
  103OSM   C11F10477   1.136   4.602   9.229 -0.4737 -0.4136 -0.0321
  103OSM   H11F10478   1.049   4.649   9.279  1.7976  3.1520  0.7985
  103OSM   H11G10479   1.107   4.511   9.173 -0.7061  0.3925 -1.2355
  103OSM   C12F10480   1.195   4.712   9.134  0.0656  0.3524 -0.1929
  103OSM   H12F10481   1.244   4.795   9.189 -0.8757  0.5960  0.2910
  103OSM   H12G10482   1.118   4.762   9.071  0.3384  3.0687  1.5434
  103OSM   C13F10483   1.300   4.654   9.045 -0.4421  0.0813  0.1383
  103OSM   H13F10484   1.277   4.554   9.002  1.3746  0.0746 -0.8791
  103OSM   H13G10485   1.398   4.645   9.098  0.8433  0.9288 -2.0255
  103OSM   C14F10486   1.322   4.745   8.922  0.5635  0.2676  0.0336
  103OSM   H14F10487   1.404   4.707   8.857  0.9566 -0.6276  1.0310
  103OSM   H14G10488   1.350   4.844   8.965  0.8683  0.6704 -1.0869
  103OSM   C15F10489   1.205   4.753   8.824  0.4595  0.3380 -0.0250
  103OSM   H15F10490   1.214   4.845   8.763 -1.0433  1.4034  1.2956
  103OSM   H15G10491   1.103   4.757   8.869  1.5044 -1.8893  2.7057
  103OSM   C16F10492   1.190   4.640   8.717  0.4603 -0.0748  0.3298
  103OSM   H16F10493   1.291   4.599   8.698  0.4252  0.2990 -0.6595
  103OSM   H16G10494   1.140   4.689   8.631  1.5491  0.6482  0.0941
  103OSM   C17F10495   1.097   4.534   8.770 -0.6530  0.8748 -0.3908
  103OSM   H17F10496   1.001   4.579   8.804 -0.7876  0.3462 -0.0597
  103OSM   H17G10497   1.139   4.508   8.869  0.7601 -0.0846 -1.2241
  103OSM   C18F10498   1.064   4.416   8.679  0.0421 -0.4667  0.9628
  103OSM   H18F10499   1.152   4.348   8.672  0.0501 -0.4635  1.0375
  103OSM   H18G10500   1.034   4.458   8.581 -2.4531 -2.3219  0.8753
  103OSM   H18H10501   0.978   4.359   8.721 -0.2324  1.4077  3.0842
  104OSM      N10502   2.673   3.481  10.965 -0.5220 -0.0241  0.2140
  104OSM    C1510503   2.746   3.380  10.878  0.4074  0.3251 -0.8345
  104OSM   H15A10504   2.706   3.387  10.778 -1.7461  1.5966  0.0861
  104OSM   H15B10505   2.728   3.280  10.916 -2.2407  1.1783  0.2325
  104OSM   H15C10506   2.852   3.401  10.868  0.6875 -0.6905 -0.1755
  104OSM    C1410507   2.679   3.434  11.105 -0.2737  0.2378 -0.0368
  104OSM   H14A10508   2.631   3.338  11.114 -1.4756  1.0810  3.1138
  104OSM   H14B10509   2.638   3.511  11.169  0.3047  0.2094  0.3774
  104OSM   H14C10510   2.783   3.420  11.132 -0.8568 -0.8697  1.7500
  104OSM    C1310511   2.743   3.612  10.944 -0.4903 -0.5850 -0.4107
  104OSM   H13A10512   2.761   3.627  10.838  1.1838 -2.8447 -0.4794
  104OSM   H13B10513   2.836   3.622  10.997 -0.8565  0.7000 -0.0040
  104OSM   H13C10514   2.680   3.697  10.964  1.0334  0.4520  0.0610
  104OSM    C1210515   2.527   3.490  10.930  0.1027  0.0714 -0.8448
  104OSM   H12A10516   2.474   3.410  10.980 -0.8251  1.9809  1.3521
  104OSM   H12B10517   2.512   3.480  10.824  0.4043 -0.2504 -0.8571
  104OSM    C1110518   2.446   3.619  10.971 -0.0902  0.4577  0.3509
  104OSM   H11A10519   2.452   3.618  11.082 -0.5917 -1.9694  0.3969
  104OSM   H11B10520   2.341   3.594  10.944  0.4871 -2.2645  0.4184
  104OSM      P10521   2.463   3.791  10.760 -0.0610  0.4649  0.1063
  104OSM    O1310522   2.333   3.862  10.761 -0.2061 -0.4568  0.1840
  104OSM    O1410523   2.585   3.872  10.727 -0.3851  0.8628 -0.0619
  104OSM    O1110524   2.454   3.651  10.684 -0.5134 -0.8728  0.0303
  104OSM    O1210525   2.490   3.740  10.907  0.5099 -0.7915 -0.0880
  104OSM    C1S10526   2.390   3.635  10.555  0.9583 -0.0696  0.2203
  104OSM    H1S10527   2.323   3.715  10.519  0.1762  0.0187  1.8559
  104OSM    H1T10528   2.323   3.547  10.564  0.5613  0.2698  0.5763
  104OSM     NF10529   2.446   3.637  10.313 -0.0523  0.9470 -0.3217
  104OSM    HNF10530   2.402   3.566  10.259 -1.3959  0.2169  1.6465
  104OSM    C2S10531   2.497   3.594  10.449  0.2786  0.3205  0.1682
  104OSM    H2S10532   2.592   3.648  10.469  1.4521 -1.2132 -1.1918
  104OSM    C3S10533   2.531   3.443  10.466 -0.7259 -0.5082 -1.1422
  104OSM    H3S10534   2.445   3.377  10.442 -0.5274  0.1965 -3.8865
  104OSM     O310535   2.569   3.413  10.604  0.1232  0.2449 -0.2095
  104OSM    HO310536   2.538   3.487  10.657  0.8368 -0.1696  0.7973
  104OSM    C4S10537   2.648   3.402  10.388 -0.5560  0.7457  0.1213
  104OSM    H4S10538   2.734   3.471  10.392 -0.4318  0.6313 -0.4993
  104OSM    C5S10539   2.651   3.284  10.313 -0.1191  0.0578 -0.6275
  104OSM    H5S10540   2.567   3.214  10.308 -1.4924  1.6121  0.3947
  104OSM    C6S10541   2.777   3.244  10.238  0.3179 -0.3814 -0.5539
  104OSM    H6S10542   2.814   3.139  10.247 -1.7090 -0.9462  1.8239
  104OSM    H6T10543   2.860   3.313  10.261  0.1744  0.1156 -1.5226
  104OSM    C7S10544   2.746   3.252  10.085 -0.9620  0.4111 -0.0044
  104OSM    H7S10545   2.718   3.359  10.069 -0.1712  0.9251  1.8618
  104OSM    H7T10546   2.656   3.192  10.061 -1.8294  1.0540  1.5218
  104OSM    C8S10547   2.851   3.201   9.987 -0.4770  0.5856 -0.5296
  104OSM    H8S10548   2.821   3.201   9.880  0.0298  2.2019 -0.6807
  104OSM    H8T10549   2.879   3.095  10.005  0.8281  0.8983 -0.7320
  104OSM    C9S10550   2.969   3.296   9.979  0.0250 -0.6711  0.0807
  104OSM    H9S10551   3.011   3.321  10.078 -0.8124  1.6079 -0.1110
  104OSM    H9T10552   2.917   3.383   9.932  1.4842 -1.2565 -2.7583
  104OSM   C10S10553   3.073   3.260   9.877 -0.5203 -0.0943 -0.2389
  104OSM   H10S10554   3.131   3.176   9.920 -1.6447 -1.1894 -0.8248
  104OSM   H10T10555   3.139   3.346   9.851 -0.8431  0.9051  2.0348
  104OSM   C11S10556   3.017   3.206   9.748 -0.3939  0.2967 -0.1553
  104OSM   H11S10557   2.943   3.278   9.707  0.3429  0.6133 -0.9346
  104OSM   H11T10558   2.965   3.109   9.766  0.2547  0.2886  1.8038
  104OSM   C12S10559   3.124   3.178   9.637  0.2550 -0.6864 -0.0066
  104OSM   H12S10560   3.202   3.118   9.688  1.4984  3.0540  2.7491
  104OSM   H12T10561   3.170   3.274   9.604  0.5296 -1.0798 -0.7742
  104OSM   C13S10562   3.066   3.098   9.522 -0.4280  0.0026 -0.3436
  104OSM   H13S10563   2.986   3.163   9.481 -0.5968  0.9851  1.4763
  104OSM   H13T10564   3.024   2.997   9.539  0.7373 -0.2833  0.9181
  104OSM   C14S10565   3.166   3.074   9.413 -0.2489 -0.0537  0.4911
  104OSM   H14S10566   3.220   3.169   9.390  0.5678 -0.3460  1.1754
  104OSM   H14T10567   3.104   3.041   9.327 -0.5389  1.5968  0.0473
  104OSM   C15S10568   3.270   2.967   9.449 -0.1028 -0.6337  0.1529
  104OSM   H15S10569   3.215   2.872   9.463 -1.2189 -0.3522 -1.9906
  104OSM   H15T10570   3.324   2.990   9.543  0.2277  1.6618 -0.5531
  104OSM   C16S10571   3.368   2.950   9.333  0.2053 -0.1384  0.3693
  104OSM   H16S10572   3.423   3.046   9.327  0.2712 -0.1747  0.3934
  104OSM   H16T10573   3.314   2.942   9.237  1.7390  0.9704 -0.6061
  104OSM   C17S10574   3.456   2.825   9.338 -0.3007 -0.7266  0.0695
  104OSM   H17S10575   3.407   2.726   9.347 -0.7036 -0.5183  0.1954
  104OSM   H17T10576   3.528   2.844   9.420 -1.1673 -0.7203  0.8420
  104OSM   C18S10577   3.545   2.806   9.205 -0.8193 -0.5639 -0.5633
  104OSM   H18S10578   3.596   2.903   9.194 -2.3372  0.3253  0.0966
  104OSM   H18T10579   3.480   2.772   9.122  1.8099 -3.0196 -1.7037
  104OSM   H18U10580   3.618   2.724   9.226  0.6250  1.3457  2.1974
  104OSM    C1F10581   2.438   3.767  10.277 -0.0276 -1.1199  0.0461
  104OSM     OF10582   2.517   3.850  10.320 -0.2736 -0.1469  0.2406
  104OSM    C2F10583   2.316   3.804  10.197 -0.0811  0.0758 -0.2666
  104OSM    H2F10584   2.250   3.865  10.263 -0.5241  0.6106 -1.1877
  104OSM    H2G10585   2.260   3.716  10.160  1.1901 -0.7589 -0.2392
  104OSM    C3F10586   2.363   3.896  10.080  0.0129 -0.2283  0.1306
  104OSM    H3F10587   2.414   3.986  10.121  0.1786 -1.1569  1.9805
  104OSM    H3G10588   2.273   3.943  10.036  0.2885  0.4874  0.3273
  104OSM    C4F10589   2.436   3.819   9.971 -0.5736 -0.0589  0.1644
  104OSM    H4F10590   2.389   3.719   9.961 -0.9310 -0.0422  1.5030
  104OSM    H4G10591   2.537   3.804  10.014 -0.5962 -2.1965 -0.4636
  104OSM    C5F10592   2.446   3.885   9.839  0.2372  0.0445 -0.1327
  104OSM    H5F10593   2.531   3.846   9.778 -0.6252 -0.8967 -0.7343
  104OSM    H5G10594   2.461   3.995   9.844  0.3556 -0.0077  0.7666
  104OSM    C6F10595   2.319   3.869   9.744 -0.3732 -0.6137 -0.2257
  104OSM    H6F10596   2.235   3.910   9.804 -2.1183 -0.5935 -2.5996
  104OSM    H6G10597   2.294   3.762   9.725 -2.3472  0.0962 -1.8266
  104OSM    C7F10598   2.330   3.936   9.603 -0.8447 -0.3986 -0.2241
  104OSM    H7F10599   2.407   4.017   9.609 -0.9760  0.1063 -3.9842
  104OSM    H7G10600   2.238   3.993   9.580  0.6882  3.4045  2.4840
  104OSM    C8F10601   2.362   3.843   9.484  0.3294 -0.6859 -0.0197
  104OSM    H8F10602   2.357   3.890   9.383 -0.7108 -0.3367  0.1974
  104OSM    H8G10603   2.275   3.774   9.485  0.3503 -0.6936  2.3118
  104OSM    C9F10604   2.495   3.775   9.505  0.4463  0.2839 -0.3922
  104OSM    H9F10605   2.522   3.748   9.609  3.2578  0.4863 -1.0249
  104OSM   C10F10606   2.579   3.731   9.413 -0.5181 -0.6562 -0.3247
  104OSM   H10F10607   2.675   3.692   9.449 -0.2452  1.0846  0.8608
  104OSM   C11F10608   2.556   3.739   9.262  0.7467  0.0448 -0.0540
  104OSM   H11F10609   2.653   3.758   9.210  1.2727  0.4367  1.0501
  104OSM   H11G10610   2.488   3.821   9.229  1.9529  1.4345  0.8489
  104OSM   C12F10611   2.491   3.609   9.209 -0.0197 -0.8010 -0.1756
  104OSM   H12F10612   2.386   3.603   9.243 -0.5175 -0.1914 -1.6050
  104OSM   H12G10613   2.545   3.519   9.247  1.1508  1.1310  2.9479
  104OSM   C13F10614   2.489   3.604   9.057 -0.0863 -0.2755  0.1135
  104OSM   H13F10615   2.480   3.707   9.017 -1.9580 -0.6263 -0.4263
  104OSM   H13G10616   2.395   3.550   9.030 -1.0854  1.3286  0.3312
  104OSM   C14F10617   2.605   3.550   8.984  0.2586 -0.6236 -0.5225
  104OSM   H14F10618   2.702   3.592   9.019 -0.5137 -1.7639  3.1891
  104OSM   H14G10619   2.586   3.579   8.879 -1.7597 -0.9715 -0.2618
  104OSM   C15F10620   2.619   3.393   8.983  0.2365  0.1187 -0.3261
  104OSM   H15F10621   2.620   3.366   9.091  1.1781  0.1806 -0.3195
  104OSM   H15G10622   2.718   3.374   8.938  0.3494 -1.5872  0.6098
  104OSM   C16F10623   2.514   3.327   8.895 -0.0083 -0.0688 -1.0997
  104OSM   H16F10624   2.523   3.373   8.794  1.4303 -0.0886 -0.9828
  104OSM   H16G10625   2.413   3.348   8.938 -0.6219 -2.1998 -1.4070
  104OSM   C17F10626   2.541   3.175   8.871 -0.6684 -0.1133 -0.3354
  104OSM   H17F10627   2.457   3.125   8.820 -0.6380 -0.7137  0.1932
  104OSM   H17G10628   2.557   3.127   8.970 -0.0633  0.5921 -0.0772
  104OSM   C18F10629   2.660   3.152   8.791 -0.4726  0.3468  0.5172
  104OSM   H18F10630   2.647   3.056   8.735 -0.4526 -0.2485  1.5261
  104OSM   H18G10631   2.745   3.150   8.863 -0.4874 -2.5162  0.5237
  104OSM   H18H10632   2.680   3.219   8.704  2.7051 -1.1784 -0.0079
  105OSM      N10633   6.043   6.531  10.974 -0.6734 -0.5119 -0.2512
  105OSM    C1510634   6.107   6.564  10.844 -0.5732  0.1759  0.3333
  105OSM   H15A10635   6.120   6.473  10.788  0.7925 -1.0254  2.5236
  105OSM   H15B10636   6.207   6.601  10.856 -0.2613 -0.4341 -0.3936
  105OSM   H15C10637   6.047   6.630  10.783 -0.5164 -0.6225 -0.5964
  105OSM    C1410638   6.042   6.659  11.057 -0.4001 -0.4271  0.1900
  105OSM   H14A10639   6.143   6.688  11.082  0.1004 -1.7166 -0.2914
  105OSM   H14B10640   5.979   6.656  11.144 -0.8396  3.5709  0.0818
  105OSM   H14C10641   6.005   6.745  11.003 -0.7771 -0.1559  0.8816
  105OSM    C1310642   5.900   6.497  10.940 -0.1593  0.2272  0.1582
  105OSM   H13A10643   5.857   6.482  11.038 -0.8374 -0.5052 -0.2511
  105OSM   H13B10644   5.902   6.401  10.891 -0.9733  0.5482 -0.4965
  105OSM   H13C10645   5.844   6.571  10.886 -1.8945 -1.0944  0.1151
  105OSM    C1210646   6.105   6.405  11.037 -0.4867  0.2355  0.2587
  105OSM   H12A10647   6.068   6.399  11.138  0.9301 -0.9791  0.7252
  105OSM   H12B10648   6.212   6.419  11.044 -0.3786 -0.4012 -0.1001
  105OSM    C1110649   6.089   6.272  10.967  0.0103 -0.5397 -0.5313
  105OSM   H11A10650   5.986   6.231  10.967  0.1421 -0.9975  2.3802
  105OSM   H11B10651   6.141   6.199  11.033  1.0445  0.3583 -0.3405
  105OSM      P10652   6.291   6.213  10.792 -0.0735  0.2266 -0.1879
  105OSM    O1310653   6.342   6.278  10.668  0.2314 -0.4307 -0.3002
  105OSM    O1410654   6.383   6.219  10.909  0.0836 -0.1597  0.0478
  105OSM    O1110655   6.252   6.059  10.755  0.0410 -0.1470 -0.4323
  105OSM    O1210656   6.150   6.274  10.836 -0.0052 -0.6178  0.4724
  105OSM    C1S10657   6.139   6.032  10.664 -0.1892 -0.4048  0.1058
  105OSM    H1S10658   6.066   6.112  10.688  2.4831  2.1689 -0.0239
  105OSM    H1T10659   6.080   5.941  10.690 -1.6466 -0.1631 -2.1939
  105OSM     NF10660   6.037   6.004  10.446  0.1460 -0.0044 -0.5240
  105OSM    HNF10661   6.007   5.910  10.432 -0.3088  0.1021 -0.2537
  105OSM    C2S10662   6.166   6.032  10.513  0.1105  0.5964  0.0594
  105OSM    H2S10663   6.201   6.128  10.471  0.0751  0.5234 -0.1376
  105OSM    C3S10664   6.276   5.930  10.482 -0.0067  0.5028  0.6668
  105OSM    H3S10665   6.238   5.829  10.509  0.2031  0.7744  1.9994
  105OSM     O310666   6.389   5.942  10.560  0.3188 -0.4982 -0.1321
  105OSM    HO310667   6.360   6.015  10.616  0.5506 -0.5815  0.0968
  105OSM    C4S10668   6.301   5.918  10.336 -1.0573  0.0198  0.5185
  105OSM    H4S10669   6.247   5.835  10.287  1.1529 -1.6535  0.8173
  105OSM    C5S10670   6.397   5.989  10.268  0.5238  0.0512  0.4819
  105OSM    H5S10671   6.467   6.042  10.334 -0.1851  0.5310  0.8576
  105OSM    C6S10672   6.445   5.964  10.128  0.0233  0.1607  0.6809
  105OSM    H6S10673   6.444   6.063  10.079  1.7371  0.1221  0.5590
  105OSM    H6T10674   6.378   5.897  10.069 -2.1039  2.4112  0.4560
  105OSM    C7S10675   6.597   5.925  10.113 -0.2412  0.7656 -0.2260
  105OSM    H7S10676   6.616   5.826  10.160 -0.6998  0.4318 -0.7353
  105OSM    H7T10677   6.662   6.003  10.157  1.4563 -0.5055 -0.4405
  105OSM    C8S10678   6.636   5.919   9.959 -0.0619  0.1870 -0.0149
  105OSM    H8S10679   6.563   5.859   9.902 -0.0572 -0.2940  0.4780
  105OSM    H8T10680   6.734   5.869   9.947  0.0353  0.7154 -1.4346
  105OSM    C9S10681   6.637   6.054   9.891 -0.0159  0.1611 -0.4755
  105OSM    H9S10682   6.687   6.136   9.946 -0.9753  1.3316 -1.2984
  105OSM    H9T10683   6.533   6.094   9.884  1.0553  2.7137 -2.6512
  105OSM   C10S10684   6.686   6.058   9.748 -0.4016 -0.1219 -0.5744
  105OSM   H10S10685   6.797   6.055   9.750 -0.3259  2.4006  1.6108
  105OSM   H10T10686   6.670   6.156   9.697  1.2664  0.5875  0.2165
  105OSM   C11S10687   6.630   5.952   9.652 -0.1160  0.1555  0.0783
  105OSM   H11S10688   6.520   5.953   9.665  0.0988  1.3599  2.0126
  105OSM   H11T10689   6.672   5.858   9.695 -1.3394 -2.3003 -3.7544
  105OSM   C12S10690   6.678   5.955   9.502  1.2941 -0.1409 -0.2052
  105OSM   H12S10691   6.653   5.854   9.463  2.3042 -0.5474  0.1644
  105OSM   H12T10692   6.789   5.958   9.502  1.3118 -0.1363 -1.9140
  105OSM   C13S10693   6.615   6.065   9.408  0.3188  0.7722 -0.5129
  105OSM   H13S10694   6.676   6.157   9.422  0.4377  0.3895  1.6062
  105OSM   H13T10695   6.521   6.092   9.462 -1.5391 -1.7450 -2.3764
  105OSM   C14S10696   6.607   6.018   9.266 -0.2496 -0.2087  0.2927
  105OSM   H14S10697   6.565   6.108   9.215  0.2640 -0.0920  0.0729
  105OSM   H14T10698   6.536   5.932   9.272  0.2716 -0.8317 -1.8797
  105OSM   C15S10699   6.737   5.973   9.204  0.0493  0.4298 -0.6433
  105OSM   H15S10700   6.782   5.894   9.268  0.3890  1.7130  0.7388
  105OSM   H15T10701   6.806   6.060   9.197 -0.8043  1.2812  1.1713
  105OSM   C16S10702   6.718   5.912   9.059  0.3553 -0.6823  0.1030
  105OSM   H16S10703   6.647   5.980   9.007  2.3106  1.2806 -0.0870
  105OSM   H16T10704   6.659   5.818   9.055  1.0505 -1.1968  1.5699
  105OSM   C17S10705   6.841   5.886   8.977  0.0129 -0.1770 -0.1568
  105OSM   H17S10706   6.889   5.793   9.014 -1.2457 -1.4476 -1.6641
  105OSM   H17T10707   6.911   5.966   9.009 -0.0477 -0.9333  1.9018
  105OSM   C18S10708   6.808   5.876   8.832  0.3524  0.1941  0.0909
  105OSM   H18S10709   6.903   5.865   8.776  2.4458  0.4036  3.4905
  105OSM   H18T10710   6.761   5.973   8.804  1.3415  0.9050  0.8827
  105OSM   H18U10711   6.741   5.788   8.820  0.7162 -0.5023  2.9034
  105OSM    C1F10712   5.947   6.099  10.451 -0.0585 -0.0166  0.6743
  105OSM     OF10713   5.973   6.206  10.502 -0.3412 -0.1030 -0.3713
  105OSM    C2F10714   5.815   6.081  10.388  0.2979 -0.0736  0.4731
  105OSM    H2F10715   5.777   5.991  10.442 -0.9379  0.5497  0.6512
  105OSM    H2G10716   5.833   6.041  10.286 -2.0143  1.6263 -0.6349
  105OSM    C3F10717   5.723   6.207  10.377 -0.7801  0.2179  0.5573
  105OSM    H3F10718   5.720   6.260  10.474 -1.0748 -0.9420  1.1954
  105OSM    H3G10719   5.619   6.186  10.343 -0.8164  0.9668  0.1995
  105OSM    C4F10720   5.774   6.324  10.283  0.3611  0.5251 -0.0192
  105OSM    H4F10721   5.878   6.344  10.314 -0.3974  1.2992  2.0550
  105OSM    H4G10722   5.723   6.421  10.303  0.7867  0.4378  1.5088
  105OSM    C5F10723   5.763   6.299  10.131 -0.1379  0.0510 -0.0359
  105OSM    H5F10724   5.653   6.292  10.115 -0.2092  2.8708 -1.0582
  105OSM    H5G10725   5.814   6.202  10.110 -1.2219 -0.3336 -0.9557
  105OSM    C6F10726   5.823   6.408  10.046 -0.2132 -0.1579  0.9837
  105OSM    H6F10727   5.931   6.414  10.074  0.4107  0.7824 -1.4892
  105OSM    H6G10728   5.792   6.513  10.064 -0.4501 -0.4019  2.0432
  105OSM    C7F10729   5.830   6.373   9.893  0.5232  0.1413 -0.0056
  105OSM    H7F10730   5.725   6.355   9.863  1.1191 -2.0289 -0.8467
  105OSM    H7G10731   5.888   6.279   9.883  0.2440 -0.1067  0.6935
  105OSM    C8F10732   5.891   6.483   9.801  0.1546  0.5743 -0.3033
  105OSM    H8F10733   5.992   6.514   9.836 -0.5565  0.3384  2.0463
  105OSM    H8G10734   5.825   6.571   9.810  1.1743  1.3050  0.1382
  105OSM    C9F10735   5.896   6.435   9.656 -0.6213  0.9520 -0.1999
  105OSM    H9F10736   5.910   6.326   9.648  0.2708  1.1303 -1.1257
  105OSM   C10F10737   5.880   6.511   9.547 -0.0017 -0.5200 -0.0516
  105OSM   H10F10738   5.882   6.468   9.446 -0.7076 -2.0705  0.5691
  105OSM   C11F10739   5.858   6.658   9.546  0.3756  0.2555 -0.6514
  105OSM   H11F10740   5.958   6.703   9.563  0.2390  0.1642  0.4571
  105OSM   H11G10741   5.796   6.691   9.633 -0.1834 -2.2507 -0.0681
  105OSM   C12F10742   5.792   6.714   9.425  0.7729 -0.4834 -0.5685
  105OSM   H12F10743   5.783   6.822   9.449  0.2162 -0.5350 -0.5542
  105OSM   H12G10744   5.695   6.663   9.405  0.4518  0.1468 -0.6101
  105OSM   C13F10745   5.870   6.704   9.286  0.2650 -0.0999  0.7105
  105OSM   H13F10746   5.862   6.597   9.260  2.5214  0.2832 -1.7524
  105OSM   H13G10747   5.973   6.745   9.292  1.1781 -2.4584  1.5920
  105OSM   C14F10748   5.781   6.773   9.186 -0.4041  0.4088 -0.2554
  105OSM   H14F10749   5.736   6.872   9.211  0.5171  0.8105 -0.1675
  105OSM   H14G10750   5.697   6.704   9.160 -0.5272 -0.2293  1.7882
  105OSM   C15F10751   5.861   6.794   9.053 -0.7539 -0.0812  0.1634
  105OSM   H15F10752   5.960   6.838   9.079  0.1368 -0.6918 -2.0358
  105OSM   H15G10753   5.804   6.863   8.987 -3.1325 -1.2769  0.9019
  105OSM   C16F10754   5.897   6.661   8.981 -0.3947 -1.0176 -0.2031
  105OSM   H16F10755   5.801   6.605   8.985 -0.6441 -0.6749 -1.2781
  105OSM   H16G10756   5.977   6.607   9.035  0.9567 -1.5346 -2.6439
  105OSM   C17F10757   5.937   6.682   8.836  0.1418 -0.1418  0.4938
  105OSM   H17F10758   5.872   6.757   8.787  2.1203  1.1596 -0.1734
  105OSM   H17G10759   5.925   6.591   8.773  0.8032  1.2547 -1.6975
  105OSM   C18F10760   6.079   6.735   8.829 -0.1737 -0.1188 -0.8934
  105OSM   H18F10761   6.110   6.825   8.885 -0.8115  1.2034 -2.6168
  105OSM   H18G10762   6.120   6.752   8.727 -2.5276 -2.4284 -2.3146
  105OSM   H18H10763   6.140   6.654   8.874  0.4178  1.4024  1.1181
  106OSM      N10764   5.188   5.321  11.011  0.1939  0.4143 -0.3795
  106OSM    C1510765   5.041   5.327  11.045 -0.1344  0.1465  0.0107
  106OSM   H15A10766   5.000   5.426  11.059 -0.5811  0.0489 -0.5922
  106OSM   H15B10767   5.026   5.279  11.141 -1.6981 -0.3903 -0.4846
  106OSM   H15C10768   4.977   5.275  10.975  0.3268 -0.4798  0.0570
  106OSM    C1410769   5.275   5.358  11.122  0.8378  0.0313 -0.0489
  106OSM   H14A10770   5.232   5.423  11.197 -0.6041 -1.9224  0.8627
  106OSM   H14B10771   5.364   5.414  11.098  1.5916 -0.4083  1.6763
  106OSM   H14C10772   5.302   5.267  11.173  1.7464  2.3994  3.8625
  106OSM    C1310773   5.227   5.178  10.971  0.0475 -0.2544 -0.2638
  106OSM   H13A10774   5.193   5.109  11.047 -1.4591 -1.1370 -1.6923
  106OSM   H13B10775   5.334   5.171  10.956  0.1441  0.5440  0.0253
  106OSM   H13C10776   5.179   5.147  10.879  1.6298  0.3270 -1.3056
  106OSM    C1210777   5.220   5.421  10.894  0.0963  0.3426  0.2651
  106OSM   H12A10778   5.325   5.408  10.871 -0.4530 -0.3174 -1.9380
  106OSM   H12B10779   5.205   5.517  10.941  0.2566 -0.5638  2.2257
  106OSM    C1110780   5.135   5.398  10.763 -0.0005 -0.3257  0.4652
  106OSM   H11A10781   5.152   5.479  10.690 -0.1731  1.6033  2.5278
  106OSM   H11B10782   5.034   5.433  10.793  0.9870  1.6538  1.5479
  106OSM      P10783   4.992   5.186  10.691  0.1477  0.1790 -0.1620
  106OSM    O1310784   5.021   5.056  10.632  0.1841  0.4652 -0.5201
  106OSM    O1410785   4.895   5.179  10.804  0.1266 -0.3110 -0.6743
  106OSM    O1110786   4.926   5.265  10.573  0.2032 -0.4346  0.6878
  106OSM    O1210787   5.132   5.258  10.720 -0.1714  0.4144 -0.4720
  106OSM    C1S10788   4.971   5.247  10.444 -0.2660  0.3018  0.0482
  106OSM    H1S10789   4.940   5.145  10.412 -0.0728  0.1840  0.2280
  106OSM    H1T10790   5.082   5.255  10.438 -0.2913 -0.7885 -2.2671
  106OSM     NF10791   4.928   5.313  10.209  0.5502 -0.6364  0.0170
  106OSM    HNF10792   5.013   5.340  10.165  0.6097 -0.7687  0.0490
  106OSM    C2S10793   4.914   5.360  10.346 -0.2513  0.3399 -0.8048
  106OSM    H2S10794   4.806   5.373  10.368  0.0988  0.9298  0.6002
  106OSM    C3S10795   4.991   5.488  10.383 -0.2837  0.1966  0.1600
  106OSM    H3S10796   5.098   5.459  10.380  0.0001  1.3109 -1.4618
  106OSM     O310797   4.968   5.535  10.515  0.6051 -0.2396  0.0813
  106OSM    HO310798   4.907   5.474  10.557 -0.5425  1.8937  1.6374
  106OSM    C4S10799   4.976   5.597  10.284  0.0889 -0.2520 -0.0742
  106OSM    H4S10800   5.059   5.608  10.213  0.7675 -2.4431  0.3581
  106OSM    C5S10801   4.870   5.685  10.278 -0.2349 -0.3319 -0.3811
  106OSM    H5S10802   4.774   5.658  10.324 -1.2115  1.5994 -1.2125
  106OSM    C6S10803   4.858   5.800  10.175  0.4064  0.5858  0.5632
  106OSM    H6S10804   4.820   5.887  10.233 -0.6917 -0.4799  1.4604
  106OSM    H6T10805   4.771   5.775  10.111 -0.2470  2.2161  0.7839
  106OSM    C7S10806   4.974   5.853  10.087 -0.3948  1.3108 -0.1761
  106OSM    H7S10807   5.020   5.769  10.031 -0.7693  0.8675  0.1811
  106OSM    H7T10808   5.048   5.894  10.159  1.8558 -0.2906 -1.5162
  106OSM    C8S10809   4.937   5.954   9.986 -1.7166 -0.0307 -0.0539
  106OSM    H8S10810   4.911   6.050  10.036  0.9516  1.3118 -1.1728
  106OSM    H8T10811   4.855   5.919   9.920 -1.5906 -0.6619  0.1221
  106OSM    C9S10812   5.048   5.986   9.886 -0.3345 -0.6449 -0.4144
  106OSM    H9S10813   5.116   5.903   9.858 -0.2376 -0.0598 -1.9257
  106OSM    H9T10814   5.109   6.063   9.937 -0.7564 -1.4097  1.3048
  106OSM   C10S10815   4.977   6.029   9.757  0.4540 -0.1685 -0.0340
  106OSM   H10S10816   4.899   6.108   9.771  1.3085  0.7788 -0.6198
  106OSM   H10T10817   4.933   5.940   9.706  0.5749  0.2789 -0.9121
  106OSM   C11S10818   5.076   6.097   9.670  0.0385  0.1019 -0.1902
  106OSM   H11S10819   5.160   6.025   9.668 -0.3384 -0.3526  0.3891
  106OSM   H11T10820   5.102   6.201   9.699  1.3431  0.0130 -0.9942
  106OSM   C12S10821   5.010   6.104   9.533 -1.0471 -0.1669  0.5923
  106OSM   H12S10822   4.911   6.153   9.542  0.6351  3.2361  1.6262
  106OSM   H12T10823   4.989   6.004   9.490 -1.5831  0.4664 -0.6494
  106OSM   C13S10824   5.108   6.165   9.433  0.2598 -0.1793 -0.5803
  106OSM   H13S10825   5.205   6.113   9.444 -0.0457 -1.4684 -3.5953
  106OSM   H13T10826   5.126   6.271   9.459 -0.7288  0.1961 -1.3802
  106OSM   C14S10827   5.052   6.157   9.293 -0.3310  0.1495  0.6092
  106OSM   H14S10828   4.954   6.209   9.283 -0.4203 -0.2423 -0.6335
  106OSM   H14T10829   5.039   6.051   9.261 -0.4151  0.4707 -0.4190
  106OSM   C15S10830   5.159   6.220   9.208  0.7244 -0.5580 -0.5268
  106OSM   H15S10831   5.132   6.213   9.100  1.1400  2.3177 -0.8606
  106OSM   H15T10832   5.256   6.167   9.222  1.1996  0.3713 -0.2592
  106OSM   C16S10833   5.155   6.373   9.210 -0.3262 -0.2773  0.5802
  106OSM   H16S10834   5.207   6.418   9.297 -0.8197  1.8123 -0.1785
  106OSM   H16T10835   5.055   6.419   9.214  0.5876  2.1753 -2.3282
  106OSM   C17S10836   5.239   6.430   9.091  0.4223 -0.0499  0.3977
  106OSM   H17S10837   5.219   6.540   9.095  0.2548 -0.1197  1.6406
  106OSM   H17T10838   5.205   6.393   8.993  4.8438  0.1715 -1.3461
  106OSM   C18S10839   5.391   6.407   9.101 -0.2610 -0.3967  0.3848
  106OSM   H18S10840   5.419   6.440   9.203  1.1226  1.6089 -0.6043
  106OSM   H18T10841   5.440   6.467   9.022  2.1625 -2.6071  0.1370
  106OSM   H18U10842   5.415   6.298   9.100 -2.5083 -0.9542  1.9461
  106OSM    C1F10843   4.844   5.219  10.163  0.3219  0.5822  0.7853
  106OSM     OF10844   4.753   5.171  10.227  0.2086 -0.3557 -0.4042
  106OSM    C2F10845   4.880   5.178  10.022 -0.2234  0.2236 -0.9164
  106OSM    H2F10846   4.960   5.101  10.032 -1.5693 -0.9025  1.4240
  106OSM    H2G10847   4.913   5.268   9.965 -1.1847  0.7808 -0.5962
  106OSM    C3F10848   4.762   5.117   9.942  0.3540 -0.1792 -0.3567
  106OSM    H3F10849   4.687   5.197   9.923 -2.7703 -2.5249  1.4448
  106OSM    H3G10850   4.701   5.045  10.001  0.8989  0.5907  1.1716
  106OSM    C4F10851   4.813   5.072   9.807  0.1484 -0.9357  0.2768
  106OSM    H4F10852   4.730   5.021   9.755 -0.7061  2.5984 -1.9575
  106OSM    H4G10853   4.898   5.004   9.831  0.0277 -0.9183  0.7627
  106OSM    C5F10854   4.877   5.176   9.717  0.2060  0.1596  0.3068
  106OSM    H5F10855   4.975   5.223   9.741 -0.6029  2.1955 -0.2363
  106OSM    H5G10856   4.807   5.261   9.706  0.5416  0.1323 -2.3788
  106OSM    C6F10857   4.887   5.118   9.579 -0.4643 -0.1164 -0.6624
  106OSM    H6F10858   4.786   5.082   9.551 -0.6778 -1.4802  1.7297
  106OSM    H6G10859   4.941   5.021   9.582  0.3590  0.3826  1.5781
  106OSM    C7F10860   4.935   5.219   9.470  0.7276 -0.1635 -0.4981
  106OSM    H7F10861   5.020   5.271   9.518 -0.0952 -1.0379  1.9953
  106OSM    H7G10862   4.844   5.281   9.463 -0.3730 -1.2891  2.6636
  106OSM    C8F10863   4.975   5.161   9.336  0.2533 -0.6607 -0.1731
  106OSM    H8F10864   4.882   5.118   9.294  0.0323 -0.1429 -0.2212
  106OSM    H8G10865   5.052   5.081   9.342  0.9797 -0.2408 -2.9783
  106OSM    C9F10866   5.018   5.267   9.243 -1.0519  0.9686  1.8178
  106OSM    H9F10867   4.948   5.352   9.247 -4.0908 -1.2136 -1.8805
  106OSM   C10F10868   5.137   5.286   9.175 -0.2984  0.1162  0.6118
  106OSM   H10F10869   5.138   5.368   9.102  1.0379 -2.2555 -2.1423
  106OSM   C11F10870   5.259   5.192   9.176  0.4429  0.3564 -0.3197
  106OSM   H11F10871   5.246   5.127   9.265 -1.7495  1.8109  0.4720
  106OSM   H11G10872   5.343   5.257   9.207  0.1269  1.7801 -2.3598
  106OSM   C12F10873   5.298   5.122   9.044 -0.3751  0.5791 -0.1538
  106OSM   H12F10874   5.214   5.053   9.019  0.7747 -1.1135  0.5821
  106OSM   H12G10875   5.378   5.057   9.083  1.7377  2.8686 -0.5665
  106OSM   C13F10876   5.336   5.212   8.926  0.3319 -0.6730  0.4414
  106OSM   H13F10877   5.410   5.282   8.969  0.3116 -0.1086 -0.4270
  106OSM   H13G10878   5.245   5.263   8.889  0.6878  0.2094  0.7787
  106OSM   C14F10879   5.410   5.136   8.812 -0.2286  0.0185 -0.4119
  106OSM   H14F10880   5.462   5.045   8.848  0.4252 -0.2302 -1.9324
  106OSM   H14G10881   5.485   5.203   8.765  0.8532 -0.6099  0.4075
  106OSM   C15F10882   5.311   5.099   8.696 -0.3430  0.1172 -0.3739
  106OSM   H15F10883   5.364   5.026   8.632  0.4441  0.1310  0.2580
  106OSM   H15G10884   5.309   5.192   8.636 -2.7451  0.5382  0.3053
  106OSM   C16F10885   5.172   5.037   8.736  0.1320 -0.5205 -0.3555
  106OSM   H16F10886   5.107   5.115   8.781 -0.8061 -1.4809 -0.0192
  106OSM   H16G10887   5.193   4.952   8.804  0.6171  0.0459  0.2022
  106OSM   C17F10888   5.094   4.994   8.611 -0.0784 -0.3076  0.9124
  106OSM   H17F10889   5.116   5.061   8.525  0.8013  0.1083  1.4471
  106OSM   H17G10890   4.987   4.979   8.636 -0.6994  2.5668  0.1856
  106OSM   C18F10891   5.142   4.861   8.564 -0.3828  0.2288  0.5699
  106OSM   H18F10892   5.097   4.828   8.468  1.8285 -0.3022 -0.3106
  106OSM   H18G10893   5.130   4.782   8.641  1.9915 -1.5469 -0.8040
  106OSM   H18H10894   5.250   4.860   8.537 -0.7041 -1.9057 -0.6829
  107OSM      N10895   1.201   3.629  11.339  0.2435 -0.6033  0.3639
  107OSM    C1510896   1.286   3.658  11.221 -0.7858 -0.1746 -0.7762
  107OSM   H15A10897   1.303   3.765  11.221  0.3224 -0.3505 -1.9994
  107OSM   H15B10898   1.245   3.630  11.125 -2.1893  0.5171 -0.3970
  107OSM   H15C10899   1.385   3.616  11.232 -0.8307 -0.6522 -2.1680
  107OSM    C1410900   1.169   3.486  11.355 -0.7013  0.3011  0.4843
  107OSM   H14A10901   1.260   3.427  11.361 -0.9163  0.0710  1.5054
  107OSM   H14B10902   1.121   3.454  11.263 -1.6033  1.1156  0.6714
  107OSM   H14C10903   1.102   3.467  11.437 -0.7872 -0.0175  0.3408
  107OSM    C1310904   1.272   3.680  11.464 -0.3659 -0.0208  0.1878
  107OSM   H13A10905   1.308   3.781  11.450 -0.8622  0.3140  1.3343
  107OSM   H13B10906   1.362   3.623  11.484 -0.4717  0.2163  1.3953
  107OSM   H13C10907   1.209   3.674  11.551 -0.3646  1.3653  0.3056
  107OSM    C1210908   1.074   3.712  11.328  0.2201  0.0885  0.2273
  107OSM   H12A10909   1.098   3.817  11.317 -0.4350  0.1936 -0.2158
  107OSM   H12B10910   1.027   3.696  11.424  1.4407  0.1617  0.8536
  107OSM    C1110911   0.973   3.682  11.215  0.9505 -0.3863  0.6711
  107OSM   H11A10912   0.878   3.730  11.248  2.0195  2.7883 -0.6655
  107OSM   H11B10913   0.963   3.571  11.221  0.8295 -0.3556  1.0645
  107OSM      P10914   0.973   3.648  10.965 -0.0296 -0.4286  0.4118
  107OSM    O1310915   1.083   3.573  10.913  0.6262 -0.0428  0.4067
  107OSM    O1410916   0.857   3.572  11.009 -0.6396 -0.6855  0.2042
  107OSM    O1110917   0.931   3.773  10.873  0.3848  0.6870 -0.0259
  107OSM    O1210918   1.033   3.730  11.090  0.1426 -0.1605  0.3713
  107OSM    C1S10919   0.988   3.776  10.742  0.9142  0.0153 -0.3752
  107OSM    H1S10920   1.076   3.713  10.718 -0.0413 -0.7229 -2.0632
  107OSM    H1T10921   1.017   3.883  10.735  0.1656  0.3821  1.6387
  107OSM     NF10922   0.951   3.751  10.506 -0.5414 -0.2833 -0.5255
  107OSM    HNF10923   0.952   3.842  10.464  1.2424  1.2945  2.6884
  107OSM    C2S10924   0.882   3.739  10.629 -0.3845 -0.2953 -0.8004
  107OSM    H2S10925   0.846   3.635  10.644 -2.8386  0.7750  1.1476
  107OSM    C3S10926   0.761   3.823  10.635 -0.6694  0.2686  0.5853
  107OSM    H3S10927   0.783   3.923  10.592  2.5752 -1.7645 -2.8496
  107OSM     O310928   0.694   3.845  10.759  0.6718  0.3277 -0.3478
  107OSM    HO310929   0.745   3.793  10.820  0.7506 -0.0083 -0.6981
  107OSM    C4S10930   0.671   3.764  10.530  0.1063 -0.0264  0.0900
  107OSM    H4S10931   0.694   3.809  10.432 -3.8919 -2.2329 -1.9776
  107OSM    C5S10932   0.576   3.668  10.535 -0.2319 -0.1201  0.5940
  107OSM    H5S10933   0.569   3.619  10.633 -1.1578  0.3685  0.7759
  107OSM    C6S10934   0.493   3.616  10.415  0.4814 -0.7159  0.4649
  107OSM    H6S10935   0.383   3.627  10.423  0.6296  0.1423  1.3328
  107OSM    H6T10936   0.507   3.507  10.398 -1.6938 -1.0756  0.8218
  107OSM    C7S10937   0.515   3.680  10.276 -0.4782 -0.0042  0.6286
  107OSM    H7S10938   0.622   3.679  10.244 -1.2501 -0.8924 -2.0371
  107OSM    H7T10939   0.493   3.786  10.303 -0.4174 -0.2382  1.6292
  107OSM    C8S10940   0.410   3.631  10.169 -0.4046 -0.4494  0.3017
  107OSM    H8S10941   0.302   3.653  10.186  0.0821  1.2394  1.2555
  107OSM    H8T10942   0.426   3.521  10.177  0.8397 -0.2707  0.2793
  107OSM    C9S10943   0.469   3.690  10.035 -0.4794  0.5632 -0.5038
  107OSM    H9S10944   0.572   3.649  10.033  0.8815  3.8392 -0.1359
  107OSM    H9T10945   0.488   3.798  10.048 -0.7281  0.6994 -1.2611
  107OSM   C10S10946   0.409   3.645   9.903 -0.4820 -0.2477  0.2268
  107OSM   H10S10947   0.367   3.736   9.856  1.4039  1.0170  0.9184
  107OSM   H10T10948   0.331   3.573   9.935 -0.1428 -1.1970 -1.0148
  107OSM   C11S10949   0.508   3.590   9.793 -0.2646  0.0871  0.0899
  107OSM   H11S10950   0.558   3.496   9.825 -0.3175  0.2179  0.5584
  107OSM   H11T10951   0.587   3.666   9.777  0.4351 -0.6062  0.2542
  107OSM   C12S10952   0.446   3.556   9.662  0.1342 -0.1449 -0.0802
  107OSM   H12S10953   0.379   3.640   9.631 -0.3779 -0.6272 -0.2803
  107OSM   H12T10954   0.380   3.470   9.684  0.4524  0.0338  1.6820
  107OSM   C13S10955   0.533   3.536   9.542 -0.7628  0.3001  1.1683
  107OSM   H13S10956   0.612   3.459   9.551 -1.4082 -0.5159  0.0214
  107OSM   H13T10957   0.585   3.630   9.510  0.6889  0.6564  4.3665
  107OSM   C14S10958   0.448   3.505   9.416  0.1851 -0.3196 -0.5402
  107OSM   H14S10959   0.368   3.582   9.405  1.4929  1.1198 -0.1120
  107OSM   H14T10960   0.396   3.414   9.454  0.7832 -1.3634 -2.1670
  107OSM   C15S10961   0.517   3.487   9.278 -0.2389 -0.0698 -0.4589
  107OSM   H15S10962   0.448   3.456   9.196  0.7771 -0.5449 -1.1321
  107OSM   H15T10963   0.587   3.402   9.277  0.8114  0.7912 -1.6426
  107OSM   C16S10964   0.582   3.617   9.222 -0.4480  0.2635  0.6690
  107OSM   H16S10965   0.682   3.629   9.271  0.3729 -0.8936 -0.6793
  107OSM   H16T10966   0.518   3.702   9.253 -0.0102  0.9327 -0.2408
  107OSM   C17S10967   0.607   3.598   9.073 -0.1166  0.1919  0.3503
  107OSM   H17S10968   0.512   3.584   9.017  1.1357 -0.1014 -1.7545
  107OSM   H17T10969   0.662   3.502   9.062 -2.0358 -1.0329  1.1341
  107OSM   C18S10970   0.682   3.714   9.000  0.5162 -0.0945 -0.1436
  107OSM   H18S10971   0.717   3.679   8.901  0.2504 -3.2830  0.8439
  107OSM   H18T10972   0.767   3.751   9.061  0.5207  2.2082 -1.5018
  107OSM   H18U10973   0.609   3.797   8.999  1.2396  0.5985  1.7693
  107OSM    C1F10974   1.035   3.661  10.458 -0.3740  0.2012 -0.2104
  107OSM     OF10975   1.063   3.566  10.530  0.0495  0.3603  0.0510
  107OSM    C2F10976   1.099   3.688  10.328  0.1463  0.2803  0.0156
  107OSM    H2F10977   1.092   3.796  10.305 -0.0222 -0.1776 -2.1927
  107OSM    H2G10978   1.027   3.640  10.258  1.3220  0.9216 -1.6413
  107OSM    C3F10979   1.240   3.636  10.313  0.3224 -0.4361  0.0349
  107OSM    H3F10980   1.232   3.525  10.308  0.2231 -0.3542 -2.5168
  107OSM    H3G10981   1.301   3.674  10.398 -0.3107  0.4430  0.0970
  107OSM    C4F10982   1.307   3.681  10.182  0.2077 -0.1389  0.1312
  107OSM    H4F10983   1.231   3.676  10.101 -0.7745  2.9426  0.8021
  107OSM    H4G10984   1.390   3.612  10.152 -0.9422 -1.3595 -0.3045
  107OSM    C5F10985   1.366   3.818  10.181 -0.2931 -0.3540  0.9943
  107OSM    H5F10986   1.446   3.803  10.256 -1.0254 -0.6578  1.7163
  107OSM    H5G10987   1.290   3.889  10.220  0.1890  0.8621 -0.2096
  107OSM    C6F10988   1.412   3.852  10.033  0.4218 -0.3713 -1.2986
  107OSM    H6F10989   1.323   3.847   9.968  1.2072 -1.5089 -2.3094
  107OSM    H6G10990   1.485   3.784   9.984  0.9143 -0.8199  0.0109
  107OSM    C7F10991   1.470   3.997  10.022 -0.1059 -0.8224  0.9171
  107OSM    H7F10992   1.554   3.995   9.950 -1.4524 -0.4633 -0.6952
  107OSM    H7G10993   1.530   4.029  10.110  1.8676  0.0182 -0.7007
  107OSM    C8F10994   1.358   4.094   9.966  0.1138 -0.2660 -0.3652
  107OSM    H8F10995   1.290   4.111  10.052 -2.2604 -0.7878 -2.0839
  107OSM    H8G10996   1.314   4.035   9.884  2.5745 -0.1910 -1.7809
  107OSM    C9F10997   1.422   4.227   9.918 -0.2256  0.0872 -0.1577
  107OSM    H9F10998   1.487   4.277   9.991  1.1368  0.2076 -1.4203
  107OSM   C10F10999   1.434   4.277   9.797 -0.3222  0.5857 -0.2919
  107OSM   H10F11000   1.491   4.369   9.774  1.0368  0.0575  0.9097
  107OSM   C11F11001   1.384   4.215   9.670 -0.4932 -0.4097  0.0187
  107OSM   H11F11002   1.294   4.271   9.636  0.4054  0.0955 -1.5337
  107OSM   H11G11003   1.351   4.110   9.682  1.6105 -1.0784  0.0879
  107OSM   C12F11004   1.493   4.218   9.570 -0.4123 -0.2973 -0.0577
  107OSM   H12F11005   1.465   4.139   9.497  0.7238 -0.4406 -0.3589
  107OSM   H12G11006   1.590   4.181   9.610 -0.9311 -2.3453 -0.6217
  107OSM   C13F11007   1.526   4.349   9.490 -0.1661 -0.6944 -1.0328
  107OSM   H13F11008   1.562   4.431   9.556  2.4007 -1.6982 -1.1570
  107OSM   H13G11009   1.424   4.377   9.453 -0.5089 -0.7998 -0.1654
  107OSM   C14F11010   1.610   4.340   9.358  0.3574 -0.1315  0.5555
  107OSM   H14F11011   1.545   4.302   9.276 -0.5189  1.1605  0.6481
  107OSM   H14G11012   1.689   4.263   9.373  0.0797 -0.7951 -1.2565
  107OSM   C15F11013   1.660   4.473   9.314 -0.0497  0.6230  0.6104
  107OSM   H15F11014   1.731   4.511   9.389  2.4586 -0.6684 -1.0475
  107OSM   H15G11015   1.578   4.547   9.297  1.3461  1.8282 -1.0787
  107OSM   C16F11016   1.733   4.469   9.178 -0.2683  0.4573 -0.7180
  107OSM   H16F11017   1.791   4.374   9.184 -1.7415 -0.4504 -0.5770
  107OSM   H16G11018   1.818   4.541   9.175 -1.7696  2.2634 -0.6498
  107OSM   C17F11019   1.645   4.483   9.054  0.2457  0.3628  0.1125
  107OSM   H17F11020   1.574   4.567   9.073  0.5562  0.7141 -0.2627
  107OSM   H17G11021   1.586   4.390   9.042  1.1615 -0.1997  0.0091
  107OSM   C18F11022   1.724   4.522   8.920  0.1318  0.1649  0.4333
  107OSM   H18F11023   1.676   4.470   8.835  1.0476 -0.1250  0.0984
  107OSM   H18G11024   1.829   4.490   8.933  0.0460  0.6341  2.5171
  107OSM   H18H11025   1.737   4.631   8.901 -0.5671 -0.0785 -1.5711
  108OSM      N11026   4.507   5.147  10.623 -0.5378  0.2778 -0.6133
  108OSM    C1511027   4.550   5.252  10.530 -0.5900  0.2104 -0.1700
  108OSM   H15A11028   4.601   5.211  10.444 -0.0903 -0.5297  0.4684
  108OSM   H15B11029   4.610   5.328  10.578  0.2757  0.3299 -1.4143
  108OSM   H15C11030   4.470   5.314  10.493  1.4045  2.8091 -0.2588
  108OSM    C1411031   4.444   5.214  10.735 -0.5933 -0.0202 -0.0313
  108OSM   H14A11032   4.360   5.274  10.704  0.9706  1.8056 -0.8185
  108OSM   H14B11033   4.510   5.271  10.800  0.7878 -0.0944 -1.3606
  108OSM   H14C11034   4.402   5.140  10.802 -0.3845 -0.2844 -0.1962
  108OSM    C1311035   4.413   5.062  10.556 -0.4907 -0.0707  0.8349
  108OSM   H13A11036   4.331   5.116  10.511  0.8246 -0.0742 -1.6418
  108OSM   H13B11037   4.379   4.976  10.612 -0.7456 -1.0397 -0.7718
  108OSM   H13C11038   4.464   5.023  10.469 -0.4135  1.0179  0.3910
  108OSM    C1211039   4.632   5.068  10.678  0.0245 -0.2365 -0.3192
  108OSM   H12A11040   4.692   5.134  10.739 -1.0557  0.2181  0.2543
  108OSM   H12B11041   4.694   5.037  10.595 -1.2317 -0.1326 -1.3186
  108OSM    C1111042   4.606   4.946  10.768  1.1863 -0.0490 -0.3617
  108OSM   H11A11043   4.537   4.970  10.851  1.9890  0.2804  0.2140
  108OSM   H11B11044   4.693   4.918  10.832  1.0786 -1.2905 -0.7396
  108OSM      P11045   4.643   4.740  10.612 -0.3024  0.2985  0.2000
  108OSM    O1311046   4.673   4.793  10.479  0.3991  0.4893 -0.2078
  108OSM    O1411047   4.757   4.707  10.698 -0.1553  0.3693  0.2019
  108OSM    O1111048   4.570   4.599  10.597  0.1611 -0.6928  0.3835
  108OSM    O1211049   4.547   4.835  10.698 -0.6970 -0.2412  0.2932
  108OSM    C1S11050   4.431   4.583  10.581 -0.9657  0.9543 -0.0119
  108OSM    H1S11051   4.381   4.670  10.629  1.5067  0.9515  2.7682
  108OSM    H1T11052   4.392   4.490  10.628 -0.4297  1.3283  1.2169
  108OSM     NF11053   4.236   4.582  10.431 -0.3580  0.6522 -0.7535
  108OSM    HNF11054   4.184   4.501  10.406 -1.5827  1.0745  0.3707
  108OSM    C2S11055   4.384   4.578  10.436  0.0199  0.0526  0.2176
  108OSM    H2S11056   4.417   4.670  10.384 -1.2205 -0.4664 -1.5326
  108OSM    C3S11057   4.447   4.457  10.363  0.3845 -0.4147  0.1701
  108OSM    H3S11058   4.417   4.360  10.409  1.6404  0.0485  2.0309
  108OSM     O311059   4.591   4.460  10.380  0.0678 -0.4950 -0.5389
  108OSM    HO311060   4.598   4.527  10.447 -2.5944 -0.5729 -0.1073
  108OSM    C4S11061   4.407   4.468  10.215  0.3786 -0.5033 -0.2265
  108OSM    H4S11062   4.455   4.536  10.143 -0.6289 -0.4109 -0.8184
  108OSM    C5S11063   4.300   4.397  10.165 -0.5725 -0.1418 -0.2884
  108OSM    H5S11064   4.237   4.346  10.239 -0.6304 -1.4495 -1.2235
  108OSM    C6S11065   4.240   4.393  10.021 -0.0663 -0.3540  0.2608
  108OSM    H6S11066   4.129   4.404  10.017 -0.2543 -2.5109 -1.8381
  108OSM    H6T11067   4.270   4.291   9.989 -1.2067 -0.1285 -1.5414
  108OSM    C7S11068   4.296   4.491   9.914 -0.5983 -0.1269  0.4793
  108OSM    H7S11069   4.405   4.471   9.909 -0.7733 -0.6866 -1.4815
  108OSM    H7T11070   4.276   4.596   9.943 -0.5208 -0.2030  0.8147
  108OSM    C8S11071   4.241   4.472   9.770  0.0571  0.6764  0.0990
  108OSM    H8S11072   4.305   4.545   9.715 -2.3475  0.1108 -3.6661
  108OSM    H8T11073   4.134   4.505   9.772 -0.7071 -1.6135 -1.0040
  108OSM    C9S11074   4.250   4.327   9.717  0.7246 -0.0139 -0.4157
  108OSM    H9S11075   4.181   4.260   9.772  1.2612 -0.8571 -0.7606
  108OSM    H9T11076   4.350   4.286   9.742  0.9288  0.6637 -0.0900
  108OSM   C10S11077   4.206   4.315   9.570 -0.2382 -0.6842  0.7521
  108OSM   H10S11078   4.104   4.358   9.560  1.0710  1.8657 -2.3908
  108OSM   H10T11079   4.195   4.207   9.544 -1.4037 -0.6668  1.1734
  108OSM   C11S11080   4.299   4.376   9.467  0.1933  0.6818  0.5074
  108OSM   H11S11081   4.392   4.317   9.477 -0.8105 -1.0912 -0.3634
  108OSM   H11T11082   4.310   4.483   9.497  1.1193  0.9192 -0.6631
  108OSM   C12S11083   4.241   4.364   9.321  1.1200 -0.1950  0.0244
  108OSM   H12S11084   4.296   4.440   9.261  0.8370  0.1735  0.2290
  108OSM   H12T11085   4.135   4.396   9.332  1.3987  0.5791  0.5255
  108OSM   C13S11086   4.254   4.227   9.261 -0.5381  0.3763 -0.2850
  108OSM   H13S11087   4.203   4.160   9.334  0.9789  0.0388  0.4893
  108OSM   H13T11088   4.362   4.205   9.250 -0.5260 -0.6073  1.5061
  108OSM   C14S11089   4.191   4.214   9.114 -0.6560  0.4751 -0.0625
  108OSM   H14S11090   4.080   4.208   9.115 -0.5727 -1.7787  2.0507
  108OSM   H14T11091   4.214   4.111   9.078 -1.1143 -0.2193  1.5749
  108OSM   C15S11092   4.229   4.332   9.015  0.8026 -0.2825  1.0751
  108OSM   H15S11093   4.337   4.320   8.989  0.0027 -3.2509 -1.1808
  108OSM   H15T11094   4.205   4.430   9.061  0.5671 -0.6385  1.7098
  108OSM   C16S11095   4.137   4.315   8.890 -0.0869 -0.1696 -0.6025
  108OSM   H16S11096   4.034   4.331   8.928  1.2825  4.6345  1.3851
  108OSM   H16T11097   4.156   4.214   8.847  0.2313  0.4367 -1.9019
  108OSM   C17S11098   4.160   4.422   8.783 -0.6449  0.3919  0.3520
  108OSM   H17S11099   4.118   4.520   8.813  1.0774  2.0511 -2.4381
  108OSM   H17T11100   4.105   4.389   8.692  0.3053  0.9523 -0.4288
  108OSM   C18S11101   4.312   4.447   8.756 -0.0374  0.6115 -0.4779
  108OSM   H18S11102   4.358   4.347   8.751 -1.2535  0.0858 -1.3862
  108OSM   H18T11103   4.358   4.502   8.841  1.0299 -0.5909 -0.2645
  108OSM   H18U11104   4.322   4.502   8.659 -2.3218 -0.1715 -1.1885
  108OSM    C1F11105   4.172   4.700  10.457  0.5567  0.0556  0.3811
  108OSM     OF11106   4.238   4.799  10.480  0.1275  0.2972 -0.7593
  108OSM    C2F11107   4.023   4.697  10.462  0.1835  0.5421 -0.0214
  108OSM    H2F11108   3.982   4.748  10.552  0.0025  1.9578 -0.8765
  108OSM    H2G11109   3.986   4.593  10.461 -1.2981  1.0553  0.6882
  108OSM    C3F11110   3.964   4.770  10.338  0.1427  0.2071  0.0794
  108OSM    H3F11111   3.994   4.876  10.337 -1.2232  0.6325  1.4403
  108OSM    H3G11112   3.853   4.771  10.349 -0.2708 -1.5767 -3.1968
  108OSM    C4F11113   3.988   4.702  10.201 -0.0152 -0.1045  0.3896
  108OSM    H4F11114   3.965   4.594  10.206  1.4456 -0.5478 -1.6735
  108OSM    H4G11115   4.096   4.703  10.174 -0.5385  0.2068 -1.7861
  108OSM    C5F11116   3.914   4.780  10.089  0.4950 -0.2079 -0.4459
  108OSM    H5F11117   3.938   4.889  10.098 -1.1159 -0.1745  5.0113
  108OSM    H5G11118   3.805   4.768  10.100  0.8666 -3.5804 -0.0877
  108OSM    C6F11119   3.962   4.720   9.951 -0.4599  0.5061 -0.1809
  108OSM    H6F11120   3.943   4.611   9.952 -0.1085  0.4478  3.2556
  108OSM    H6G11121   4.067   4.752   9.933 -0.4791  0.6308 -0.0686
  108OSM    C7F11122   3.874   4.776   9.834 -0.3099 -0.0134 -0.2875
  108OSM    H7F11123   3.890   4.886   9.839 -0.0107  0.0747 -2.6701
  108OSM    H7G11124   3.766   4.754   9.839  0.0739 -2.2029 -1.1249
  108OSM    C8F11125   3.919   4.739   9.689 -0.0884 -0.7731  0.4848
  108OSM    H8F11126   3.861   4.796   9.613 -0.2848 -1.0680  0.4128
  108OSM    H8G11127   3.913   4.629   9.669 -0.4714 -0.3218 -2.0985
  108OSM    C9F11128   4.064   4.779   9.663  0.5393 -0.5485 -0.6126
  108OSM    H9F11129   4.127   4.764   9.752  0.2163  1.6660  0.0307
  108OSM   C10F11130   4.120   4.816   9.544 -0.1517  0.4305 -0.0559
  108OSM   H10F11131   4.229   4.831   9.544 -0.0539 -0.2525 -0.6545
  108OSM   C11F11132   4.052   4.835   9.411 -0.5733 -0.3830 -0.6086
  108OSM   H11F11133   4.045   4.945   9.397 -0.5832 -0.0202  2.0948
  108OSM   H11G11134   3.946   4.801   9.416 -1.6081  2.6155 -0.7600
  108OSM   C12F11135   4.116   4.775   9.286  0.3856  0.5993 -0.0945
  108OSM   H12F11136   4.044   4.778   9.202 -1.5723 -1.3800  1.4517
  108OSM   H12G11137   4.130   4.667   9.310  0.2787  0.2591 -1.5116
  108OSM   C13F11138   4.244   4.839   9.232 -0.3047  0.5344  0.2694
  108OSM   H13F11139   4.325   4.853   9.307 -0.1152  0.1615  0.1336
  108OSM   H13G11140   4.212   4.936   9.190 -0.6726  0.7120  0.9602
  108OSM   C14F11141   4.309   4.763   9.104 -0.0491 -0.2860 -0.1037
  108OSM   H14F11142   4.226   4.721   9.044  0.9961 -3.7365  0.7432
  108OSM   H14G11143   4.375   4.677   9.129  2.1404  0.9518 -1.4661
  108OSM   C15F11144   4.398   4.850   9.004 -0.0340  0.5162  0.6773
  108OSM   H15F11145   4.478   4.899   9.065 -0.4610  0.6961  1.0937
  108OSM   H15G11146   4.342   4.938   8.965 -1.7218 -1.5988 -1.7883
  108OSM   C16F11147   4.458   4.772   8.885  0.3496  0.3200 -0.4794
  108OSM   H16F11148   4.372   4.735   8.826 -0.5100  0.4086  0.7093
  108OSM   H16G11149   4.532   4.699   8.927  1.9923  1.5250 -1.2094
  108OSM   C17F11150   4.550   4.858   8.797 -0.8003  0.2423  0.2921
  108OSM   H17F11151   4.643   4.888   8.850  0.6821 -0.5628 -1.8079
  108OSM   H17G11152   4.492   4.951   8.779 -0.7316 -0.3871 -3.7097
  108OSM   C18F11153   4.584   4.788   8.672 -0.1504 -0.3487  0.5065
  108OSM   H18F11154   4.622   4.867   8.604  1.5874  0.0828  1.9124
  108OSM   H18G11155   4.497   4.742   8.622 -1.2884  1.9969  0.2520
  108OSM   H18H11156   4.662   4.711   8.684  0.1256 -0.2191 -0.4430
  109OSM      N11157   3.427   2.887  10.765 -0.3177  0.2250  0.0341
  109OSM    C1511158   3.518   2.833  10.651  0.0313 -0.3391 -0.3464
  109OSM   H15A11159   3.548   2.731  10.664 -2.5454 -1.0954 -0.0020
  109OSM   H15B11160   3.601   2.899  10.628 -1.1104  1.6003  0.9416
  109OSM   H15C11161   3.457   2.838  10.562 -0.0835 -0.7818 -0.2914
  109OSM    C1411162   3.391   3.029  10.748  0.1257  0.0972  0.1843
  109OSM   H14A11163   3.311   3.069  10.809  0.3324 -1.8354  1.7900
  109OSM   H14B11164   3.366   3.046  10.645  0.5427 -0.7082 -0.0564
  109OSM   H14C11165   3.477   3.088  10.774 -0.0753 -0.6604  2.7400
  109OSM    C1311166   3.298   2.804  10.759  0.6851  0.4522 -0.3018
  109OSM   H13A11167   3.248   2.808  10.664 -1.2012  1.8430  0.6888
  109OSM   H13B11168   3.229   2.840  10.835  1.6574  1.7029 -0.0016
  109OSM   H13C11169   3.316   2.702  10.789  0.7518  0.0789 -1.6211
  109OSM    C1211170   3.488   2.852  10.899  0.3259  0.1841 -0.0819
  109OSM   H12A11171   3.514   2.747  10.893  2.0827  0.7451 -2.6655
  109OSM   H12B11172   3.411   2.853  10.975  1.5969 -0.1695  1.2554
  109OSM    C1111173   3.609   2.945  10.946  0.0036 -0.3049 -0.5245
  109OSM   H11A11174   3.683   2.958  10.864  0.4138  0.2642 -0.0737
  109OSM   H11B11175   3.651   2.882  11.028 -0.0780  0.0394 -0.2136
  109OSM      P11176   3.645   3.203  10.985 -0.0573 -0.5271 -0.1469
  109OSM    O1311177   3.561   3.314  11.033 -0.4687  0.2472  0.7272
  109OSM    O1411178   3.774   3.178  11.054 -0.2093  0.1890 -0.0188
  109OSM    O1111179   3.668   3.212  10.828 -0.5877 -0.4524  0.0698
  109OSM    O1211180   3.561   3.069  11.004 -0.0578 -0.3818  0.2357
  109OSM    C1S11181   3.798   3.210  10.773 -0.3478 -0.6520 -0.4395
  109OSM    H1S11182   3.855   3.125  10.817  0.3995 -0.8785 -1.8188
  109OSM    H1T11183   3.853   3.302  10.803 -0.8988  0.3186 -2.3196
  109OSM     NF11184   3.938   3.159  10.591  0.6692  0.0250  0.5006
  109OSM    HNF11185   3.999   3.237  10.577  0.0546  0.2066 -1.3131
  109OSM    C2S11186   3.801   3.190  10.625 -0.1255 -0.7833  0.5023
  109OSM    H2S11187   3.735   3.103  10.599  0.1740 -0.2439 -2.2656
  109OSM    C3S11188   3.741   3.309  10.550  0.2587  0.1234  0.5894
  109OSM    H3S11189   3.820   3.387  10.546  2.4156 -1.9316  1.2995
  109OSM     O311190   3.617   3.360  10.606 -0.2799 -0.5939 -0.1651
  109OSM    HO311191   3.616   3.322  10.694  0.5106 -2.1734 -0.8155
  109OSM    C4S11192   3.719   3.262  10.404 -0.6189 -0.2075  0.4632
  109OSM    H4S11193   3.624   3.212  10.383 -1.6794  1.5022  1.1064
  109OSM    C5S11194   3.801   3.289  10.300 -0.4679  0.3758  0.0096
  109OSM    H5S11195   3.888   3.354  10.317 -0.3388  0.1737  0.1262
  109OSM    C6S11196   3.764   3.247  10.161 -0.4114  0.6813  0.6126
  109OSM    H6S11197   3.783   3.335  10.095 -0.1514 -0.9614 -1.5325
  109OSM    H6T11198   3.662   3.209  10.136  0.4123 -0.0907 -1.7153
  109OSM    C7S11199   3.868   3.134  10.123  0.2848  1.0636 -0.1071
  109OSM    H7S11200   3.876   3.045  10.189 -0.1235  1.3091  0.2812
  109OSM    H7T11201   3.972   3.173  10.119  0.9745 -0.6727  0.5823
  109OSM    C8S11202   3.843   3.071   9.986  0.3042 -0.7199  0.2270
  109OSM    H8S11203   3.929   3.016   9.944 -0.1670 -0.9695 -0.4134
  109OSM    H8T11204   3.837   3.160   9.921  0.1019 -0.3890  0.6934
  109OSM    C9S11205   3.719   2.987   9.974 -0.5511  1.0872 -0.0884
  109OSM    H9S11206   3.634   3.046  10.013 -1.7934 -0.2296 -0.7169
  109OSM    H9T11207   3.742   2.898  10.036  1.5908  2.0117  0.4568
  109OSM   C10S11208   3.687   2.946   9.831 -0.3809 -0.6140  0.2188
  109OSM   H10S11209   3.681   3.039   9.769 -1.3748 -0.9648 -0.2122
  109OSM   H10T11210   3.587   2.899   9.823 -0.2815 -0.4631 -2.6164
  109OSM   C11S11211   3.787   2.849   9.767  0.1710 -0.0483 -0.3985
  109OSM   H11S11212   3.794   2.763   9.838 -0.5724 -0.5897 -0.9650
  109OSM   H11T11213   3.889   2.890   9.760 -0.4488  1.7225  0.6675
  109OSM   C12S11214   3.747   2.808   9.623 -0.4005 -0.3228  0.0648
  109OSM   H12S11215   3.736   2.899   9.560 -2.0883  0.1424  0.9858
  109OSM   H12T11216   3.644   2.767   9.625 -0.1089 -1.0646  0.1269
  109OSM   C13S11217   3.855   2.714   9.561 -0.1578 -0.0835 -0.3128
  109OSM   H13S11218   3.882   2.633   9.632 -1.9540 -0.5003 -0.1008
  109OSM   H13T11219   3.946   2.777   9.549 -1.1216  0.9814 -2.1718
  109OSM   C14S11220   3.810   2.654   9.430  0.5635  0.0448 -0.1133
  109OSM   H14S11221   3.800   2.748   9.371 -1.2120  1.4225  2.2735
  109OSM   H14T11222   3.712   2.609   9.455  0.0426  1.1588 -0.0853
  109OSM   C15S11223   3.907   2.565   9.354  0.7413 -0.5569 -0.3589
  109OSM   H15S11224   3.923   2.469   9.407 -3.4337 -0.2915  1.6213
  109OSM   H15T11225   4.008   2.610   9.342  0.5832 -0.1471 -0.1624
  109OSM   C16S11226   3.839   2.530   9.217 -0.0195  0.6539  0.0688
  109OSM   H16S11227   3.787   2.622   9.181  0.3261  1.2695  1.0913
  109OSM   H16T11228   3.765   2.452   9.241  4.0977 -2.6647  2.6030
  109OSM   C17S11229   3.940   2.480   9.117 -0.3140 -0.5910  0.2876
  109OSM   H17S11230   3.973   2.386   9.166 -0.9275 -0.1693  1.5394
  109OSM   H17T11231   4.030   2.545   9.119 -1.7548  1.4185  1.7052
  109OSM   C18S11232   3.880   2.464   8.977  0.1455 -0.9940  0.0350
  109OSM   H18S11233   3.819   2.553   8.951 -0.3921 -1.3971 -0.0921
  109OSM   H18T11234   3.815   2.375   8.970 -1.9322  0.4061  1.1712
  109OSM   H18U11235   3.956   2.453   8.897 -1.3412 -2.0827 -1.2377
  109OSM    C1F11236   3.993   3.040  10.618 -0.0317  0.9751 -0.2481
  109OSM     OF11237   3.921   2.949  10.652  0.1158 -0.1283  0.5990
  109OSM    C2F11238   4.138   3.031  10.603 -0.5350 -0.4579 -0.4630
  109OSM    H2F11239   4.182   2.972  10.686 -0.6243 -2.2889 -1.6699
  109OSM    H2G11240   4.190   3.129  10.595  2.1122 -1.9849 -3.0695
  109OSM    C3F11241   4.176   2.950  10.471 -0.5902 -0.1506  0.0652
  109OSM    H3F11242   4.116   2.856  10.471 -2.4570  1.0223 -0.9347
  109OSM    H3G11243   4.285   2.927  10.468 -0.4100  0.7898 -0.7092
  109OSM    C4F11244   4.146   3.002  10.340  0.1783  0.0419  0.7280
  109OSM    H4F11245   4.161   3.112  10.341  1.4278 -0.0282 -3.1252
  109OSM    H4G11246   4.037   2.989  10.321  0.2237  1.0149 -0.2683
  109OSM    C5F11247   4.233   2.936  10.230 -0.4300 -0.0054 -0.4275
  109OSM    H5F11248   4.211   2.827  10.223 -0.7133  0.2287 -4.1307
  109OSM    H5G11249   4.339   2.963  10.248 -0.4666  0.6416 -1.1551
  109OSM    C6F11250   4.202   2.997  10.088 -0.3135 -0.4102  1.0744
  109OSM    H6F11251   4.198   3.108  10.091  0.4661 -0.3421 -0.3067
  109OSM    H6G11252   4.106   2.954  10.054  0.2689 -1.4765  0.7608
  109OSM    C7F11253   4.318   2.957   9.986 -0.5606 -0.2819 -0.1710
  109OSM    H7F11254   4.409   2.998  10.034 -0.6393 -2.0275  1.4979
  109OSM    H7G11255   4.295   3.014   9.893 -1.9435 -0.1152  0.2677
  109OSM    C8F11256   4.320   2.809   9.971  1.1624  0.0280 -0.4981
  109OSM    H8F11257   4.317   2.756  10.069  0.5008  1.2417  0.1478
  109OSM    H8G11258   4.420   2.790   9.925  0.0156 -2.6249 -2.0624
  109OSM    C9F11259   4.206   2.742   9.898  0.0199  0.1646 -0.0424
  109OSM    H9F11260   4.124   2.696   9.955 -0.7052 -0.7270 -1.7475
  109OSM   C10F11261   4.193   2.752   9.762  0.2859  0.5070 -0.6532
  109OSM   H10F11262   4.117   2.686   9.718 -0.2757 -1.1899  2.7214
  109OSM   C11F11263   4.285   2.820   9.662  0.4206 -0.6398  0.0017
  109OSM   H11F11264   4.324   2.746   9.590 -0.9054 -0.4261 -0.9490
  109OSM   H11G11265   4.381   2.854   9.708  1.0974 -1.1954 -0.9710
  109OSM   C12F11266   4.230   2.917   9.554 -0.0949  0.7205  0.6233
  109OSM   H12F11267   4.321   2.975   9.527  0.4017 -1.6717 -3.1487
  109OSM   H12G11268   4.157   2.983   9.607  1.1477  2.5481  0.1130
  109OSM   C13F11269   4.178   2.837   9.425  0.5939 -0.1352  0.5850
  109OSM   H13F11270   4.106   2.904   9.373  2.4395  0.3083 -1.4553
  109OSM   H13G11271   4.120   2.747   9.455  0.8688 -1.0942 -1.7185
  109OSM   C14F11272   4.287   2.799   9.334  0.1215 -0.2342  0.9117
  109OSM   H14F11273   4.366   2.733   9.376  0.7957 -0.5604 -0.8024
  109OSM   H14G11274   4.358   2.879   9.303  0.0214 -1.2358 -2.0933
  109OSM   C15F11275   4.232   2.737   9.199 -0.3640 -0.3206 -0.6876
  109OSM   H15F11276   4.158   2.805   9.153  0.4194  1.5085  0.6924
  109OSM   H15G11277   4.179   2.649   9.243 -1.0997  0.2948 -0.3375
  109OSM   C16F11278   4.344   2.708   9.102 -0.4746  0.0900  0.6194
  109OSM   H16F11279   4.413   2.630   9.139 -0.0212  0.1244 -0.1620
  109OSM   H16G11280   4.399   2.801   9.077 -1.0386  0.0635 -0.7614
  109OSM   C17F11281   4.292   2.653   8.967  0.2836  0.6408  0.6390
  109OSM   H17F11282   4.215   2.719   8.921 -0.8721 -2.4788 -2.1790
  109OSM   H17G11283   4.236   2.558   8.980 -0.0839  0.6598 -0.7143
  109OSM   C18F11284   4.409   2.640   8.868 -0.2811 -0.2891 -0.3784
  109OSM   H18F11285   4.491   2.593   8.927  0.9674  0.2170 -1.6668
  109OSM   H18G11286   4.442   2.736   8.824  0.4703 -0.8381 -1.0290
  109OSM   H18H11287   4.383   2.563   8.793  0.0660 -0.5714 -0.2104
  110OSM      N11288   4.337   1.103  11.166 -0.4170 -0.1781  0.6244
  110OSM    C1511289   4.340   0.956  11.174 -0.1998  0.1755 -0.2402
  110OSM   H15A11290   4.240   0.916  11.187 -0.7121  0.6152 -2.6806
  110OSM   H15B11291   4.396   0.928  11.263 -1.5040  0.6713  0.7545
  110OSM   H15C11292   4.386   0.908  11.089  3.1923  0.1342  1.5399
  110OSM    C1411293   4.240   1.140  11.055  0.3436 -0.6141 -0.2381
  110OSM   H14A11294   4.225   1.247  11.045 -1.2205 -0.7497  0.5554
  110OSM   H14B11295   4.142   1.103  11.081 -0.0174 -1.0666 -2.1588
  110OSM   H14C11296   4.278   1.090  10.967 -0.8370  0.1864 -1.2326
  110OSM    C1311297   4.282   1.152  11.291  0.1810 -0.4610 -0.6011
  110OSM   H13A11298   4.174   1.147  11.297  0.1525  0.2487 -0.3678
  110OSM   H13B11299   4.328   1.246  11.320 -0.3890 -0.1218 -0.7775
  110OSM   H13C11300   4.311   1.083  11.368 -1.3549  1.4261  1.7424
  110OSM    C1211301   4.470   1.161  11.139 -0.5665  0.1121 -0.0720
  110OSM   H12A11302   4.528   1.142  11.228 -0.2683 -2.2909 -0.7428
  110OSM   H12B11303   4.462   1.269  11.148  0.8901  0.0826  1.8292
  110OSM    C1111304   4.559   1.107  11.013  0.2297 -1.0179 -0.0945
  110OSM   H11A11305   4.647   1.175  11.015 -0.9615  0.5035  1.8639
  110OSM   H11B11306   4.493   1.128  10.926  0.6312 -0.7265 -0.3347
  110OSM      P11307   4.713   0.927  11.101 -0.2536  0.1129 -0.1491
  110OSM    O1311308   4.724   1.016  11.215  0.7488  0.2198 -0.0706
  110OSM    O1411309   4.707   0.776  11.120  0.2341 -0.0298 -0.2173
  110OSM    O1111310   4.827   0.970  10.997 -0.4804  0.4736 -0.1841
  110OSM    O1211311   4.585   0.966  11.018  0.1767 -0.5324 -0.2305
  110OSM    C1S11312   4.824   0.915  10.863  0.3922  0.1921  0.2978
  110OSM    H1S11313   4.740   0.843  10.851 -0.8746  1.0847  3.3001
  110OSM    H1T11314   4.917   0.860  10.837 -0.0119 -0.8295  0.9413
  110OSM     NF11315   4.840   0.957  10.615 -0.6511 -0.0255 -0.2801
  110OSM    HNF11316   4.937   0.961  10.592 -0.8371 -2.2448 -1.6250
  110OSM    C2S11317   4.816   1.021  10.751 -0.1116 -0.1729  0.8248
  110OSM    H2S11318   4.714   1.064  10.738  0.1400 -0.5011 -3.0763
  110OSM    C3S11319   4.912   1.144  10.772  0.0669  0.0836 -0.0662
  110OSM    H3S11320   5.021   1.128  10.775 -0.1245 -1.9987 -2.7167
  110OSM     O311321   4.896   1.202  10.905 -0.1537  0.1683  0.0426
  110OSM    HO311322   4.877   1.132  10.969 -1.8666  0.6015  0.0546
  110OSM    C4S11323   4.893   1.244  10.663  0.7986 -0.1514  0.1274
  110OSM    H4S11324   4.793   1.290  10.654 -0.4805 -2.4242  2.2014
  110OSM    C5S11325   4.982   1.275  10.558  0.4973  0.6765 -0.1843
  110OSM    H5S11326   5.077   1.223  10.542  0.4491  0.1068  1.3059
  110OSM    C6S11327   4.959   1.382  10.453 -0.6848  0.4717  0.0252
  110OSM    H6S11328   5.033   1.463  10.466  1.4396 -1.3840 -0.2892
  110OSM    H6T11329   4.855   1.422  10.451 -0.6081  0.6298 -0.9753
  110OSM    C7S11330   4.970   1.320  10.312 -0.6029 -0.1691  0.2222
  110OSM    H7S11331   4.893   1.241  10.303 -0.3659 -0.5412  1.3849
  110OSM    H7T11332   5.067   1.267  10.300  0.1632  1.7594 -2.5597
  110OSM    C8S11333   4.958   1.427  10.203  1.1069  0.8261  0.0214
  110OSM    H8S11334   5.032   1.510  10.216 -0.2961  2.4630 -2.1558
  110OSM    H8T11335   4.854   1.466  10.205  0.2592 -1.3694 -0.1930
  110OSM    C9S11336   4.977   1.374  10.063  0.0077  0.3325  1.0015
  110OSM    H9S11337   4.893   1.303  10.044  1.7354 -0.7814 -3.0093
  110OSM    H9T11338   5.072   1.316  10.058  0.3528  1.0237 -0.5865
  110OSM   C10S11339   4.990   1.482   9.952  0.7271 -0.1926 -0.7174
  110OSM   H10S11340   5.014   1.426   9.859 -0.6625  0.1079 -1.2768
  110OSM   H10T11341   5.081   1.542   9.972 -0.7873  1.8841  0.1269
  110OSM   C11S11342   4.860   1.558   9.933  0.0460 -0.5373 -0.1827
  110OSM   H11S11343   4.812   1.598  10.025 -0.7984 -4.0440  0.9763
  110OSM   H11T11344   4.789   1.479   9.902  0.5125 -0.6796 -0.8897
  110OSM   C12S11345   4.862   1.662   9.824  0.1761  0.1167 -0.8525
  110OSM   H12S11346   4.945   1.734   9.841  1.4732 -1.2012 -1.4431
  110OSM   H12T11347   4.769   1.722   9.816 -0.2608 -0.4996 -0.4668
  110OSM   C13S11348   4.882   1.605   9.682 -0.5557  0.4286  0.2470
  110OSM   H13S11349   4.821   1.518   9.651  1.4122 -1.8779  2.6488
  110OSM   H13T11350   4.988   1.573   9.679 -0.7512 -0.1518 -0.3281
  110OSM   C14S11351   4.866   1.712   9.569 -0.3397  0.1912  0.6181
  110OSM   H14S11352   4.939   1.793   9.590  0.8321 -0.4044 -1.0382
  110OSM   H14T11353   4.764   1.756   9.571 -0.9400 -1.0224 -1.7129
  110OSM   C15S11354   4.896   1.650   9.433  1.4930 -0.2125  0.7063
  110OSM   H15S11355   4.802   1.596   9.407 -0.5969  2.2020  2.9411
  110OSM   H15T11356   4.980   1.578   9.435  0.2840 -1.7919 -2.3910
  110OSM   C16S11357   4.920   1.746   9.312  0.8708  0.1752 -0.2566
  110OSM   H16S11358   4.847   1.828   9.299  1.3568  0.4146 -1.4804
  110OSM   H16T11359   4.911   1.671   9.231  3.2661  1.9809 -2.2475
  110OSM   C17S11360   5.050   1.823   9.309 -0.1511 -0.3781  0.0097
  110OSM   H17S11361   5.133   1.774   9.365  0.7361  3.3455  2.1629
  110OSM   H17T11362   5.042   1.917   9.368  1.0148 -1.5469  2.0974
  110OSM   C18S11363   5.088   1.831   9.163 -0.9805  0.1975  0.3726
  110OSM   H18S11364   5.095   1.726   9.128  0.2438  0.1085  0.8578
  110OSM   H18T11365   5.188   1.879   9.157 -0.5257 -0.9547 -1.6026
  110OSM   H18U11366   5.025   1.888   9.091  1.5451  3.7764  0.8826
  110OSM    C1F11367   4.752   0.872  10.551  0.3809  0.1222 -0.6949
  110OSM     OF11368   4.653   0.824  10.608 -0.1459 -0.1134 -0.7459
  110OSM    C2F11369   4.780   0.838  10.404 -0.3172 -0.1032  0.3658
  110OSM    H2F11370   4.788   0.727  10.409  3.9710  0.1194  0.6254
  110OSM    H2G11371   4.876   0.887  10.375 -0.2467  1.2833  2.8832
  110OSM    C3F11372   4.671   0.887  10.312  0.3213 -0.9388 -0.1604
  110OSM    H3F11373   4.676   0.997  10.301 -3.0531 -0.8371 -1.2240
  110OSM    H3G11374   4.574   0.869  10.362  1.0480 -0.5283  1.4442
  110OSM    C4F11375   4.677   0.847  10.163 -0.0839 -0.1200 -0.2924
  110OSM    H4F11376   4.623   0.750  10.159 -0.7415  0.1407  1.7080
  110OSM    H4G11377   4.783   0.823  10.140 -0.4017 -1.9919  0.1266
  110OSM    C5F11378   4.630   0.940  10.051  0.1257 -0.6128 -0.0620
  110OSM    H5F11379   4.534   0.983  10.087 -0.3633 -1.9476  0.2683
  110OSM    H5G11380   4.616   0.881   9.958 -1.3473  2.4179 -1.8475
  110OSM    C6F11381   4.711   1.067  10.030 -0.3541  0.2706  0.5079
  110OSM    H6F11382   4.814   1.044   9.995 -0.3369  0.7136  0.2614
  110OSM    H6G11383   4.730   1.126  10.123 -0.9107 -0.4410  1.0761
  110OSM    C7F11384   4.646   1.172   9.937 -1.4125  0.0167  0.1007
  110OSM    H7F11385   4.722   1.238   9.891 -0.3875 -1.1871  0.0269
  110OSM    H7G11386   4.570   1.226   9.997 -0.7311 -1.1347  2.0428
  110OSM    C8F11387   4.583   1.104   9.817 -0.4292  0.1222 -0.1594
  110OSM    H8F11388   4.506   1.033   9.854 -1.5286  1.8081  0.8267
  110OSM    H8G11389   4.668   1.038   9.787  0.6504  1.8112 -0.8664
  110OSM    C9F11390   4.515   1.201   9.718 -0.9577  0.2917 -0.4033
  110OSM    H9F11391   4.418   1.240   9.752 -1.0699  0.3096 -0.7384
  110OSM   C10F11392   4.558   1.253   9.599  0.2470  0.4069  0.3678
  110OSM   H10F11393   4.506   1.335   9.549  0.6233  1.1642  1.2012
  110OSM   C11F11394   4.684   1.220   9.536  0.7792  0.0594  0.1640
  110OSM   H11F11395   4.746   1.158   9.604  2.3871 -0.4985 -1.7507
  110OSM   H11G11396   4.732   1.319   9.517  0.7516 -0.2242 -1.4663
  110OSM   C12F11397   4.678   1.131   9.407  1.1065 -0.1127 -0.6326
  110OSM   H12F11398   4.656   1.025   9.430  1.1414 -0.0711 -0.4053
  110OSM   H12G11399   4.774   1.158   9.358  0.7210  0.6217 -0.9889
  110OSM   C13F11400   4.572   1.172   9.306  0.2198 -0.8612  0.1599
  110OSM   H13F11401   4.584   1.279   9.277 -3.2773 -0.9118 -1.8151
  110OSM   H13G11402   4.480   1.161   9.367 -0.1054  0.5956 -0.0413
  110OSM   C14F11403   4.562   1.094   9.172  0.5168  1.0474 -0.1816
  110OSM   H14F11404   4.567   0.984   9.184  0.3100  1.1191  0.5847
  110OSM   H14G11405   4.655   1.111   9.113  0.8998  1.4328  0.5255
  110OSM   C15F11406   4.440   1.133   9.095 -0.1672 -0.1957  0.4250
  110OSM   H15F11407   4.446   1.241   9.069  1.6577 -0.1674  0.8586
  110OSM   H15G11408   4.347   1.098   9.145 -1.4554 -1.6006 -2.7821
  110OSM   C16F11409   4.448   1.048   8.961 -0.9120 -0.1804 -0.4296
  110OSM   H16F11410   4.424   0.942   8.983  0.0535 -0.6739 -1.6992
  110OSM   H16G11411   4.548   1.054   8.912  0.1257 -2.8730  1.2137
  110OSM   C17F11412   4.344   1.081   8.846 -0.0602  0.2274 -0.3344
  110OSM   H17F11413   4.374   1.181   8.807  2.2775 -0.4291 -0.2946
  110OSM   H17G11414   4.244   1.095   8.892  0.2541  1.0273  0.1246
  110OSM   C18F11415   4.349   0.989   8.728  0.0047 -0.1474 -0.1482
  110OSM   H18F11416   4.281   1.014   8.644 -0.1777 -2.7690 -0.8317
  110OSM   H18G11417   4.336   0.882   8.753 -4.3203  0.1158 -0.9797
  110OSM   H18H11418   4.454   0.996   8.692 -0.5785 -0.1213 -1.9181
  111OSM      N11419   5.673   5.856  10.914  0.6549  0.1179  0.0591
  111OSM    C1511420   5.727   5.725  10.958  0.0009  0.3634 -0.1923
  111OSM   H15A11421   5.660   5.645  10.933  1.0972 -0.3971 -0.7595
  111OSM   H15B11422   5.746   5.718  11.065  2.6512 -1.6633 -0.7360
  111OSM   H15C11423   5.818   5.713  10.901  0.3051  1.3041  0.0798
  111OSM    C1411424   5.552   5.884  10.997 -0.3061 -0.7934 -0.2583
  111OSM   H14A11425   5.473   5.813  10.975 -0.1069 -1.7553  1.9666
  111OSM   H14B11426   5.524   5.987  10.987  1.4777 -0.5560 -3.3606
  111OSM   H14C11427   5.581   5.864  11.100 -2.0685  1.5108  0.7189
  111OSM    C1311428   5.782   5.959  10.945 -0.0950 -0.2600  0.2877
  111OSM   H13A11429   5.880   5.925  10.914 -0.2114 -1.8498  1.6008
  111OSM   H13B11430   5.786   5.973  11.052 -1.1743 -0.4060  0.3502
  111OSM   H13C11431   5.758   6.056  10.904 -0.1091 -0.8035 -1.0068
  111OSM    C1211432   5.644   5.837  10.770 -0.3202 -0.1962  0.1755
  111OSM   H12A11433   5.593   5.745  10.745 -0.6159  0.0214 -0.0236
  111OSM   H12B11434   5.740   5.845  10.720 -0.0839 -1.1932  0.4630
  111OSM    C1111435   5.552   5.937  10.716  0.2814  0.2735 -0.1320
  111OSM   H11A11436   5.578   5.948  10.608 -1.5142  3.0416 -0.3409
  111OSM   H11B11437   5.573   6.038  10.759  1.4834 -0.7730  1.8070
  111OSM      P11438   5.340   5.791  10.677  0.0840  0.2044 -0.6277
  111OSM    O1311439   5.418   5.666  10.689 -0.0531  0.2143 -0.3412
  111OSM    O1411440   5.197   5.798  10.712 -0.1879  0.0054 -0.6315
  111OSM    O1111441   5.348   5.834  10.519 -0.0176  0.3137 -0.8945
  111OSM    O1211442   5.418   5.912  10.743 -0.0450 -0.4927 -0.5928
  111OSM    C1S11443   5.285   5.958  10.490  0.5183 -0.1958 -0.7877
  111OSM    H1S11444   5.284   6.025  10.578  0.2168 -1.5758  0.2683
  111OSM    H1T11445   5.181   5.938  10.454 -0.4069  0.1793  1.5859
  111OSM     NF11446   5.310   6.167  10.338  0.2501  0.5104  0.9390
  111OSM    HNF11447   5.247   6.183  10.263  0.0950  0.9936  1.1772
  111OSM    C2S11448   5.362   6.028  10.371 -0.2432 -0.6563 -0.0075
  111OSM    H2S11449   5.468   6.036  10.404  0.2512 -0.5111 -1.5886
  111OSM    C3S11450   5.358   5.941  10.244 -0.0434 -0.3943  0.4271
  111OSM    H3S11451   5.256   5.944  10.200  0.8418 -0.1138 -1.6364
  111OSM     O311452   5.383   5.804  10.261  0.4804 -0.3458 -0.1633
  111OSM    HO311453   5.379   5.805  10.357  2.4854 -0.1489 -0.0681
  111OSM    C4S11454   5.463   5.988  10.146  0.3677 -0.3223  0.2315
  111OSM    H4S11455   5.571   5.976  10.162  0.1350 -1.9299  0.6515
  111OSM    C5S11456   5.438   6.046  10.029 -0.0082 -0.5489  0.6452
  111OSM    H5S11457   5.336   6.077  10.001  0.0201 -2.6303 -2.0517
  111OSM    C6S11458   5.542   6.098   9.936 -0.0790 -0.3983  0.1440
  111OSM    H6S11459   5.635   6.102   9.996 -0.8607  0.7187  1.3202
  111OSM    H6T11460   5.511   6.202   9.913 -0.9607 -0.6998 -0.0711
  111OSM    C7S11461   5.546   6.000   9.823  0.3717 -0.3505 -0.7737
  111OSM    H7S11462   5.469   6.014   9.745 -0.5431 -2.2596 -0.2541
  111OSM    H7T11463   5.536   5.895   9.859 -4.7076  1.0307  2.5404
  111OSM    C8S11464   5.674   6.013   9.734 -0.2266 -0.5499  0.0327
  111OSM    H8S11465   5.770   6.002   9.789  1.3009  0.1154 -2.4060
  111OSM    H8T11466   5.680   6.113   9.684  0.4760 -0.3625  0.4918
  111OSM    C9S11467   5.660   5.902   9.628 -0.5124  0.2550  0.4425
  111OSM    H9S11468   5.578   5.929   9.558 -0.1464 -1.6016 -0.7260
  111OSM    H9T11469   5.636   5.804   9.675  0.2768 -1.2119 -2.1356
  111OSM   C10S11470   5.790   5.878   9.553  0.5081  0.0549 -0.5942
  111OSM   H10S11471   5.857   5.841   9.633  0.5378  0.5632 -0.3814
  111OSM   H10T11472   5.840   5.967   9.510  3.5484 -0.4048  1.8433
  111OSM   C11S11473   5.765   5.771   9.442  0.0023  0.3159  0.6622
  111OSM   H11S11474   5.678   5.794   9.377 -0.6014  1.5148  1.8770
  111OSM   H11T11475   5.770   5.669   9.484  2.0930 -0.4502 -1.3427
  111OSM   C12S11476   5.881   5.770   9.345 -0.9339 -0.3184  0.3447
  111OSM   H12S11477   5.972   5.765   9.409 -0.5783 -1.5579 -0.2413
  111OSM   H12T11478   5.880   5.867   9.292 -0.7386 -0.4132  0.1663
  111OSM   C13S11479   5.893   5.649   9.259 -0.5745 -0.1331  0.1721
  111OSM   H13S11480   5.846   5.570   9.321 -2.1289  0.4343 -0.2663
  111OSM   H13T11481   6.001   5.632   9.242 -0.3616  0.7931  0.5747
  111OSM   C14S11482   5.828   5.679   9.124  0.1585  0.0126 -0.2512
  111OSM   H14S11483   5.890   5.761   9.082  0.3681 -0.3855 -0.7123
  111OSM   H14T11484   5.725   5.720   9.127 -0.6236 -1.8209 -1.0895
  111OSM   C15S11485   5.820   5.553   9.038  0.1178 -0.4285 -0.7523
  111OSM   H15S11486   5.748   5.486   9.091 -0.3565  0.8014  0.1785
  111OSM   H15T11487   5.923   5.514   9.028  0.0090 -0.5075 -1.6352
  111OSM   C16S11488   5.762   5.580   8.902  0.2138 -0.7440  0.7283
  111OSM   H16S11489   5.839   5.615   8.830 -0.0944 -2.2575 -0.3783
  111OSM   H16T11490   5.689   5.663   8.915  0.1810 -0.7734  0.7334
  111OSM   C17S11491   5.703   5.454   8.828  0.2508  0.4868  0.0417
  111OSM   H17S11492   5.649   5.399   8.908 -0.3621  0.9526 -0.0546
  111OSM   H17T11493   5.784   5.391   8.785  1.4723  1.4294  0.9109
  111OSM   C18S11494   5.604   5.500   8.717  0.7195  0.2783  0.3213
  111OSM   H18S11495   5.574   5.411   8.659 -1.5483  1.2207 -0.0020
  111OSM   H18T11496   5.669   5.560   8.650  0.5358 -0.1560 -0.2481
  111OSM   H18U11497   5.517   5.557   8.756 -1.2019 -2.4051  0.1035
  111OSM    C1F11498   5.317   6.268  10.434 -0.1280  0.7294  0.0557
  111OSM     OF11499   5.364   6.252  10.549  0.4270  1.2340  0.4990
  111OSM    C2F11500   5.249   6.399  10.402 -0.0579  0.3230 -0.7661
  111OSM    H2F11501   5.184   6.437  10.483 -0.1160 -0.8696 -0.2332
  111OSM    H2G11502   5.181   6.384  10.316 -0.2684  1.5557 -0.8234
  111OSM    C3F11503   5.347   6.517  10.385 -0.5269  0.2217  0.0809
  111OSM    H3F11504   5.411   6.535  10.474 -1.2339  3.4294 -0.0034
  111OSM    H3G11505   5.286   6.610  10.382  0.0731  0.6065 -0.1723
  111OSM    C4F11506   5.439   6.513  10.264  0.1223 -0.5339  0.0016
  111OSM    H4F11507   5.500   6.420  10.267 -0.5804 -0.9659  1.0548
  111OSM    H4G11508   5.508   6.600  10.261  0.2635 -0.6664 -0.8176
  111OSM    C5F11509   5.363   6.503  10.131 -0.5549  0.1750 -0.0630
  111OSM    H5F11510   5.296   6.590  10.116 -3.4398 -1.6640  1.7608
  111OSM    H5G11511   5.291   6.418  10.124  0.0553 -0.2855 -0.8889
  111OSM    C6F11512   5.455   6.496  10.012  0.4256 -0.3536 -0.2139
  111OSM    H6F11513   5.515   6.402  10.010 -2.1704 -2.0599 -3.4839
  111OSM    H6G11514   5.531   6.576  10.021 -1.1207  0.9135  1.9990
  111OSM    C7F11515   5.388   6.511   9.877  0.4175  0.1090  0.0281
  111OSM    H7F11516   5.330   6.605   9.889  1.7139  0.8847  0.4103
  111OSM    H7G11517   5.309   6.437   9.856 -0.6004  1.7476 -2.0694
  111OSM    C8F11518   5.489   6.501   9.763  0.1182  0.1494  0.0365
  111OSM    H8F11519   5.543   6.406   9.779 -0.2577 -0.6403 -3.0926
  111OSM    H8G11520   5.573   6.572   9.780  0.2915  0.0831 -0.5360
  111OSM    C9F11521   5.425   6.505   9.628  1.0528 -0.8464 -0.2373
  111OSM    H9F11522   5.350   6.584   9.617  0.4140 -1.2424  1.1298
  111OSM   C10F11523   5.450   6.423   9.528  0.1681 -0.1417  0.3817
  111OSM   H10F11524   5.394   6.437   9.435 -0.4140 -3.1472  0.2391
  111OSM   C11F11525   5.538   6.300   9.525 -0.0555  0.2385  1.0827
  111OSM   H11F11526   5.478   6.207   9.538  1.0443 -1.1881 -3.2373
  111OSM   H11G11527   5.614   6.304   9.606  2.1615  0.5298 -0.9458
  111OSM   C12F11528   5.610   6.287   9.386  0.3100  0.4990 -0.0976
  111OSM   H12F11529   5.671   6.378   9.365  1.8765 -1.3997 -4.3891
  111OSM   H12G11530   5.530   6.266   9.312  0.2671  0.3744 -0.0159
  111OSM   C13F11531   5.703   6.169   9.378 -0.3067 -0.1006  0.1649
  111OSM   H13F11532   5.643   6.078   9.398 -0.2587 -0.2241 -0.2509
  111OSM   H13G11533   5.791   6.181   9.445 -0.0673 -1.2962  0.0823
  111OSM   C14F11534   5.764   6.159   9.232 -0.3539  0.7488 -1.5449
  111OSM   H14F11535   5.681   6.129   9.164  0.9132  0.0271 -2.8245
  111OSM   H14G11536   5.839   6.079   9.212  0.0566  0.8865 -0.6057
  111OSM   C15F11537   5.831   6.291   9.184  0.1285  0.1742 -0.2285
  111OSM   H15F11538   5.905   6.326   9.259  0.6067  0.5469 -0.8707
  111OSM   H15G11539   5.748   6.361   9.160 -1.6043 -2.0530 -0.8800
  111OSM   C16F11540   5.899   6.258   9.050 -0.5897 -0.3606 -0.1297
  111OSM   H16F11541   5.959   6.164   9.052  2.0169  1.2528  0.2948
  111OSM   H16G11542   5.974   6.335   9.024 -2.6073  2.2378  1.4282
  111OSM   C17F11543   5.798   6.230   8.932  0.1439  0.1660 -0.1679
  111OSM   H17F11544   5.730   6.318   8.932 -0.7764 -0.4907  2.6080
  111OSM   H17G11545   5.731   6.145   8.957  2.8726 -1.5242  1.6455
  111OSM   C18F11546   5.858   6.197   8.800  0.3024 -0.0832 -0.8593
  111OSM   H18F11547   5.956   6.249   8.791 -0.5146  1.3628 -1.4920
  111OSM   H18G11548   5.795   6.231   8.716 -1.3883  0.7768  0.7115
  111OSM   H18H11549   5.881   6.089   8.786 -0.4075 -0.4174  0.3700
  112OSM      N11550   4.031   4.691  11.018  0.0188 -0.2735 -0.2970
  112OSM    C1511551   4.155   4.685  11.107  0.2719  0.4927  0.0982
  112OSM   H15A11552   4.123   4.697  11.210  1.5216  1.1738  0.4186
  112OSM   H15B11553   4.218   4.769  11.080  1.5238 -1.4572 -3.2761
  112OSM   H15C11554   4.217   4.599  11.084  2.5688  2.2655 -0.5397
  112OSM    C1411555   3.939   4.575  11.048 -0.1738 -0.1548  0.0258
  112OSM   H14A11556   3.910   4.576  11.152  3.2460 -0.4057  1.0535
  112OSM   H14B11557   3.995   4.486  11.025 -0.0508 -0.5397  1.7231
  112OSM   H14C11558   3.849   4.577  10.989  1.0899 -0.6263 -1.9591
  112OSM    C1311559   3.960   4.819  11.057  0.0370 -0.2805  0.3584
  112OSM   H13A11560   3.911   4.830  11.152 -0.1927  0.5312  0.1460
  112OSM   H13B11561   3.884   4.852  10.988  1.2065  0.3733 -0.6503
  112OSM   H13C11562   4.038   4.894  11.060  0.2866 -0.5908  2.4056
  112OSM    C1211563   4.057   4.688  10.869 -0.7352  0.7085 -0.4172
  112OSM   H12A11564   4.127   4.768  10.850  0.0989  0.1907  0.4596
  112OSM   H12B11565   3.963   4.722  10.828 -0.7887  0.7695 -0.2438
  112OSM    C1111566   4.103   4.561  10.801 -0.3666 -0.2927  0.6367
  112OSM   H11A11567   4.129   4.579  10.694  1.3581  0.1893  1.1079
  112OSM   H11B11568   4.022   4.485  10.798  0.1921 -0.8279 -2.2227
  112OSM      P11569   4.241   4.355  10.896 -0.0748  0.0836 -0.1450
  112OSM    O1311570   4.369   4.324  10.970 -0.2273 -0.3295  0.2884
  112OSM    O1411571   4.118   4.291  10.950  0.4568 -0.9745  0.6814
  112OSM    O1111572   4.273   4.302  10.750 -0.0720  0.5598  0.4031
  112OSM    O1211573   4.227   4.517  10.872  0.4155 -0.3530  0.2157
  112OSM    C1S11574   4.157   4.245  10.679 -0.6522  0.2668 -0.3937
  112OSM    H1S11575   4.090   4.329  10.650  1.2681  2.4132  1.1323
  112OSM    H1T11576   4.115   4.158  10.734 -0.9458 -0.1122 -1.2100
  112OSM     NF11577   4.089   4.139  10.460 -0.3450 -0.7083  0.0890
  112OSM    HNF11578   4.071   4.045  10.433 -1.2487 -0.1581 -1.2818
  112OSM    C2S11579   4.196   4.180  10.544 -0.0885  1.3987  1.2099
  112OSM    H2S11580   4.254   4.263  10.498  0.3542 -0.6204 -2.0259
  112OSM    C3S11581   4.290   4.059  10.577 -0.4650  0.3960 -0.5833
  112OSM    H3S11582   4.234   3.983  10.635  2.1765 -0.7232  0.5606
  112OSM     O311583   4.397   4.097  10.658  0.3874  0.0566 -0.0842
  112OSM    HO311584   4.352   4.164  10.710 -2.5701 -2.2028  0.3903
  112OSM    C4S11585   4.338   4.001  10.443 -0.1778  0.2678 -0.1480
  112OSM    H4S11586   4.379   4.069  10.367 -0.9156  2.6526  1.5180
  112OSM    C5S11587   4.327   3.872  10.403 -0.2364  0.3170  0.2074
  112OSM    H5S11588   4.287   3.795  10.470  0.2712 -0.0138  0.1333
  112OSM    C6S11589   4.378   3.823  10.269  0.2345 -0.9295 -0.7023
  112OSM    H6S11590   4.450   3.739  10.279  1.8741  0.4668 -0.4031
  112OSM    H6T11591   4.437   3.908  10.227  0.4395  0.4922  2.3387
  112OSM    C7S11592   4.259   3.783  10.171  0.2538 -0.1688  0.3159
  112OSM    H7S11593   4.172   3.744  10.228  0.0123 -1.5112 -0.9454
  112OSM    H7T11594   4.301   3.716  10.093  0.1360  0.1051  0.0167
  112OSM    C8S11595   4.178   3.908  10.106  0.4451  0.0042 -0.4774
  112OSM    H8S11596   4.162   3.991  10.179 -0.4656 -0.3277 -0.2964
  112OSM    H8T11597   4.084   3.874  10.058  0.8786  0.5012 -1.7012
  112OSM    C9S11598   4.247   3.980   9.989  0.1558  0.2704 -0.6015
  112OSM    H9S11599   4.347   4.022  10.013 -0.2448  0.3880  0.8851
  112OSM    H9T11600   4.185   4.070   9.972  1.3967  1.3479  0.4559
  112OSM   C10S11601   4.249   3.892   9.867 -0.0400  0.1188  0.5174
  112OSM   H10S11602   4.145   3.858   9.848  0.1649 -0.1726 -0.1073
  112OSM   H10T11603   4.313   3.802   9.879 -0.2990 -0.1879 -0.3862
  112OSM   C11S11604   4.303   3.961   9.735  0.0857 -0.1095  0.7229
  112OSM   H11S11605   4.410   3.990   9.740  0.0991  0.0306 -0.3028
  112OSM   H11T11606   4.246   4.051   9.707  2.6085  1.4663  0.4940
  112OSM   C12S11607   4.289   3.851   9.627  0.9603  0.0369 -0.2260
  112OSM   H12S11608   4.191   3.799   9.619  0.6590  0.4654  0.5690
  112OSM   H12T11609   4.362   3.767   9.629 -1.5298 -2.1921  1.0349
  112OSM   C13S11610   4.317   3.910   9.485  0.1762 -0.6110 -0.3169
  112OSM   H13S11611   4.395   3.989   9.474  0.4083 -0.5552  1.5209
  112OSM   H13T11612   4.230   3.970   9.451 -0.0931  0.4810  2.2107
  112OSM   C14S11613   4.335   3.805   9.374  0.2283  0.0717  0.0141
  112OSM   H14S11614   4.253   3.731   9.385 -0.0198  0.3633  0.1419
  112OSM   H14T11615   4.433   3.753   9.380 -1.0417 -2.4932 -0.9929
  112OSM   C15S11616   4.350   3.864   9.235  0.3213 -0.3061 -0.0762
  112OSM   H15S11617   4.437   3.932   9.226  0.7579 -0.9072 -0.4704
  112OSM   H15T11618   4.265   3.926   9.200  0.3434 -1.6962 -2.7047
  112OSM   C16S11619   4.367   3.740   9.141 -0.2841  0.2981  0.1285
  112OSM   H16S11620   4.268   3.689   9.134 -1.0295  1.7294  0.2182
  112OSM   H16T11621   4.438   3.667   9.187  0.0867 -0.5184 -1.6783
  112OSM   C17S11622   4.415   3.774   8.999 -0.4817 -0.3899 -0.1307
  112OSM   H17S11623   4.514   3.820   9.021 -0.4020 -1.6427  2.2048
  112OSM   H17T11624   4.353   3.860   8.966 -0.3057  0.4041  1.5640
  112OSM   C18S11625   4.410   3.658   8.902  0.2958  0.2175 -0.2522
  112OSM   H18S11626   4.437   3.559   8.946  3.1314  1.8737  1.9067
  112OSM   H18T11627   4.457   3.681   8.804  0.1802  0.1852 -0.3153
  112OSM   H18U11628   4.304   3.653   8.869  0.2376  0.3386 -0.0791
  112OSM    C1F11629   4.015   4.232  10.401  0.0070 -0.5817  0.3879
  112OSM     OF11630   4.063   4.340  10.376  0.6480 -0.1196  0.2564
  112OSM    C2F11631   3.893   4.195  10.329  0.0292  0.0025 -0.3943
  112OSM    H2F11632   3.813   4.260  10.372 -0.4742  0.2949 -1.7512
  112OSM    H2G11633   3.856   4.090  10.334  0.2291 -0.0455  0.0934
  112OSM    C3F11634   3.900   4.226  10.178 -0.1762 -0.2255  0.2449
  112OSM    H3F11635   3.985   4.174  10.128  1.4831  1.0733  1.6528
  112OSM    H3G11636   3.912   4.336  10.162 -2.3330 -0.1698 -1.1716
  112OSM    C4F11637   3.767   4.202  10.108  0.4191  0.1079 -0.8877
  112OSM    H4F11638   3.684   4.250  10.162  0.1992 -2.0476  0.7617
  112OSM    H4G11639   3.745   4.093  10.114 -1.0592  0.3661 -1.3629
  112OSM    C5F11640   3.758   4.245   9.964  0.4684  0.3466 -0.5091
  112OSM    H5F11641   3.787   4.353   9.968  1.0604  0.2434 -1.7800
  112OSM    H5G11642   3.657   4.223   9.925 -0.0309  0.0894  0.9288
  112OSM    C6F11643   3.855   4.162   9.878 -0.5232  0.0415  0.7948
  112OSM    H6F11644   3.799   4.069   9.853 -1.9764  1.2517 -0.5730
  112OSM    H6G11645   3.956   4.141   9.918  0.0776 -1.0871 -1.2273
  112OSM    C7F11646   3.893   4.236   9.750 -0.1036  0.8588 -1.1523
  112OSM    H7F11647   3.946   4.162   9.687  0.4170  1.1419 -1.0465
  112OSM    H7G11648   3.959   4.325   9.748 -2.3321  2.5911 -0.1684
  112OSM    C8F11649   3.775   4.292   9.671 -0.1992 -0.1052 -0.2600
  112OSM    H8F11650   3.823   4.337   9.582 -0.3333  1.2512  0.3516
  112OSM    H8G11651   3.732   4.370   9.737 -1.0960  2.1555 -3.4029
  112OSM    C9F11652   3.664   4.201   9.626  0.8744 -0.0394  0.7182
  112OSM    H9F11653   3.603   4.160   9.709  1.3640 -1.1076  0.5624
  112OSM   C10F11654   3.643   4.154   9.504 -0.7833 -0.2384  0.3886
  112OSM   H10F11655   3.558   4.089   9.478 -0.1216 -1.5092  1.3296
  112OSM   C11F11656   3.743   4.181   9.390 -0.4120 -0.3897 -0.3399
  112OSM   H11F11657   3.800   4.089   9.364  3.7588  2.1900 -0.7779
  112OSM   H11G11658   3.827   4.250   9.412 -0.7274  0.0692 -0.5501
  112OSM   C12F11659   3.658   4.229   9.269 -0.1642 -0.9029  0.4284
  112OSM   H12F11660   3.622   4.332   9.292 -0.4727 -0.6444 -1.1770
  112OSM   H12G11661   3.564   4.171   9.254 -0.0320 -0.5589 -1.9258
  112OSM   C13F11662   3.730   4.232   9.135 -0.2784 -0.1208  0.2680
  112OSM   H13F11663   3.744   4.124   9.113 -2.8522 -0.1930 -1.2454
  112OSM   H13G11664   3.832   4.273   9.149 -0.6359  0.6037  0.7847
  112OSM   C14F11665   3.650   4.291   9.026  0.0345 -0.1332  0.5396
  112OSM   H14F11666   3.633   4.401   9.034  1.0702 -0.0255  1.3230
  112OSM   H14G11667   3.541   4.271   9.024  0.2936 -1.5157 -0.0700
  112OSM   C15F11668   3.705   4.250   8.887 -0.4238  0.1044  0.0788
  112OSM   H15F11669   3.715   4.140   8.885 -0.7874  0.0737 -1.4592
  112OSM   H15G11670   3.796   4.306   8.858 -1.1257  0.5158 -1.4286
  112OSM   C16F11671   3.610   4.310   8.778  0.0220  0.5365  0.0386
  112OSM   H16F11672   3.625   4.419   8.758 -0.8790  0.0577 -3.5643
  112OSM   H16G11673   3.506   4.295   8.812  0.3118  0.3530  0.8470
  112OSM   C17F11674   3.618   4.239   8.647 -0.5575 -0.3918  0.7680
  112OSM   H17F11675   3.586   4.135   8.668 -0.8956 -0.8170 -1.7158
  112OSM   H17G11676   3.717   4.240   8.598 -0.3376 -1.3732  1.1792
  112OSM   C18F11677   3.531   4.313   8.542  0.8460 -0.5049  0.8036
  112OSM   H18F11678   3.437   4.352   8.586 -0.1679 -0.3825 -1.3752
  112OSM   H18G11679   3.507   4.235   8.466  1.2577 -1.7888  1.9709
  112OSM   H18H11680   3.592   4.391   8.492  1.1285 -0.0383  1.8576
  113OSM      N11681   5.487   3.190  11.278  0.4182 -0.0327 -0.1421
  113OSM    C1511682   5.584   3.289  11.341 -0.0134  0.0252 -0.5269
  113OSM   H15A11683   5.692   3.276  11.338  0.0295 -0.6860  2.5090
  113OSM   H15B11684   5.558   3.297  11.445 -0.9563  3.5216 -0.9866
  113OSM   H15C11685   5.578   3.388  11.300  1.9259  0.8266  1.0089
  113OSM    C1411686   5.470   3.069  11.376  0.6656 -0.0432  0.1348
  113OSM   H14A11687   5.382   3.014  11.348  1.3321 -0.3704 -1.3678
  113OSM   H14B11688   5.447   3.106  11.475 -0.4254  0.1623 -0.1884
  113OSM   H14C11689   5.554   3.000  11.375 -0.3649 -1.3367 -2.5938
  113OSM    C1311690   5.355   3.250  11.289 -0.0694  0.8611 -0.6569
  113OSM   H13A11691   5.332   3.286  11.388 -0.6273 -0.3927 -0.3083
  113OSM   H13B11692   5.281   3.174  11.265 -2.7025  2.8181  1.0087
  113OSM   H13C11693   5.347   3.330  11.217  1.2772 -0.1449 -1.9500
  113OSM    C1211694   5.521   3.147  11.142 -0.4090  0.2468  0.0465
  113OSM   H12A11695   5.467   3.055  11.120 -2.0949  1.2220  0.0559
  113OSM   H12B11696   5.627   3.126  11.138 -0.3104  0.7721 -0.1403
  113OSM    C1111697   5.494   3.243  11.013 -0.6919 -0.0913 -0.3558
  113OSM   H11A11698   5.537   3.187  10.927 -3.4364 -1.6066 -0.8043
  113OSM   H11B11699   5.548   3.340  11.016  0.7905 -0.9526  1.4865
  113OSM      P11700   5.277   3.139  10.922  0.1712 -0.3436  0.1260
  113OSM    O1311701   5.286   3.021  11.015  0.0273  0.4889 -0.2671
  113OSM    O1411702   5.132   3.177  10.896 -0.7731  0.4158  0.1038
  113OSM    O1111703   5.356   3.116  10.790 -0.0814 -0.6538  0.6989
  113OSM    O1211704   5.355   3.264  10.990 -0.1058 -0.1502 -0.0779
  113OSM    C1S11705   5.389   2.987  10.750  0.5418 -0.3076  0.1135
  113OSM    H1S11706   5.294   2.931  10.733 -0.1745  0.5688  1.1591
  113OSM    H1T11707   5.450   2.930  10.823  2.2196  0.4151 -0.7056
  113OSM     NF11708   5.446   2.852  10.547  0.4964 -0.7658  0.0146
  113OSM    HNF11709   5.530   2.799  10.536  1.3132 -0.1968  3.2147
  113OSM    C2S11710   5.456   2.984  10.609  0.1630 -0.2505  0.2186
  113OSM    H2S11711   5.401   3.051  10.540 -1.7879  0.5855  2.5217
  113OSM    C3S11712   5.601   3.032  10.627 -0.4612 -0.7608 -0.5417
  113OSM    H3S11713   5.651   2.968  10.702  0.8094 -1.2958 -1.8141
  113OSM     O311714   5.611   3.166  10.675 -0.0934 -0.4418  0.1163
  113OSM    HO311715   5.533   3.191  10.725 -0.2247  1.1864 -0.8415
  113OSM    C4S11716   5.681   3.014  10.498  0.4096 -0.4957  0.4370
  113OSM    H4S11717   5.746   2.926  10.508  0.4589 -0.6576 -1.1653
  113OSM    C5S11718   5.686   3.100  10.395  0.3825  0.2611 -0.3828
  113OSM    H5S11719   5.615   3.185  10.394  0.4867  0.3421 -1.7412
  113OSM    C6S11720   5.764   3.074  10.263  0.1886  0.2053  0.1022
  113OSM    H6S11721   5.864   3.117  10.287  0.9898 -2.0662  0.9626
  113OSM    H6T11722   5.729   3.139  10.180  2.4672  0.9036 -0.3537
  113OSM    C7S11723   5.762   2.932  10.215 -0.5835  0.8116 -0.0408
  113OSM    H7S11724   5.798   2.865  10.296 -0.9378 -0.9393 -1.2961
  113OSM    H7T11725   5.827   2.929  10.126  2.2514  1.4838  1.9530
  113OSM    C8S11726   5.621   2.882  10.185  0.0228  0.4058 -0.7704
  113OSM    H8S11727   5.575   2.959  10.118 -0.0966  2.3336  1.4784
  113OSM    H8T11728   5.549   2.874  10.269  0.3834  2.0327 -0.2898
  113OSM    C9S11729   5.614   2.740  10.121 -0.5017  0.1363  0.3699
  113OSM    H9S11730   5.510   2.735  10.081 -0.4057 -0.5042  0.2041
  113OSM    H9T11731   5.600   2.665  10.201 -1.0331  0.2930  0.4286
  113OSM   C10S11732   5.715   2.720  10.006  0.7239 -0.6585 -0.9439
  113OSM   H10S11733   5.817   2.711  10.050  0.3477  2.1283  0.6512
  113OSM   H10T11734   5.721   2.812   9.943 -0.1744 -0.2053 -0.3769
  113OSM   C11S11735   5.686   2.599   9.924 -0.9125  0.4057  0.4438
  113OSM   H11S11736   5.588   2.614   9.876 -1.5864 -1.8949  1.0371
  113OSM   H11T11737   5.686   2.507   9.988  0.7137  0.4680  0.5740
  113OSM   C12S11738   5.791   2.585   9.806  0.3460 -0.0858  0.8887
  113OSM   H12S11739   5.895   2.573   9.843  0.3367  2.7706  1.9651
  113OSM   H12T11740   5.796   2.673   9.739 -0.5668 -1.7111 -1.3842
  113OSM   C13S11741   5.771   2.454   9.720 -0.6166 -0.4931 -0.1789
  113OSM   H13S11742   5.672   2.471   9.673 -0.4852  1.5257  0.1982
  113OSM   H13T11743   5.773   2.366   9.787 -1.5426 -0.5436 -0.2206
  113OSM   C14S11744   5.874   2.430   9.600  0.5852 -0.2599  0.1417
  113OSM   H14S11745   5.962   2.388   9.653 -0.9383 -1.9453  1.4439
  113OSM   H14T11746   5.908   2.520   9.545  2.7871 -1.1577 -0.0203
  113OSM   C15S11747   5.838   2.316   9.503  0.1234  0.0424 -0.9021
  113OSM   H15S11748   5.776   2.236   9.549  3.0298 -0.9430  1.4593
  113OSM   H15T11749   5.920   2.248   9.469 -0.1007  0.5297 -2.4761
  113OSM   C16S11750   5.753   2.371   9.393  0.0034 -0.2343  0.7401
  113OSM   H16S11751   5.814   2.412   9.310  0.4433  2.3646  2.2940
  113OSM   H16T11752   5.693   2.455   9.434 -0.2932  0.2315 -0.5969
  113OSM   C17S11753   5.655   2.265   9.331  0.2808  0.4669 -0.0922
  113OSM   H17S11754   5.582   2.228   9.406  0.2374  0.0336 -0.3495
  113OSM   H17T11755   5.706   2.176   9.289  0.3483  0.3546  0.2275
  113OSM   C18S11756   5.577   2.329   9.210 -0.2449  0.4142  0.2552
  113OSM   H18S11757   5.642   2.350   9.122  0.1173 -0.0229  0.4170
  113OSM   H18T11758   5.535   2.424   9.250  0.5258  0.3708  1.1826
  113OSM   H18U11759   5.497   2.264   9.170  1.1849 -0.5581 -1.0500
  113OSM    C1F11760   5.339   2.796  10.489  0.0654  0.0188  0.8989
  113OSM     OF11761   5.245   2.861  10.443  0.0108  0.2906  0.8273
  113OSM    C2F11762   5.340   2.646  10.477 -0.2904 -0.0147  0.2231
  113OSM    H2F11763   5.277   2.607  10.560  0.3820 -0.7223  0.4063
  113OSM    H2G11764   5.447   2.619  10.490  0.1038  1.4818  0.0977
  113OSM    C3F11765   5.291   2.601  10.335  0.5958  0.0248  1.1431
  113OSM    H3F11766   5.338   2.668  10.259 -0.2244  0.6706  1.2082
  113OSM    H3G11767   5.183   2.626  10.330  1.0263  1.7852  0.4131
  113OSM    C4F11768   5.330   2.457  10.297  0.5349  0.1889  0.2289
  113OSM    H4F11769   5.252   2.386  10.333  0.6750  0.6483  1.4942
  113OSM    H4G11770   5.430   2.434  10.341  1.2439  0.4105 -1.2498
  113OSM    C5F11771   5.340   2.443  10.142  0.3629  0.1358 -0.1500
  113OSM    H5F11772   5.418   2.511  10.104 -0.7746  1.3337 -0.3854
  113OSM    H5G11773   5.239   2.478  10.109  0.8315  0.5443 -1.1719
  113OSM    C6F11774   5.366   2.296  10.091 -0.2827 -0.3029  0.9585
  113OSM    H6F11775   5.272   2.237  10.083  0.3998 -0.9149 -4.0173
  113OSM    H6G11776   5.442   2.248  10.156 -0.5928 -1.1616  0.6880
  113OSM    C7F11777   5.421   2.294   9.948 -0.0493 -0.5418  0.5463
  113OSM    H7F11778   5.435   2.191   9.909  0.3139 -0.8920  1.5655
  113OSM    H7G11779   5.526   2.330   9.961 -0.6190  0.5539  2.2630
  113OSM    C8F11780   5.341   2.381   9.849  0.5827  0.2787  0.2643
  113OSM    H8F11781   5.406   2.402   9.762 -0.1688 -0.4342 -0.4854
  113OSM    H8G11782   5.317   2.476   9.900  1.0359 -0.7095  2.3794
  113OSM    C9F11783   5.208   2.312   9.818  0.1653  0.5770 -0.2804
  113OSM    H9F11784   5.139   2.316   9.904  0.7138 -1.6722  0.2926
  113OSM   C10F11785   5.171   2.252   9.707 -0.7268  0.2701  0.1072
  113OSM   H10F11786   5.067   2.220   9.693 -0.8297 -0.0258  1.5513
  113OSM   C11F11787   5.263   2.240   9.586 -1.1156 -0.5212 -0.1828
  113OSM   H11F11788   5.351   2.184   9.625 -2.5340 -1.7452  1.3256
  113OSM   H11G11789   5.305   2.341   9.566 -0.0723 -0.3379  2.7066
  113OSM   C12F11790   5.204   2.170   9.464  0.5736  0.3946 -0.3980
  113OSM   H12F11791   5.173   2.066   9.491 -0.4847  0.2916 -1.9682
  113OSM   H12G11792   5.292   2.153   9.398  1.4777  1.7901  0.4321
  113OSM   C13F11793   5.088   2.248   9.409 -0.6311  0.5906  0.1191
  113OSM   H13F11794   5.129   2.351   9.395 -0.4324  0.9724  3.2709
  113OSM   H13G11795   5.011   2.257   9.488  0.5590 -2.9909  1.7810
  113OSM   C14F11796   5.015   2.211   9.276 -0.0171 -0.2838 -0.4688
  113OSM   H14F11797   4.965   2.113   9.291  2.7038 -1.8311 -1.1670
  113OSM   H14G11798   5.102   2.190   9.209  1.1634  1.7737  0.3855
  113OSM   C15F11799   4.930   2.326   9.221  0.1956  0.4241  0.1375
  113OSM   H15F11800   4.998   2.414   9.227  1.6676 -0.8879  3.5012
  113OSM   H15G11801   4.853   2.331   9.301  1.1181 -0.8027  1.1119
  113OSM   C16F11802   4.863   2.323   9.084  0.2163  0.2047  0.0924
  113OSM   H16F11803   4.938   2.326   9.002  0.5740 -2.5930  0.2710
  113OSM   H16G11804   4.793   2.409   9.079  1.1207  1.0465  1.7520
  113OSM   C17F11805   4.785   2.187   9.060  0.2716 -0.2960  1.0192
  113OSM   H17F11806   4.694   2.194   9.123 -0.6103 -1.5535 -0.1104
  113OSM   H17G11807   4.849   2.104   9.096  0.8286  0.6949  2.3695
  113OSM   C18F11808   4.759   2.153   8.919 -0.4002 -0.1314  0.4451
  113OSM   H18F11809   4.683   2.226   8.885  0.7321  2.2626  2.8273
  113OSM   H18G11810   4.721   2.050   8.908 -1.7257  0.4256 -0.2332
  113OSM   H18H11811   4.848   2.164   8.853 -1.0339  1.0135 -0.2461
  114OSM      N11812   5.288   2.219  11.598  0.4528 -0.2558  0.1093
  114OSM    C1511813   5.141   2.251  11.592 -0.1159 -0.7619  0.3028
  114OSM   H15A11814   5.134   2.346  11.643  3.2985 -0.9040  1.1980
  114OSM   H15B11815   5.084   2.173  11.641 -2.6714  1.5863  1.2232
  114OSM   H15C11816   5.108   2.274  11.492  1.1970  1.2944  0.3108
  114OSM    C1411817   5.371   2.331  11.539  0.1588 -0.1913  0.1559
  114OSM   H14A11818   5.366   2.332  11.431  0.2587 -0.8457  0.1425
  114OSM   H14B11819   5.474   2.320  11.572  0.1813  1.6987  0.7763
  114OSM   H14C11820   5.342   2.427  11.579 -0.7769  0.0817 -1.1564
  114OSM    C1311821   5.326   2.213  11.745 -0.2188 -0.5175 -0.1078
  114OSM   H13A11822   5.273   2.129  11.787 -1.9529  1.1667  1.1402
  114OSM   H13B11823   5.302   2.301  11.803 -0.9688 -0.9758  0.2905
  114OSM   H13C11824   5.431   2.191  11.763 -0.0898  1.1346  1.3408
  114OSM    C1211825   5.315   2.087  11.528  0.1099  0.8515  0.1994
  114OSM   H12A11826   5.250   2.013  11.573  1.2173 -0.5288 -0.4455
  114OSM   H12B11827   5.416   2.056  11.552 -0.1828 -1.0280 -0.8886
  114OSM    C1111828   5.306   2.085  11.377 -0.3253  0.2539  0.1699
  114OSM   H11A11829   5.221   2.142  11.335 -1.2470 -1.6603 -0.6109
  114OSM   H11B11830   5.296   1.977  11.354 -1.7304 -0.2402  2.8616
  114OSM      P11831   5.564   2.047  11.317 -0.5133  0.0158  0.5100
  114OSM    O1311832   5.664   2.131  11.249  0.2080 -0.0166 -0.6256
  114OSM    O1411833   5.601   1.991  11.450  0.0665  0.8271  0.8799
  114OSM    O1111834   5.535   1.928  11.220  0.8461 -0.6103  0.3822
  114OSM    O1211835   5.429   2.130  11.321  0.3993 -0.4772 -0.5628
  114OSM    C1S11836   5.467   1.948  11.096  0.1450 -0.4200 -0.2523
  114OSM    H1S11837   5.526   2.004  11.020 -0.6813  1.4710  0.4829
  114OSM    H1T11838   5.374   2.008  11.109 -0.3650 -1.2846  0.1520
  114OSM     NF11839   5.360   1.840  10.903 -0.4964 -0.4055 -0.0567
  114OSM    HNF11840   5.264   1.810  10.900 -1.0692  1.0744  2.4597
  114OSM    C2S11841   5.422   1.812  11.032 -0.2236 -0.0154 -0.9049
  114OSM    H2S11842   5.507   1.744  11.011 -0.4452 -0.7909  0.6261
  114OSM    C3S11843   5.334   1.740  11.133  0.3556 -0.1303  0.6009
  114OSM    H3S11844   5.257   1.813  11.169  1.6191  0.4126  2.2746
  114OSM     O311845   5.398   1.686  11.250 -0.3262  0.3256  0.3358
  114OSM    HO311846   5.487   1.724  11.249  0.0195 -0.4746 -0.5548
  114OSM    C4S11847   5.261   1.619  11.074 -1.1078  0.1257 -0.3406
  114OSM    H4S11848   5.326   1.541  11.034 -0.8807  0.8023 -1.2982
  114OSM    C5S11849   5.130   1.623  11.044 -0.1430 -1.0057 -0.1385
  114OSM    H5S11850   5.078   1.719  11.057  3.6848  0.9700  1.5138
  114OSM    C6S11851   5.060   1.503  10.985 -0.3656  0.6273  0.2620
  114OSM    H6S11852   4.959   1.493  11.030 -0.3762 -1.1837 -0.1296
  114OSM    H6T11853   5.116   1.408  11.000  0.6607  1.0736 -0.6417
  114OSM    C7S11854   5.030   1.540  10.841  0.1373  1.4406 -0.1427
  114OSM    H7S11855   4.965   1.460  10.800  1.1220  0.2660  0.5690
  114OSM    H7T11856   5.123   1.552  10.781 -0.0365  3.0234 -0.1180
  114OSM    C8S11857   4.953   1.671  10.813  0.0379 -0.1240  0.6087
  114OSM    H8S11858   5.001   1.770  10.832 -0.2935  0.3389 -0.8413
  114OSM    H8T11859   4.862   1.658  10.874  1.4378  0.6013  2.9291
  114OSM    C9S11860   4.916   1.686  10.661 -0.5772 -0.2113  0.0465
  114OSM    H9S11861   4.862   1.591  10.639  0.8249 -1.0021 -0.0318
  114OSM    H9T11862   5.008   1.700  10.600 -0.9396  1.2138 -0.1942
  114OSM   C10S11863   4.835   1.815  10.625  0.7575 -0.6760  0.5012
  114OSM   H10S11864   4.899   1.890  10.677  1.6463 -0.9058 -0.2618
  114OSM   H10T11865   4.735   1.819  10.672  0.7087  0.0201  0.3529
  114OSM   C11S11866   4.807   1.849  10.472  0.7429 -0.2981  0.4463
  114OSM   H11S11867   4.908   1.858  10.425  0.7377  0.1474  0.5177
  114OSM   H11T11868   4.767   1.952  10.486  2.8646  0.8502 -1.5097
  114OSM   C12S11869   4.716   1.760  10.392 -0.4585 -1.1135 -0.0536
  114OSM   H12S11870   4.653   1.719  10.474  0.4428 -2.4500 -0.0102
  114OSM   H12T11871   4.768   1.672  10.348 -1.2201 -0.4724 -2.3053
  114OSM   C13S11872   4.633   1.836  10.282 -0.1786 -0.4054  0.2536
  114OSM   H13S11873   4.556   1.901  10.328 -0.5868  0.3350 -1.4294
  114OSM   H13T11874   4.565   1.763  10.233  0.7078 -1.9475  1.2832
  114OSM   C14S11875   4.729   1.912  10.184  0.1632  0.1244 -0.4733
  114OSM   H14S11876   4.825   1.855  10.177  0.3081  0.4393 -1.1226
  114OSM   H14T11877   4.742   2.014  10.227  1.0164 -0.6538  1.1537
  114OSM   C15S11878   4.660   1.924  10.043  0.5629  0.2758 -0.5267
  114OSM   H15S11879   4.560   1.967  10.065  0.9897 -1.0401  4.6495
  114OSM   H15T11880   4.640   1.820  10.010  0.0345  0.4227 -0.6776
  114OSM   C16S11881   4.748   1.997   9.947 -0.0911 -0.0179  0.1872
  114OSM   H16S11882   4.841   1.943   9.920  1.1493  1.7198  0.9633
  114OSM   H16T11883   4.779   2.089  10.001 -0.1051 -0.2123  0.5202
  114OSM   C17S11884   4.674   2.054   9.824  0.3757 -0.1630  0.4147
  114OSM   H17S11885   4.573   2.084   9.858  0.3045  0.8053 -0.5968
  114OSM   H17T11886   4.640   1.975   9.754 -2.6622  0.4988  1.1022
  114OSM   C18S11887   4.744   2.161   9.745 -0.0783  0.4303 -0.1855
  114OSM   H18S11888   4.853   2.143   9.745 -0.2075 -0.4092  0.5323
  114OSM   H18T11889   4.722   2.257   9.795 -0.7402 -0.8469  2.0464
  114OSM   H18U11890   4.712   2.153   9.639 -0.7875  0.6012  0.0084
  114OSM    C1F11891   5.415   1.894  10.794  0.2372  0.7650  0.6293
  114OSM     OF11892   5.536   1.923  10.798 -0.0334  0.1836 -0.6143
  114OSM    C2F11893   5.326   1.913  10.668 -0.1361 -0.6912 -0.1519
  114OSM    H2F11894   5.230   1.957  10.704  0.2560  0.4468 -0.5133
  114OSM    H2G11895   5.302   1.812  10.629 -0.9580 -0.9618  1.0172
  114OSM    C3F11896   5.379   2.028  10.577  0.5003  0.8534 -0.2481
  114OSM    H3F11897   5.490   2.026  10.582  0.4395 -1.4296  1.0268
  114OSM    H3G11898   5.342   2.123  10.620  1.8250  1.7247 -1.0032
  114OSM    C4F11899   5.332   2.025  10.428 -0.0586 -0.8276  0.3348
  114OSM    H4F11900   5.356   2.115  10.367  1.2865 -1.2926  0.1475
  114OSM    H4G11901   5.221   2.021  10.432 -0.1820  1.8365  0.5085
  114OSM    C5F11902   5.385   1.911  10.338 -0.2410 -0.6356  0.2701
  114OSM    H5F11903   5.375   1.816  10.394 -0.1642 -0.9477 -0.2324
  114OSM    H5G11904   5.492   1.937  10.323 -0.4198 -1.2397 -2.4815
  114OSM    C6F11905   5.328   1.920  10.196  0.2568  0.1655  0.4208
  114OSM    H6F11906   5.385   1.847  10.134  2.0755  1.6825  0.2517
  114OSM    H6G11907   5.360   2.013  10.145 -0.5860  0.4304  0.3732
  114OSM    C7F11908   5.180   1.887  10.173  0.6903 -0.0551 -0.1783
  114OSM    H7F11909   5.107   1.964  10.204 -1.4426 -1.9965 -0.2306
  114OSM    H7G11910   5.152   1.798  10.233  2.3706  1.5772  3.1894
  114OSM    C8F11911   5.160   1.850  10.018  0.4473 -0.1139 -0.6553
  114OSM    H8F11912   5.050   1.833  10.011  0.2532 -1.3256  3.9134
  114OSM    H8G11913   5.215   1.754  10.007 -0.5401 -0.9567  1.5115
  114OSM    C9F11914   5.210   1.952   9.922 -0.1647  0.4700 -0.7255
  114OSM    H9F11915   5.168   2.052   9.940  0.7762  0.8530 -0.5966
  114OSM   C10F11916   5.279   1.931   9.812 -0.1352 -0.0207  0.5563
  114OSM   H10F11917   5.326   2.021   9.770  0.8434 -0.6878  0.2055
  114OSM   C11F11918   5.328   1.800   9.762  0.3881 -0.4085  0.9711
  114OSM   H11F11919   5.256   1.717   9.774 -0.1110  0.0037  0.8560
  114OSM   H11G11920   5.421   1.785   9.821  0.3990 -0.8790  0.8363
  114OSM   C12F11921   5.360   1.810   9.613 -0.0477 -0.6919  0.0549
  114OSM   H12F11922   5.277   1.842   9.547  0.1904  0.2740  0.2170
  114OSM   H12G11923   5.387   1.708   9.580 -0.0840 -0.3624 -1.0221
  114OSM   C13F11924   5.486   1.900   9.592  0.6563  0.4856 -0.6414
  114OSM   H13F11925   5.543   1.890   9.687 -2.3046 -0.4528  1.1057
  114OSM   H13G11926   5.462   2.009   9.596  0.6758  0.4292  1.9016
  114OSM   C14F11927   5.571   1.863   9.473 -0.0257 -0.1364  0.5444
  114OSM   H14F11928   5.618   1.764   9.492 -1.2634 -0.5257  1.6259
  114OSM   H14G11929   5.652   1.937   9.457  0.4730 -0.8245 -0.1134
  114OSM   C15F11930   5.490   1.858   9.341 -0.0062  0.8771  0.0888
  114OSM   H15F11931   5.447   1.958   9.319  1.2556  1.2314 -0.8292
  114OSM   H15G11932   5.403   1.795   9.371  0.5870  0.7068  1.4687
  114OSM   C16F11933   5.584   1.803   9.236  0.2447 -0.2829 -0.0473
  114OSM   H16F11934   5.603   1.696   9.257  0.3606 -0.0346  1.0975
  114OSM   H16G11935   5.685   1.850   9.240 -0.4657  1.1593  1.8229
  114OSM   C17F11936   5.530   1.827   9.089  0.1052 -0.6545 -0.0022
  114OSM   H17F11937   5.621   1.825   9.025  0.1145 -0.8868  0.0178
  114OSM   H17G11938   5.486   1.929   9.086 -0.2756 -0.8505 -3.1745
  114OSM   C18F11939   5.429   1.726   9.034  0.5788 -0.0231  0.4764
  114OSM   H18F11940   5.477   1.626   9.041  0.1260 -0.2632  0.1970
  114OSM   H18G11941   5.415   1.753   8.927  1.7907  1.4879  0.6934
  114OSM   H18H11942   5.338   1.711   9.097 -0.3249  2.9186 -0.0270
  115OSM      N11943   0.610   5.788   5.721  0.5346 -0.6942 -0.2844
  115OSM    C1511944   0.523   5.730   5.608 -0.4319  0.1659  0.3378
  115OSM   H15A11945   0.549   5.784   5.518 -1.6506  0.8882  0.4088
  115OSM   H15B11946   0.418   5.746   5.631 -1.0350  1.0294 -2.6462
  115OSM   H15C11947   0.546   5.626   5.590 -1.4138  0.2407 -1.5021
  115OSM    C1411948   0.752   5.765   5.708 -0.8952 -0.0440 -0.1799
  115OSM   H14A11949   0.777   5.661   5.717 -1.7124 -0.0940  1.8307
  115OSM   H14B11950   0.801   5.811   5.793  1.4131 -1.0328 -0.9369
  115OSM   H14C11951   0.804   5.810   5.624 -0.2695 -1.0020 -0.3201
  115OSM    C1311952   0.575   5.935   5.715 -0.2932  0.0666  0.2440
  115OSM   H13A11953   0.608   5.969   5.618 -0.3800 -0.8837 -0.1275
  115OSM   H13B11954   0.630   5.998   5.784 -1.9575  0.8153  0.9029
  115OSM   H13C11955   0.471   5.953   5.734 -0.0222  2.3508 -0.2914
  115OSM    C1211956   0.565   5.722   5.857  0.0065 -0.3789 -0.2674
  115OSM   H12A11957   0.575   5.615   5.854 -0.8166 -0.4684  0.1295
  115OSM   H12B11958   0.461   5.746   5.871 -0.3250 -0.7303 -2.0369
  115OSM    C1111959   0.640   5.763   5.980  0.2512  0.6575 -0.6053
  115OSM   H11A11960   0.749   5.744   5.969  0.7050  0.4306  3.6311
  115OSM   H11B11961   0.611   5.707   6.071 -1.3298 -0.0784 -1.5437
  115OSM      P11962   0.497   5.942   6.106 -0.1772 -0.5659  0.1503
  115OSM    O1311963   0.499   6.089   6.114 -0.5828 -0.4056  0.5996
  115OSM    O1411964   0.371   5.870   6.078  0.9612 -0.1089  0.1499
  115OSM    O1111965   0.561   5.888   6.240 -0.6638  0.1720  0.1304
  115OSM    O1211966   0.613   5.902   6.003  0.3653 -0.7274  0.4651
  115OSM    C1S11967   0.700   5.923   6.276 -0.0816  0.4162 -0.2885
  115OSM    H1S11968   0.717   6.033   6.279  1.0082  0.2067  3.7390
  115OSM    H1T11969   0.769   5.890   6.196 -1.1931 -1.8666 -0.3543
  115OSM     NF11970   0.875   5.921   6.453 -0.4087 -0.8980 -0.3091
  115OSM    HNF11971   0.952   5.858   6.449  1.4919  1.1505  2.1673
  115OSM    C2S11972   0.743   5.870   6.415 -0.3633 -0.5965  0.1473
  115OSM    H2S11973   0.680   5.902   6.501 -0.4400 -0.0471 -0.1112
  115OSM    C3S11974   0.737   5.715   6.423  0.5448  0.4278  0.0527
  115OSM    H3S11975   0.825   5.680   6.365  0.4626  0.3325 -0.0159
  115OSM     O311976   0.621   5.664   6.358  0.4590  0.1276 -0.0378
  115OSM    HO311977   0.577   5.743   6.326  1.8708  0.8379 -0.2548
  115OSM    C4S11978   0.751   5.665   6.562  0.7364 -0.4288 -0.7686
  115OSM    H4S11979   0.855   5.645   6.592  0.8035 -0.7453 -1.2020
  115OSM    C5S11980   0.657   5.642   6.659 -0.0361 -0.1881 -0.1098
  115OSM    H5S11981   0.549   5.658   6.645 -0.2143  0.9161  2.2890
  115OSM    C6S11982   0.692   5.608   6.800  0.1590  0.1144  0.0530
  115OSM    H6S11983   0.791   5.556   6.800  0.5761  0.8723 -1.0163
  115OSM    H6T11984   0.621   5.529   6.831 -0.6865  1.6115  1.9816
  115OSM    C7S11985   0.675   5.722   6.893  0.1651 -0.5536  0.1760
  115OSM    H7S11986   0.578   5.774   6.877  1.2495  0.7401 -2.6742
  115OSM    H7T11987   0.754   5.797   6.869  2.8210 -2.6368  2.0706
  115OSM    C8S11988   0.689   5.694   7.043 -0.4449  0.1677 -0.0209
  115OSM    H8S11989   0.605   5.630   7.077 -1.2085 -0.3821 -2.8168
  115OSM    H8T11990   0.690   5.794   7.092 -0.5720 -0.4270  1.2314
  115OSM    C9S11991   0.817   5.621   7.074 -0.4040 -0.4643 -0.2899
  115OSM    H9S11992   0.910   5.680   7.061 -1.8549  2.4871  2.2720
  115OSM    H9T11993   0.822   5.525   7.017 -0.5179 -0.3364 -0.5131
  115OSM   C10S11994   0.830   5.575   7.218  0.0973 -0.6684  0.8876
  115OSM   H10S11995   0.746   5.506   7.235 -2.3405  1.6018 -1.4630
  115OSM   H10T11996   0.820   5.665   7.283 -0.2566  0.5590 -0.8124
  115OSM   C11S11997   0.969   5.501   7.251 -0.1533 -0.2471 -0.6408
  115OSM   H11S11998   1.044   5.548   7.183  1.1371  1.7169  2.0284
  115OSM   H11T11999   0.943   5.395   7.233  0.1005 -0.6826  1.3693
  115OSM   C12S12000   1.021   5.544   7.385 -0.5381 -0.3948 -0.6183
  115OSM   H12S12001   0.939   5.535   7.459  0.2124 -0.0268  0.2694
  115OSM   H12T12002   1.039   5.653   7.374 -5.4239  0.8666  2.2977
  115OSM   C13S12003   1.135   5.443   7.428  0.5156  0.5923 -0.4097
  115OSM   H13S12004   1.094   5.341   7.416  0.9093  0.3159  0.5977
  115OSM   H13T12005   1.154   5.454   7.537 -0.7433  0.1236 -0.1457
  115OSM   C14S12006   1.256   5.465   7.351 -0.4386 -0.2353 -0.7542
  115OSM   H14S12007   1.293   5.569   7.364 -1.0114 -0.2743  1.2748
  115OSM   H14T12008   1.237   5.447   7.243  0.4906  1.9387 -1.3161
  115OSM   C15S12009   1.378   5.372   7.387 -0.3115  0.2330 -0.1006
  115OSM   H15S12010   1.354   5.269   7.353 -0.3683  0.5379 -0.9939
  115OSM   H15T12011   1.402   5.389   7.494 -1.9558  1.0290  0.1611
  115OSM   C16S12012   1.493   5.422   7.302 -0.9375  0.7710 -0.6589
  115OSM   H16S12013   1.515   5.525   7.338 -0.0722 -0.8542  3.7716
  115OSM   H16T12014   1.447   5.420   7.200 -1.3948 -0.1888 -0.4402
  115OSM   C17S12015   1.616   5.343   7.304 -0.3684 -0.3261 -0.2308
  115OSM   H17S12016   1.589   5.236   7.293 -1.4781 -0.1569  0.7127
  115OSM   H17T12017   1.658   5.366   7.404 -3.3979  0.6014  0.8882
  115OSM   C18S12018   1.712   5.398   7.199  0.0617  0.4245  0.8151
  115OSM   H18S12019   1.810   5.346   7.206  0.8096  1.3714 -2.0606
  115OSM   H18T12020   1.730   5.508   7.210  1.1994  0.1165  2.2392
  115OSM   H18U12021   1.678   5.384   7.095  0.6287  0.5083  0.6170
  115OSM    C1F12022   0.897   6.053   6.485 -0.4443  0.5983 -0.3948
  115OSM     OF12023   0.802   6.131   6.464 -0.0323 -0.0514 -0.3821
  115OSM    C2F12024   1.027   6.083   6.533 -0.4979  0.2949  0.5273
  115OSM    H2F12025   1.067   6.148   6.453 -2.4554  1.8936  0.8209
  115OSM    H2G12026   1.089   5.991   6.541 -2.9269 -1.4042  0.2195
  115OSM    C3F12027   1.013   6.147   6.672 -0.1967 -0.2679 -0.2790
  115OSM    H3F12028   0.944   6.233   6.673 -0.3168 -0.3050 -2.2399
  115OSM    H3G12029   1.112   6.191   6.698 -0.1786  0.7305 -1.9635
  115OSM    C4F12030   0.985   6.049   6.791  0.2640  0.2182 -0.8654
  115OSM    H4F12031   1.057   5.964   6.781 -1.4843 -1.4507  0.3077
  115OSM    H4G12032   0.885   6.009   6.766 -1.0089  0.5050  3.3639
  115OSM    C5F12033   0.993   6.125   6.928 -0.6435 -0.2720  0.9187
  115OSM    H5F12034   0.913   6.203   6.933  0.6354  1.1054  0.3047
  115OSM    H5G12035   1.097   6.163   6.939 -0.4279 -0.0467 -1.5428
  115OSM    C6F12036   0.962   6.023   7.037  0.5300  0.6887 -0.3814
  115OSM    H6F12037   1.038   5.943   7.022 -0.7370 -1.3817  3.5985
  115OSM    H6G12038   0.871   5.961   7.020  0.5931 -0.9028  4.2886
  115OSM    C7F12039   0.993   6.052   7.185 -0.5380  0.4539 -0.7682
  115OSM    H7F12040   0.933   6.138   7.221 -0.3953 -0.3263  1.4221
  115OSM    H7G12041   1.094   6.099   7.189  0.1082 -0.8138 -1.6653
  115OSM    C8F12042   0.999   5.939   7.297 -0.2015 -0.2550 -0.0947
  115OSM    H8F12043   1.071   5.976   7.374 -0.5362 -1.6527  0.8964
  115OSM    H8G12044   1.042   5.842   7.265 -1.6603 -1.5624  1.8244
  115OSM    C9F12045   0.859   5.920   7.343 -0.3957 -0.3515  0.3162
  115OSM    H9F12046   0.792   5.959   7.264  1.9680  3.6669  0.1402
  115OSM   C10F12047   0.821   5.878   7.467 -0.0956 -0.1206 -0.2615
  115OSM   H10F12048   0.713   5.879   7.487  0.1099 -1.3833  0.9554
  115OSM   C11F12049   0.916   5.839   7.577 -0.1675  0.0374  0.7625
  115OSM   H11F12050   1.023   5.844   7.548 -0.2239 -0.1964  0.5198
  115OSM   H11G12051   0.904   5.729   7.590  0.4617 -0.7768 -4.7108
  115OSM   C12F12052   0.912   5.915   7.712 -0.2295  0.4949 -0.1928
  115OSM   H12F12053   0.943   6.020   7.692  2.4604 -0.2322 -0.0354
  115OSM   H12G12054   0.993   5.876   7.777  0.5240  2.0342 -0.1756
  115OSM   C13F12055   0.782   5.896   7.792  0.1967  0.0242  0.1202
  115OSM   H13F12056   0.695   5.912   7.725  0.2255  2.7454  0.6998
  115OSM   H13G12057   0.781   5.985   7.858 -1.5844  0.0373  0.1049
  115OSM   C14F12058   0.766   5.761   7.871  1.0667 -0.2747  0.1146
  115OSM   H14F12059   0.765   5.676   7.799  0.5423 -1.4089  1.4145
  115OSM   H14G12060   0.660   5.765   7.904  1.4334 -3.1122  1.8638
  115OSM   C15F12061   0.848   5.732   7.992 -0.1048 -0.6155  0.4595
  115OSM   H15F12062   0.838   5.817   8.063 -0.5419 -0.6441  0.4281
  115OSM   H15G12063   0.951   5.724   7.950 -0.4343  1.2760 -0.7879
  115OSM   C16F12064   0.805   5.604   8.060 -0.4130  0.5125  0.1650
  115OSM   H16F12065   0.803   5.516   7.992  1.1260  1.1808 -0.7789
  115OSM   H16G12066   0.701   5.629   8.090 -1.5225 -3.0119 -0.5115
  115OSM   C17F12067   0.886   5.574   8.186  0.1303  0.0169 -0.1111
  115OSM   H17F12068   0.917   5.666   8.241  0.2698 -0.6997  1.0375
  115OSM   H17G12069   0.977   5.520   8.153 -0.9460 -2.1988  0.4231
  115OSM   C18F12070   0.792   5.507   8.285 -0.8378 -0.1936  0.1356
  115OSM   H18F12071   0.851   5.479   8.375  0.4900  1.4306 -0.1871
  115OSM   H18G12072   0.740   5.421   8.238  1.4582 -2.2936  1.3376
  115OSM   H18H12073   0.715   5.582   8.315 -0.7693 -0.2886  0.5585
  116OSM      N12074   0.295   3.299   6.115  0.3291  0.0495 -0.3959
  116OSM    C1512075   0.159   3.274   6.056 -0.1270  0.1377  0.1804
  116OSM   H15A12076   0.144   3.307   5.954  2.8079 -2.3828 -1.1339
  116OSM   H15B12077   0.083   3.332   6.107 -1.0120 -0.9894  0.1528
  116OSM   H15C12078   0.133   3.169   6.055  1.7680 -0.3439 -1.9386
  116OSM    C1412079   0.394   3.258   6.012  0.2388  0.1109 -0.8429
  116OSM   H14A12080   0.369   3.299   5.915  0.2078 -0.9836 -1.2942
  116OSM   H14B12081   0.401   3.152   5.998  1.3989  0.1396 -0.4669
  116OSM   H14C12082   0.496   3.288   6.029  0.7571 -1.9088 -0.2443
  116OSM    C1312083   0.314   3.447   6.144  0.5314  0.6541  0.1046
  116OSM   H13A12084   0.250   3.487   6.221  0.8008  0.0919  0.6335
  116OSM   H13B12085   0.295   3.513   6.061 -0.7705 -0.6492 -0.6583
  116OSM   H13C12086   0.416   3.464   6.176  0.5282  0.3381  0.2946
  116OSM    C1212087   0.323   3.226   6.249 -0.2022  0.3331  0.2244
  116OSM   H12A12088   0.420   3.254   6.287 -0.0718  1.1127 -0.6669
  116OSM   H12B12089   0.329   3.122   6.220 -1.7589  0.0375  0.9389
  116OSM    C1112090   0.226   3.237   6.370 -0.8455 -0.2503  0.6485
  116OSM   H11A12091   0.228   3.340   6.411 -1.2866  0.9006 -2.0857
  116OSM   H11B12092   0.277   3.172   6.444 -0.2785 -0.3291  0.1901
  116OSM      P12093   0.035   3.060   6.373 -0.1083 -0.0917  0.1283
  116OSM    O1312094  -0.093   3.052   6.301 -0.1223  0.3623 -0.0002
  116OSM    O1412095   0.131   2.954   6.337  0.2929  0.1938 -0.7455
  116OSM    O1112096   0.010   3.066   6.534 -0.3032 -0.5201 -0.2637
  116OSM    O1212097   0.093   3.200   6.349  0.0781 -0.3907 -0.3347
  116OSM    C1S12098   0.064   2.968   6.623 -0.1879  0.4394  0.7477
  116OSM    H1S12099   0.174   2.983   6.625 -0.0755 -0.3525  0.5979
  116OSM    H1T12100   0.049   2.863   6.589  2.6233  1.0386 -2.6462
  116OSM     NF12101   0.099   2.918   6.863  0.0404  0.3026  0.4860
  116OSM    HNF12102   0.087   2.819   6.864 -1.2486  0.3696 -3.2899
  116OSM    C2S12103   0.011   2.984   6.771 -0.2442  0.7176  0.2084
  116OSM    H2S12104   0.011   3.095   6.783 -1.0404  0.9562 -1.8717
  116OSM    C3S12105  -0.136   2.948   6.776  0.5588 -0.3746 -0.4638
  116OSM    H3S12106  -0.144   2.838   6.761  2.3194 -0.4705 -0.7289
  116OSM     O312107  -0.216   3.020   6.676 -0.0490 -0.4866  0.1374
  116OSM    HO312108  -0.146   3.068   6.631 -0.7477  1.4402  1.0823
  116OSM    C4S12109  -0.201   2.980   6.909 -0.4906 -0.7397  0.6799
  116OSM    H4S12110  -0.236   2.888   6.958  2.6288 -2.6200 -0.4517
  116OSM    C5S12111  -0.207   3.098   6.977  0.3051  0.3106  0.5381
  116OSM    H5S12112  -0.153   3.187   6.942 -0.1482  0.3218 -0.1579
  116OSM    C6S12113  -0.277   3.112   7.114  0.3813  0.1557 -0.1384
  116OSM    H6S12114  -0.337   3.021   7.134 -0.9557  1.0259 -0.1057
  116OSM    H6T12115  -0.342   3.201   7.128  1.0437  0.3516  1.8378
  116OSM    C7S12116  -0.180   3.119   7.231  0.6477  0.7185 -0.8869
  116OSM    H7S12117  -0.097   3.191   7.216  0.3927  0.8678 -1.5735
  116OSM    H7T12118  -0.134   3.020   7.251 -0.2926  0.8945  2.4762
  116OSM    C8S12119  -0.258   3.155   7.369  0.2544  0.1910  0.1688
  116OSM    H8S12120  -0.343   3.085   7.383 -0.0381  0.3110 -0.9593
  116OSM    H8T12121  -0.302   3.256   7.364  0.8463  0.4747  0.6367
  116OSM    C9S12122  -0.160   3.139   7.489  0.2507 -0.2261 -0.4832
  116OSM    H9S12123  -0.067   3.198   7.474  0.5628 -0.4138  0.6856
  116OSM    H9T12124  -0.135   3.032   7.507 -1.8216 -0.7632 -0.7478
  116OSM   C10S12125  -0.232   3.182   7.624 -0.4904 -0.4822  0.3892
  116OSM   H10S12126  -0.288   3.090   7.650 -1.2596 -1.0368 -2.9099
  116OSM   H10T12127  -0.308   3.261   7.604  0.4127  0.3599  0.2136
  116OSM   C11S12128  -0.130   3.205   7.741  0.4136 -0.6265  0.6594
  116OSM   H11S12129  -0.041   3.256   7.700  0.0357 -2.2238 -2.2519
  116OSM   H11T12130  -0.091   3.104   7.769  1.6141  0.3068  2.5038
  116OSM   C12S12131  -0.180   3.267   7.873 -0.5328  0.5709 -0.1471
  116OSM   H12S12132  -0.241   3.194   7.930  0.6981 -0.6239 -0.3495
  116OSM   H12T12133  -0.252   3.347   7.846  0.7008  1.7069 -0.1317
  116OSM   C13S12134  -0.062   3.328   7.948 -0.3238 -0.0415  0.3102
  116OSM   H13S12135  -0.013   3.398   7.877 -0.4102 -1.3602 -1.0820
  116OSM   H13T12136   0.011   3.251   7.980 -1.2651 -0.4125  1.6236
  116OSM   C14S12137  -0.104   3.405   8.076 -0.0414 -0.1559  0.7034
  116OSM   H14S12138  -0.158   3.499   8.050  0.1565 -0.0291  0.7534
  116OSM   H14T12139  -0.004   3.412   8.122  0.7647  1.2856 -1.2120
  116OSM   C15S12140  -0.184   3.315   8.176  0.0758  0.2962  0.1288
  116OSM   H15S12141  -0.150   3.209   8.171  1.3495  0.7603 -1.4933
  116OSM   H15T12142  -0.290   3.312   8.144 -0.4924  1.5203  1.8508
  116OSM   C16S12143  -0.179   3.357   8.320 -0.3813 -0.5303 -0.7636
  116OSM   H16S12144  -0.232   3.449   8.354 -1.0577 -0.7001 -1.3589
  116OSM   H16T12145  -0.071   3.364   8.346 -0.2381 -1.4198 -1.1103
  116OSM   C17S12146  -0.230   3.248   8.421  0.1893 -0.6984 -0.4391
  116OSM   H17S12147  -0.184   3.261   8.521 -0.0282  0.6234 -0.5034
  116OSM   H17T12148  -0.209   3.141   8.399 -2.0878 -1.5413  1.3699
  116OSM   C18S12149  -0.383   3.258   8.444  0.7537 -0.2082  0.2211
  116OSM   H18S12150  -0.417   3.176   8.511 -1.6255  0.8890  0.4163
  116OSM   H18T12151  -0.431   3.244   8.344 -0.4003  0.4040  0.6721
  116OSM   H18U12152  -0.414   3.354   8.490  1.3354  0.3023 -0.4510
  116OSM    C1F12153   0.216   2.975   6.907  0.8701  0.2109  0.2659
  116OSM     OF12154   0.245   3.087   6.875  0.1744  0.0753 -0.1133
  116OSM    C2F12155   0.301   2.892   6.998  0.3669 -0.3223 -0.4634
  116OSM    H2F12156   0.332   2.804   6.937  3.6830 -0.6252  1.5081
  116OSM    H2G12157   0.236   2.855   7.080 -0.4393  0.6300 -0.6650
  116OSM    C3F12158   0.418   2.973   7.054  0.5398  0.2671 -0.2548
  116OSM    H3F12159   0.383   3.073   7.089 -2.9867 -1.6195  1.8630
  116OSM    H3G12160   0.490   2.989   6.972 -1.3202  0.6597 -1.8340
  116OSM    C4F12161   0.488   2.900   7.175  0.7273  0.5205 -0.3403
  116OSM    H4F12162   0.590   2.943   7.165  1.8267 -2.2059 -1.3807
  116OSM    H4G12163   0.495   2.794   7.141 -0.7432  0.1550  0.4831
  116OSM    C5F12164   0.412   2.925   7.306 -0.8161 -0.1781  0.2241
  116OSM    H5F12165   0.316   2.870   7.313 -0.6664 -0.2374  1.9282
  116OSM    H5G12166   0.384   3.032   7.307 -2.2009 -0.5054 -1.3968
  116OSM    C6F12167   0.502   2.911   7.429  0.3663 -0.4347 -0.8272
  116OSM    H6F12168   0.515   2.801   7.434 -1.8037 -0.7441 -1.3658
  116OSM    H6G12169   0.443   2.947   7.516  0.9955 -1.8952  0.2196
  116OSM    C7F12170   0.635   2.979   7.415  0.0247  0.4380 -0.0027
  116OSM    H7F12171   0.641   3.086   7.387  1.1719  0.3308 -0.1825
  116OSM    H7G12172   0.692   2.923   7.338 -2.7766 -0.5797 -1.4174
  116OSM    C8F12173   0.726   2.973   7.540 -0.8520 -0.0504 -0.5450
  116OSM    H8F12174   0.677   3.030   7.622  0.9732 -0.2268  0.6890
  116OSM    H8G12175   0.817   3.036   7.526 -0.9329  0.4282  1.0213
  116OSM    C9F12176   0.764   2.827   7.572  0.5041  1.1190 -0.2999
  116OSM    H9F12177   0.793   2.772   7.482 -2.3219  1.2089 -1.3064
  116OSM   C10F12178   0.782   2.769   7.692  0.7487 -0.0084 -0.1024
  116OSM   H10F12179   0.804   2.661   7.691 -0.0607 -0.1708 -0.3862
  116OSM   C11F12180   0.761   2.819   7.832 -0.0488 -0.2506  0.1511
  116OSM   H11F12181   0.699   2.912   7.832 -0.0841 -0.2764  0.5012
  116OSM   H11G12182   0.861   2.833   7.877 -0.3777  1.2771  0.4382
  116OSM   C12F12183   0.697   2.709   7.918  0.4591  0.4774 -0.5148
  116OSM   H12F12184   0.770   2.632   7.952 -1.7660 -0.7077  1.6708
  116OSM   H12G12185   0.622   2.665   7.849 -0.6615  0.7894  0.5007
  116OSM   C13F12186   0.612   2.771   8.032  0.1797  0.3618  0.2981
  116OSM   H13F12187   0.531   2.835   7.991  1.2813 -0.2314 -2.9836
  116OSM   H13G12188   0.672   2.838   8.098  0.0777  0.4538  0.2977
  116OSM   C14F12189   0.547   2.667   8.118  0.2195 -0.3002 -0.0676
  116OSM   H14F12190   0.620   2.587   8.142 -1.6109 -1.8434  0.4736
  116OSM   H14G12191   0.468   2.625   8.052 -0.0730  2.2516 -1.4109
  116OSM   C15F12192   0.485   2.720   8.246  0.3740  0.0501  0.2530
  116OSM   H15F12193   0.441   2.819   8.224  2.9084  0.7176 -2.1353
  116OSM   H15G12194   0.570   2.732   8.317 -1.8679  0.1337  3.0025
  116OSM   C16F12195   0.375   2.631   8.305 -0.7279 -0.6180 -0.0099
  116OSM   H16F12196   0.420   2.530   8.319  0.7685  0.0755  0.3274
  116OSM   H16G12197   0.295   2.634   8.228 -1.3138  1.2361  0.6522
  116OSM   C17F12198   0.316   2.680   8.441  0.7719  0.4523  0.5251
  116OSM   H17F12199   0.280   2.782   8.419 -2.2443 -0.9840 -1.5304
  116OSM   H17G12200   0.395   2.685   8.519  2.1948 -0.0590 -0.8703
  116OSM   C18F12201   0.188   2.604   8.479  0.3077 -0.0784 -0.5844
  116OSM   H18F12202   0.137   2.629   8.574  1.0450 -1.4168  0.1802
  116OSM   H18G12203   0.217   2.497   8.491  0.9402 -0.0248 -1.5555
  116OSM   H18H12204   0.113   2.597   8.398 -1.6879 -0.2502  1.2394
  117OSM      N12205   5.468   6.086   6.126 -0.4234 -0.4524 -0.3182
  117OSM    C1512206   5.404   6.170   6.232  0.1637 -0.2943  0.2780
  117OSM   H15A12207   5.324   6.114   6.279 -0.5075 -0.7887 -1.4310
  117OSM   H15B12208   5.363   6.266   6.204 -1.2736 -0.6701  1.0682
  117OSM   H15C12209   5.474   6.181   6.314  0.7383  2.1490 -0.4888
  117OSM    C1412210   5.362   6.051   6.043 -0.0721  0.5123 -0.3447
  117OSM   H14A12211   5.387   5.997   5.953 -1.2694 -2.4294  1.0319
  117OSM   H14B12212   5.305   6.140   6.021 -0.8276 -0.4623 -2.4969
  117OSM   H14C12213   5.290   5.982   6.085 -0.4447  0.9222 -0.3020
  117OSM    C1312214   5.554   6.190   6.054  0.1156  0.0254 -0.0675
  117OSM   H13A12215   5.629   6.224   6.123 -0.5843  0.3989  0.5131
  117OSM   H13B12216   5.492   6.274   6.027  0.0777 -0.6106 -2.1149
  117OSM   H13C12217   5.611   6.141   5.976 -0.5443  0.7148 -0.9869
  117OSM    C1212218   5.544   5.964   6.164 -0.0279 -0.1984 -1.0347
  117OSM   H12A12219   5.633   5.986   6.220 -0.9813  0.2175  0.3370
  117OSM   H12B12220   5.569   5.914   6.071  0.9523  0.3685 -1.0808
  117OSM    C1112221   5.466   5.859   6.243 -0.0613  0.4736 -0.6149
  117OSM   H11A12222   5.542   5.786   6.277  1.3158  1.0990 -2.2699
  117OSM   H11B12223   5.412   5.797   6.168  4.2041 -1.3750 -2.3330
  117OSM      P12224   5.233   5.870   6.356 -0.2292  0.1481 -0.2382
  117OSM    O1312225   5.177   5.914   6.484  0.0506  0.2701  0.4987
  117OSM    O1412226   5.164   5.912   6.237 -0.7248 -0.2804 -0.2431
  117OSM    O1112227   5.237   5.717   6.369  0.8238 -0.2443  0.5264
  117OSM    O1212228   5.381   5.906   6.343  0.1269  0.2884 -0.1892
  117OSM    C1S12229   5.321   5.636   6.441 -0.2095 -0.6947  0.0114
  117OSM    H1S12230   5.359   5.688   6.531  0.3114  3.6566 -2.6035
  117OSM    H1T12231   5.412   5.605   6.384  1.3150 -0.4754  2.2475
  117OSM     NF12232   5.329   5.436   6.583  0.3284  0.0604  0.1907
  117OSM    HNF12233   5.384   5.360   6.548 -2.0230 -1.6764  0.1019
  117OSM    C2S12234   5.248   5.502   6.486 -0.5208  0.3614  0.7372
  117OSM    H2S12235   5.155   5.535   6.537 -1.9118  0.8639 -1.9932
  117OSM    C3S12236   5.209   5.422   6.365  0.4369 -0.0172  0.5052
  117OSM    H3S12237   5.292   5.373   6.310  0.5584 -0.3880  1.0132
  117OSM     O312238   5.138   5.498   6.265 -0.6581 -0.0510 -0.5073
  117OSM    HO312239   5.140   5.584   6.308 -0.4767 -0.9514  1.3720
  117OSM    C4S12240   5.117   5.307   6.398  0.6160 -0.1338 -0.5657
  117OSM    H4S12241   5.021   5.335   6.445  2.2030  1.1815  2.0071
  117OSM    C5S12242   5.140   5.179   6.382 -0.2017 -0.9757 -0.2041
  117OSM    H5S12243   5.230   5.150   6.326  1.0136  3.0771 -0.4693
  117OSM    C6S12244   5.061   5.056   6.411 -0.3276  0.4368  0.7654
  117OSM    H6S12245   5.048   5.009   6.311  0.6222 -2.6324  2.0350
  117OSM    H6T12246   4.957   5.067   6.449 -0.4654 -0.3968  0.6477
  117OSM    C7S12247   5.137   4.958   6.504 -0.1529 -0.3727  0.7639
  117OSM    H7S12248   5.242   4.931   6.477 -0.1136  0.8632 -0.3746
  117OSM    H7T12249   5.083   4.863   6.521  0.0063 -0.5074  0.5040
  117OSM    C8S12250   5.125   5.008   6.655 -0.0250  0.0097  0.0131
  117OSM    H8S12251   5.021   5.035   6.683 -0.0776  1.4163 -1.4346
  117OSM    H8T12252   5.192   5.096   6.663  1.8628 -1.4678  0.9565
  117OSM    C9S12253   5.175   4.899   6.755  0.3810 -0.2237  0.0592
  117OSM    H9S12254   5.277   4.867   6.723  0.5506  1.3053 -0.9588
  117OSM    H9T12255   5.112   4.807   6.751 -0.3554  0.2978 -0.3188
  117OSM   C10S12256   5.179   4.941   6.900  0.2551  0.9074  0.0062
  117OSM   H10S12257   5.259   5.017   6.915 -0.4211  1.8812 -1.2308
  117OSM   H10T12258   5.206   4.850   6.958  0.0562  0.4506 -0.6181
  117OSM   C11S12259   5.045   4.982   6.961  0.2535  0.0857  0.2190
  117OSM   H11S12260   4.986   4.889   6.977  0.4891  0.0439  0.8449
  117OSM   H11T12261   4.981   5.042   6.893 -2.0018 -1.2996  1.0762
  117OSM   C12S12262   5.068   5.045   7.102  0.4230 -0.6190  0.5144
  117OSM   H12S12263   5.133   5.135   7.093 -0.5761  0.1693  1.0141
  117OSM   H12T12264   5.120   4.964   7.157 -0.5488 -0.9383  0.9656
  117OSM   C13S12265   4.946   5.087   7.194 -0.1494  0.0596  0.1828
  117OSM   H13S12266   4.891   4.993   7.218 -0.0797  0.1316  0.6346
  117OSM   H13T12267   4.876   5.154   7.141 -0.5431 -1.0953 -0.7976
  117OSM   C14S12268   4.988   5.142   7.332  0.8217  0.4643  0.4399
  117OSM   H14S12269   4.910   5.186   7.397 -0.6935 -3.7568  1.6488
  117OSM   H14T12270   5.059   5.226   7.313  1.6612 -0.6221 -1.3660
  117OSM   C15S12271   5.049   5.028   7.421 -0.4899  0.0290 -0.0375
  117OSM   H15S12272   5.134   4.988   7.362 -0.3916 -1.6996  1.2297
  117OSM   H15T12273   4.969   4.953   7.437 -0.4429  0.0299  0.2094
  117OSM   C16S12274   5.091   5.071   7.558  0.9518  0.1025  0.4719
  117OSM   H16S12275   5.013   5.129   7.611  0.1990  0.0476 -0.5450
  117OSM   H16T12276   5.174   5.142   7.540  0.9704 -0.2986 -1.1117
  117OSM   C17S12277   5.122   4.961   7.659 -0.1522  0.6794  0.4122
  117OSM   H17S12278   5.034   4.892   7.659 -0.0531  0.5487 -0.2783
  117OSM   H17T12279   5.129   5.008   7.759 -0.1784 -0.5568  1.0113
  117OSM   C18S12280   5.256   4.890   7.632  0.4424  0.0774  0.2060
  117OSM   H18S12281   5.296   4.829   7.716 -0.3550  1.6273  1.7426
  117OSM   H18T12282   5.326   4.971   7.602  0.8661 -0.6655 -0.8657
  117OSM   H18U12283   5.262   4.825   7.542  2.8310  0.1981  0.2418
  117OSM    C1F12284   5.337   5.473   6.711 -0.4906  0.2164  0.1825
  117OSM     OF12285   5.276   5.575   6.739  0.0020 -0.0593 -0.0551
  117OSM    C2F12286   5.429   5.402   6.815 -0.1576 -0.4280 -0.5531
  117OSM    H2F12287   5.507   5.478   6.837 -1.5260  0.3666  1.7989
  117OSM    H2G12288   5.479   5.313   6.772  1.6033 -1.0636  2.6036
  117OSM    C3F12289   5.373   5.371   6.957  0.4541 -0.2061  0.0659
  117OSM    H3F12290   5.277   5.319   6.939  1.2231 -2.1844  1.4546
  117OSM    H3G12291   5.353   5.474   6.994 -1.1122 -0.4247 -0.1393
  117OSM    C4F12292   5.459   5.276   7.044  0.5621 -0.2615  0.0520
  117OSM    H4F12293   5.561   5.318   7.053 -0.0006  0.9329  0.8988
  117OSM    H4G12294   5.474   5.179   6.991 -2.3417  1.0120 -3.2889
  117OSM    C5F12295   5.410   5.265   7.188  0.0368  0.1939  0.3605
  117OSM    H5F12296   5.343   5.177   7.196  2.1273 -1.3533  1.4137
  117OSM    H5G12297   5.354   5.353   7.226 -1.2428 -0.5758  0.3205
  117OSM    C6F12298   5.521   5.238   7.295  0.5782  0.4236  0.2649
  117OSM    H6F12299   5.587   5.328   7.303 -0.8054  1.3931  0.8715
  117OSM    H6G12300   5.598   5.165   7.261  0.6984  0.9755 -0.6869
  117OSM    C7F12301   5.463   5.208   7.431  0.3099  0.1643 -0.0573
  117OSM    H7F12302   5.473   5.103   7.465  2.2712  1.1273  2.5136
  117OSM    H7G12303   5.354   5.226   7.415  0.2394 -0.2482 -0.0238
  117OSM    C8F12304   5.519   5.289   7.551  1.2304 -0.6264 -0.4158
  117OSM    H8F12305   5.454   5.261   7.636  0.6494 -0.5808 -0.8476
  117OSM    H8G12306   5.506   5.398   7.534 -0.9216 -0.4308  2.0798
  117OSM    C9F12307   5.666   5.267   7.565  0.3652 -0.4982 -0.4030
  117OSM    H9F12308   5.727   5.321   7.491  1.9384  1.0420  1.9655
  117OSM   C10F12309   5.724   5.186   7.651 -0.3987  0.1800  0.1523
  117OSM   H10F12310   5.834   5.180   7.661 -0.4735 -1.7231 -0.1107
  117OSM   C11F12311   5.652   5.093   7.748  0.7320 -0.3680  0.3360
  117OSM   H11F12312   5.686   4.989   7.727  1.4187 -0.3533  1.3414
  117OSM   H11G12313   5.543   5.098   7.727  0.3042  0.6785  2.5969
  117OSM   C12F12314   5.661   5.132   7.898  0.2073 -0.7615  0.2865
  117OSM   H12F12315   5.757   5.087   7.932  0.5300 -1.3175 -1.2947
  117OSM   H12G12316   5.575   5.100   7.960 -0.7616 -1.7522 -1.5235
  117OSM   C13F12317   5.666   5.289   7.918  0.3068 -0.0613  0.1400
  117OSM   H13F12318   5.587   5.340   7.859  1.8278  1.6034 -0.4920
  117OSM   H13G12319   5.767   5.329   7.897  0.1986  0.7167  1.0702
  117OSM   C14F12320   5.632   5.326   8.063  0.5249 -0.8632  1.2225
  117OSM   H14F12321   5.690   5.415   8.092  1.3431 -1.3114  0.9636
  117OSM   H14G12322   5.664   5.240   8.126  1.7923 -1.0143  0.3883
  117OSM   C15F12323   5.482   5.364   8.092 -0.5325  0.4042 -0.3531
  117OSM   H15F12324   5.410   5.279   8.096 -0.2136  0.1808  0.6661
  117OSM   H15G12325   5.450   5.425   8.005  1.4959  1.6111 -0.2832
  117OSM   C16F12326   5.461   5.446   8.220  0.1934  0.3769 -0.4084
  117OSM   H16F12327   5.352   5.457   8.242  0.1177 -0.6145 -0.2863
  117OSM   H16G12328   5.494   5.551   8.205 -2.1512  1.4042  1.2898
  117OSM   C17F12329   5.525   5.388   8.345 -0.1645  0.6917 -0.1896
  117OSM   H17F12330   5.631   5.368   8.318  0.0544 -0.6455  1.5710
  117OSM   H17G12331   5.525   5.465   8.425  0.6115 -0.8661  1.3413
  117OSM   C18F12332   5.469   5.252   8.384  0.2400 -0.1848  0.4817
  117OSM   H18F12333   5.362   5.257   8.413 -1.2232 -3.3864 -3.7858
  117OSM   H18G12334   5.541   5.201   8.452  1.1175 -2.0637 -1.7575
  117OSM   H18H12335   5.462   5.182   8.297 -0.9327  1.1416 -0.5141
  118OSM      N12336   2.541   0.879   6.245  0.1018  0.0984 -0.0164
  118OSM    C1512337   2.421   0.959   6.216  0.3457 -0.5638 -0.1873
  118OSM   H15A12338   2.379   0.920   6.124  3.6009 -0.6731 -1.6911
  118OSM   H15B12339   2.448   1.063   6.206 -0.1649 -0.4521 -0.4311
  118OSM   H15C12340   2.357   0.953   6.303  0.9838 -0.7091  0.2811
  118OSM    C1412341   2.626   0.880   6.127 -0.7294 -0.2678 -0.7413
  118OSM   H14A12342   2.708   0.809   6.127 -0.7677 -0.3794  1.8981
  118OSM   H14B12343   2.671   0.978   6.118  2.6638 -1.8859 -2.3267
  118OSM   H14C12344   2.567   0.856   6.040 -1.9353  0.0792 -0.0367
  118OSM    C1312345   2.611   0.937   6.356 -0.1708  0.8660 -0.3040
  118OSM   H13A12346   2.563   0.927   6.452 -1.7913  0.1083 -1.1811
  118OSM   H13B12347   2.636   1.039   6.329 -0.8613  0.8425 -1.0608
  118OSM   H13C12348   2.704   0.882   6.363 -1.3059 -0.9752  0.5051
  118OSM    C1212349   2.510   0.736   6.270 -0.3167 -0.4229  0.2914
  118OSM   H12A12350   2.602   0.683   6.285  0.7009  1.8933  2.7068
  118OSM   H12B12351   2.459   0.690   6.187 -1.5926 -0.9129  1.3279
  118OSM    C1112352   2.416   0.704   6.389 -0.1021 -0.5034 -0.5091
  118OSM   H11A12353   2.470   0.732   6.482 -0.2084  0.3650 -0.7062
  118OSM   H11B12354   2.409   0.593   6.399  0.3054 -0.4213  0.7119
  118OSM      P12355   2.168   0.696   6.308  0.5491  0.5057 -0.2099
  118OSM    O1312356   2.125   0.797   6.212  0.4495 -0.7071 -0.2756
  118OSM    O1412357   2.191   0.565   6.248 -0.0159 -0.1695  0.0225
  118OSM    O1112358   2.059   0.684   6.427 -0.4954  0.1094 -0.7835
  118OSM    O1212359   2.286   0.766   6.383 -0.1880 -0.2580 -0.0978
  118OSM    C1S12360   2.091   0.609   6.545 -0.6166  0.1390 -0.3821
  118OSM    H1S12361   2.186   0.638   6.595  0.0076 -1.6346 -0.5362
  118OSM    H1T12362   2.094   0.504   6.510 -0.1098  0.8197 -2.4659
  118OSM     NF12363   2.019   0.581   6.777  0.1701  0.3759  0.6318
  118OSM    HNF12364   1.987   0.494   6.814 -3.2170  0.6573 -1.4316
  118OSM    C2S12365   1.968   0.614   6.645  0.8231  0.3558  0.5962
  118OSM    H2S12366   1.945   0.723   6.656 -0.1256  0.3162 -0.7911
  118OSM    C3S12367   1.852   0.528   6.595  0.4629  0.8413  0.7259
  118OSM    H3S12368   1.875   0.420   6.585  0.1394  0.8247  0.0902
  118OSM     O312369   1.823   0.580   6.462 -0.0960 -0.3771  0.5297
  118OSM    HO312370   1.888   0.647   6.439 -0.1887  0.4927  2.7042
  118OSM    C4S12371   1.733   0.542   6.674  0.5004 -0.1065 -0.5608
  118OSM    H4S12372   1.712   0.646   6.704  0.3211 -0.5983  1.0751
  118OSM    C5S12373   1.655   0.445   6.730 -0.6690 -0.0459  0.1133
  118OSM    H5S12374   1.669   0.338   6.705 -0.8497 -0.5672  2.1685
  118OSM    C6S12375   1.546   0.472   6.829  0.3507  0.1815  0.4035
  118OSM    H6S12376   1.456   0.408   6.813  0.4481 -0.2834  1.5824
  118OSM    H6T12377   1.512   0.576   6.813 -0.9788 -0.3908 -0.6460
  118OSM    C7S12378   1.609   0.450   6.967  0.5930  0.6836 -0.3968
  118OSM    H7S12379   1.691   0.520   6.995 -1.8229  3.6175 -0.3210
  118OSM    H7T12380   1.643   0.345   6.975  0.4040  0.5940 -0.7407
  118OSM    C8S12381   1.496   0.471   7.066 -0.8916  0.4786  0.1806
  118OSM    H8S12382   1.412   0.409   7.029  2.1630 -2.8709 -1.4937
  118OSM    H8T12383   1.461   0.576   7.076 -2.6466  0.2948 -3.5802
  118OSM    C9S12384   1.549   0.426   7.206 -0.1948 -0.3920 -0.6203
  118OSM    H9S12385   1.656   0.455   7.204  0.4820 -2.7908 -0.1838
  118OSM    H9T12386   1.558   0.315   7.209  2.5340 -0.1705  0.4597
  118OSM   C10S12387   1.467   0.491   7.319  0.6024 -0.2973  0.3125
  118OSM   H10S12388   1.357   0.476   7.308  0.1803  1.5058  1.8114
  118OSM   H10T12389   1.484   0.601   7.317 -1.1857 -0.0089 -0.2633
  118OSM   C11S12390   1.503   0.438   7.464 -0.0528  0.4441 -0.1086
  118OSM   H11S12391   1.613   0.445   7.479 -0.0557  0.1730  0.0464
  118OSM   H11T12392   1.474   0.331   7.474 -2.5710  0.8656 -2.3616
  118OSM   C12S12393   1.426   0.511   7.577  0.4877 -0.8744 -0.3399
  118OSM   H12S12394   1.315   0.506   7.580  0.5110 -0.2824  1.4068
  118OSM   H12T12395   1.441   0.617   7.549 -1.0865 -1.1497 -2.4401
  118OSM   C13S12396   1.483   0.497   7.717 -0.1340  0.0972  0.0564
  118OSM   H13S12397   1.587   0.535   7.720  0.0847 -0.5783  1.7671
  118OSM   H13T12398   1.486   0.386   7.722 -0.2948  0.0321 -1.1526
  118OSM   C14S12399   1.398   0.566   7.819  0.6068  0.0418 -0.1085
  118OSM   H14S12400   1.290   0.549   7.797  0.9870 -2.0920 -0.3796
  118OSM   H14T12401   1.419   0.675   7.822  3.2646 -0.3942 -1.1018
  118OSM   C15S12402   1.435   0.515   7.956 -0.6271  0.4842  0.4840
  118OSM   H15S12403   1.543   0.499   7.977 -0.6961 -0.8388 -0.1193
  118OSM   H15T12404   1.391   0.413   7.962 -1.5998  0.7751 -1.2756
  118OSM   C16S12405   1.368   0.602   8.061  0.2140  0.1671 -0.3379
  118OSM   H16S12406   1.258   0.604   8.042 -0.0266 -1.0312  0.8173
  118OSM   H16T12407   1.415   0.702   8.051  0.3160  0.1351 -0.1860
  118OSM   C17S12408   1.381   0.535   8.200  0.1387 -0.1317 -0.1473
  118OSM   H17S12409   1.483   0.507   8.235 -0.1531 -1.6892 -0.5025
  118OSM   H17T12410   1.319   0.443   8.202 -2.2110  1.3111 -2.9936
  118OSM   C18S12411   1.321   0.631   8.307 -0.3925 -0.5011  0.0636
  118OSM   H18S12412   1.381   0.725   8.302 -0.9973  0.1382  3.3689
  118OSM   H18T12413   1.332   0.601   8.413  1.0075 -1.4549 -0.3269
  118OSM   H18U12414   1.213   0.647   8.289  0.0455 -0.1942 -2.5463
  118OSM    C1F12415   2.106   0.654   6.842  0.1669 -0.2444 -0.3247
  118OSM     OF12416   2.165   0.752   6.790 -1.0102  0.2913 -0.2565
  118OSM    C2F12417   2.128   0.605   6.984 -0.3206 -0.3451 -0.6207
  118OSM    H2F12418   2.168   0.502   6.974  2.3857  0.5796  0.1990
  118OSM    H2G12419   2.024   0.609   7.024 -0.7278  1.4451 -1.7870
  118OSM    C3F12420   2.228   0.700   7.048  0.6035  0.6376  0.3544
  118OSM    H3F12421   2.185   0.801   7.065  2.4965  1.6105 -0.4973
  118OSM    H3G12422   2.307   0.716   6.972 -1.6717  1.8071 -1.8476
  118OSM    C4F12423   2.281   0.645   7.181  0.7965  0.1529  0.2571
  118OSM    H4F12424   2.357   0.721   7.209  1.3241  0.3939 -1.7635
  118OSM    H4G12425   2.327   0.544   7.176  1.9102  0.5370  2.0839
  118OSM    C5F12426   2.167   0.650   7.275  0.3220  0.4596 -0.9520
  118OSM    H5F12427   2.110   0.555   7.282  0.3350  0.6180  1.3957
  118OSM    H5G12428   2.095   0.731   7.250 -0.0131  0.5854  0.4227
  118OSM    C6F12429   2.210   0.668   7.426  0.7079 -0.0584  1.1075
  118OSM    H6F12430   2.114   0.683   7.479  0.3640  0.8562  0.2523
  118OSM    H6G12431   2.261   0.767   7.433 -0.5136  0.5603  1.4085
  118OSM    C7F12432   2.281   0.554   7.488  0.0568 -0.1446  0.4090
  118OSM    H7F12433   2.376   0.525   7.437 -0.5036 -1.1243 -0.0957
  118OSM    H7G12434   2.220   0.461   7.488  0.7314 -0.6066  1.7637
  118OSM    C8F12435   2.329   0.584   7.632  0.0365  0.4179 -0.5287
  118OSM    H8F12436   2.383   0.681   7.637 -1.6313  1.4041 -1.0656
  118OSM    H8G12437   2.395   0.501   7.665 -1.0187 -1.0373 -1.9932
  118OSM    C9F12438   2.219   0.577   7.735 -0.0336 -0.4486 -0.0624
  118OSM    H9F12439   2.120   0.551   7.696  0.3427 -0.5876 -0.9465
  118OSM   C10F12440   2.229   0.575   7.869 -0.0288 -0.3720 -0.1414
  118OSM   H10F12441   2.141   0.579   7.935  0.5573 -3.9053  1.0006
  118OSM   C11F12442   2.367   0.565   7.931  0.1248  0.5333 -0.1440
  118OSM   H11F12443   2.366   0.631   8.021  0.0618  0.1848  0.1125
  118OSM   H11G12444   2.444   0.610   7.864 -0.3671  1.4332 -0.1050
  118OSM   C12F12445   2.407   0.423   7.969  0.1666 -0.1085  0.1297
  118OSM   H12F12446   2.424   0.364   7.876  2.2170 -0.4170  0.6731
  118OSM   H12G12447   2.331   0.378   8.036  0.0887  2.0892  1.5674
  118OSM   C13F12448   2.543   0.401   8.036  0.1917  0.0277 -0.3394
  118OSM   H13F12449   2.540   0.427   8.144  2.2076  0.3467 -0.3307
  118OSM   H13G12450   2.608   0.475   7.985 -0.5444  3.1123  3.0167
  118OSM   C14F12451   2.607   0.259   8.014  0.0356  0.1068 -0.3129
  118OSM   H14F12452   2.717   0.269   8.015  0.3811 -3.0105 -1.8787
  118OSM   H14G12453   2.581   0.231   7.910  0.9039  0.9375 -0.7512
  118OSM   C15F12454   2.553   0.157   8.111 -0.4108 -0.3747 -1.2689
  118OSM   H15F12455   2.448   0.128   8.086 -1.1733  1.8674 -0.7417
  118OSM   H15G12456   2.554   0.194   8.215  0.7781  0.0451 -1.4302
  118OSM   C16F12457   2.637   0.034   8.089 -0.0872 -0.6874  0.2357
  118OSM   H16F12458   2.743   0.064   8.109 -0.2208 -0.9705  1.4010
  118OSM   H16G12459   2.634  -0.004   7.985 -0.6931  3.2455 -1.2673
  118OSM   C17F12460   2.613  -0.086   8.186  0.4444 -0.8804 -0.1743
  118OSM   H17F12461   2.505  -0.094   8.213  0.2260 -0.4839 -0.9139
  118OSM   H17G12462   2.673  -0.065   8.277 -0.6509 -0.2103  0.4136
  118OSM   C18F12463   2.665  -0.222   8.124  0.1694  0.3978  0.7083
  118OSM   H18F12464   2.756  -0.196   8.065  0.9657 -3.0529  0.2694
  118OSM   H18G12465   2.584  -0.249   8.053  0.7056  0.8506 -0.0867
  118OSM   H18H12466   2.686  -0.301   8.199 -1.0896 -0.4193  0.2074
  119OSM      N12467   3.354   6.550   6.082 -0.3237 -0.2986 -0.4265
  119OSM    C1512468   3.302   6.682   6.036 -0.9092  0.5662 -0.0402
  119OSM   H15A12469   3.344   6.757   6.103  1.9626 -0.4151 -0.6539
  119OSM   H15B12470   3.194   6.678   6.037 -0.9104 -0.8519 -2.6521
  119OSM   H15C12471   3.341   6.708   5.939  0.0314 -0.3176  0.0888
  119OSM    C1412472   3.331   6.452   5.968  0.8467  0.4057 -0.1804
  119OSM   H14A12473   3.355   6.349   5.993 -0.0015 -0.1469 -1.5902
  119OSM   H14B12474   3.395   6.476   5.885  0.2892  2.1335 -0.1291
  119OSM   H14C12475   3.229   6.463   5.935 -0.5381 -1.0347  3.3575
  119OSM    C1312476   3.501   6.559   6.106  0.0559  0.4142  0.4396
  119OSM   H13A12477   3.525   6.627   6.186 -0.3158 -0.4977  1.3436
  119OSM   H13B12478   3.560   6.582   6.019  0.5915 -1.3732  0.2993
  119OSM   H13C12479   3.538   6.460   6.129  0.5612  0.3856 -0.4973
  119OSM    C1212480   3.281   6.495   6.209  0.5590  0.1215  0.0552
  119OSM   H12A12481   3.333   6.538   6.294  0.0798 -1.7427  1.3335
  119OSM   H12B12482   3.298   6.388   6.209  0.5401  0.1167 -0.4721
  119OSM    C1112483   3.131   6.524   6.217 -0.0264 -0.0406 -0.5638
  119OSM   H11A12484   3.115   6.632   6.241  0.7426 -0.5293  2.2579
  119OSM   H11B12485   3.092   6.466   6.303  0.5411 -0.0976 -0.3432
  119OSM      P12486   2.946   6.562   6.039  0.0513 -0.2921  0.2290
  119OSM    O1312487   3.012   6.658   5.947  0.1964 -0.1194 -0.3216
  119OSM    O1412488   2.833   6.479   5.983 -0.3939 -0.0806  0.6235
  119OSM    O1112489   2.884   6.644   6.160  0.0605  0.3269  0.0743
  119OSM    O1212490   3.062   6.485   6.098  0.3021  0.7941  0.4157
  119OSM    C1S12491   2.799   6.578   6.258 -0.0277 -0.0662 -0.9179
  119OSM    H1S12492   2.818   6.469   6.271  1.5719  0.4404  1.2179
  119OSM    H1T12493   2.691   6.583   6.234 -0.3151 -1.6917  0.0149
  119OSM     NF12494   2.742   6.569   6.499  0.6997  0.6746 -0.4829
  119OSM    HNF12495   2.663   6.615   6.539 -0.6002 -0.6421 -1.4717
  119OSM    C2S12496   2.824   6.636   6.398 -0.8422 -0.2172  0.1661
  119OSM    H2S12497   2.930   6.610   6.415 -0.8595  0.6419  1.6876
  119OSM    C3S12498   2.807   6.790   6.397  0.2008  1.2585  0.5055
  119OSM    H3S12499   2.705   6.819   6.365 -0.9098 -0.2644  2.5649
  119OSM     O312500   2.899   6.855   6.308 -0.2486  0.1255  0.2522
  119OSM    HO312501   2.923   6.783   6.249 -1.0697  0.4791 -0.5218
  119OSM    C4S12502   2.827   6.862   6.530  0.5282  0.6036  0.1448
  119OSM    H4S12503   2.741   6.923   6.561 -0.4013 -0.0020 -1.1870
  119OSM    C5S12504   2.936   6.862   6.608  0.4456 -0.2487 -0.4753
  119OSM    H5S12505   3.024   6.805   6.578 -0.4858 -1.2518 -1.3186
  119OSM    C6S12506   2.960   6.940   6.735 -0.9016  0.4912 -0.3260
  119OSM    H6S12507   2.947   7.049   6.721 -1.1638  0.4091 -0.7416
  119OSM    H6T12508   3.069   6.938   6.753 -0.7549 -1.0140 -1.3224
  119OSM    C7S12509   2.886   6.886   6.854 -0.1481  0.2751  0.3315
  119OSM    H7S12510   2.933   6.792   6.888  0.0785  0.6284  0.9917
  119OSM    H7T12511   2.781   6.854   6.833 -0.1967  0.2804  0.5688
  119OSM    C8S12512   2.886   6.977   6.972  0.3562  0.8667 -0.3053
  119OSM    H8S12513   2.841   6.915   7.053  0.2397  1.0019 -0.2651
  119OSM    H8T12514   2.823   7.065   6.945 -1.0426 -0.2661 -0.8060
  119OSM    C9S12515   3.028   7.016   7.023  0.0835 -0.3549  0.2277
  119OSM    H9S12516   3.082   7.079   6.949  0.1298 -2.1631 -1.3184
  119OSM    H9T12517   3.086   6.925   7.047  0.1311 -0.7545 -1.3632
  119OSM   C10S12518   3.032   7.111   7.146 -0.5284  0.6618  0.0584
  119OSM   H10S12519   2.990   7.208   7.112 -1.0352  0.6849  0.7306
  119OSM   H10T12520   3.134   7.140   7.181  0.1993  2.0819 -3.1331
  119OSM   C11S12521   2.956   7.063   7.273 -0.4860 -0.3876  0.1045
  119OSM   H11S12522   2.846   7.076   7.265 -0.5991 -1.3493  0.0974
  119OSM   H11T12523   2.989   7.138   7.348 -1.0551  1.0775 -1.0622
  119OSM   C12S12524   2.982   6.917   7.314  0.3372  0.3040  0.0843
  119OSM   H12S12525   3.092   6.904   7.328  0.3817  0.2132 -0.3371
  119OSM   H12T12526   2.956   6.839   7.239 -1.3541 -1.1426  2.1421
  119OSM   C13S12527   2.923   6.867   7.448  1.1579  0.3688 -0.2344
  119OSM   H13S12528   2.949   6.759   7.459  1.6702  0.2319 -2.6836
  119OSM   H13T12529   2.814   6.867   7.430  1.1730  1.6074 -0.3493
  119OSM   C14S12530   2.962   6.954   7.565  0.0832  0.0290  0.0802
  119OSM   H14S12531   2.922   7.056   7.550 -2.4929 -0.7639  1.2056
  119OSM   H14T12532   3.070   6.945   7.586 -0.3316 -2.1080  1.5035
  119OSM   C15S12533   2.896   6.898   7.694  0.3656 -0.2526  0.1279
  119OSM   H15S12534   2.945   6.802   7.723  2.7613  0.9935  0.3499
  119OSM   H15T12535   2.790   6.878   7.669 -0.1459  1.4928  0.8313
  119OSM   C16S12536   2.910   6.995   7.813 -0.3362 -0.2311 -0.2781
  119OSM   H16S12537   2.855   6.961   7.904 -0.4410  1.1548  0.1940
  119OSM   H16T12538   2.860   7.088   7.777  1.2451  0.4388 -0.7611
  119OSM   C17S12539   3.055   7.042   7.851 -0.6657  0.4316 -0.1075
  119OSM   H17S12540   3.097   7.100   7.767 -0.7310 -0.7096 -0.9355
  119OSM   H17T12541   3.118   6.952   7.867 -0.7042  0.1368 -1.5474
  119OSM   C18S12542   3.065   7.133   7.978 -0.1413 -0.1228 -0.0806
  119OSM   H18S12543   3.157   7.195   7.971  0.5275 -1.0803  0.0918
  119OSM   H18T12544   3.062   7.072   8.071 -2.2828  1.8480  1.1974
  119OSM   H18U12545   2.982   7.206   7.970  0.1878  0.4267  1.4043
  119OSM    C1F12546   2.764   6.441   6.540  0.1149 -0.0919  0.2574
  119OSM     OF12547   2.872   6.389   6.522 -0.3074 -0.3320 -0.4565
  119OSM    C2F12548   2.667   6.367   6.623  0.0107  0.3334 -0.1043
  119OSM    H2F12549   2.665   6.269   6.571  0.8038  0.7631 -0.9553
  119OSM    H2G12550   2.566   6.413   6.614 -1.2580 -2.7806 -2.8833
  119OSM    C3F12551   2.702   6.358   6.775 -0.1590 -0.2404 -1.3916
  119OSM    H3F12552   2.805   6.315   6.778 -0.7951 -1.8811 -2.2320
  119OSM    H3G12553   2.641   6.290   6.839 -2.0706  0.2456 -2.6801
  119OSM    C4F12554   2.687   6.496   6.840  0.7417  0.1827  0.7189
  119OSM    H4F12555   2.590   6.535   6.804  0.1518 -1.0979  0.9234
  119OSM    H4G12556   2.767   6.564   6.802 -0.2274  0.5330 -0.7601
  119OSM    C5F12557   2.690   6.509   6.993 -0.1046 -0.2086  0.0050
  119OSM    H5F12558   2.795   6.479   7.010 -0.3708 -1.3288 -0.2929
  119OSM    H5G12559   2.626   6.425   7.028  0.1756  0.1653  1.4326
  119OSM    C6F12560   2.662   6.638   7.060  0.1425  0.4403  0.0007
  119OSM    H6F12561   2.552   6.650   7.067  0.1441  1.1459 -1.1119
  119OSM    H6G12562   2.704   6.728   7.010  0.4228  0.5001  0.3426
  119OSM    C7F12563   2.717   6.638   7.196 -0.2602  0.1873  0.2201
  119OSM    H7F12564   2.677   6.726   7.252  1.9195  0.9359  0.6267
  119OSM    H7G12565   2.827   6.652   7.189 -0.1534 -1.6149 -1.9917
  119OSM    C8F12566   2.689   6.515   7.288 -0.3380  0.4662 -0.0530
  119OSM    H8F12567   2.769   6.511   7.366 -1.3577 -0.9337  0.9515
  119OSM    H8G12568   2.719   6.424   7.232  0.2736  0.3403  0.4593
  119OSM    C9F12569   2.551   6.513   7.353 -0.0009 -0.0593 -0.1353
  119OSM    H9F12570   2.470   6.502   7.280 -0.8322 -0.7413  0.8713
  119OSM   C10F12571   2.512   6.523   7.482  0.3930  0.6189 -0.0853
  119OSM   H10F12572   2.405   6.524   7.507  0.1004  0.0143 -1.2762
  119OSM   C11F12573   2.599   6.540   7.600 -0.6705  0.4312  0.0935
  119OSM   H11F12574   2.567   6.612   7.678  0.2570 -1.9777  2.7791
  119OSM   H11G12575   2.698   6.579   7.568 -2.2199  3.8859 -0.6219
  119OSM   C12F12576   2.621   6.400   7.674 -0.1079  0.0723 -0.1575
  119OSM   H12F12577   2.716   6.416   7.729 -0.0950 -2.6648  0.6519
  119OSM   H12G12578   2.635   6.322   7.596 -0.3647  1.3262 -1.4853
  119OSM   C13F12579   2.502   6.359   7.762 -0.1271 -0.3186 -0.0370
  119OSM   H13F12580   2.422   6.329   7.691  0.6657  2.0507 -1.9994
  119OSM   H13G12581   2.475   6.448   7.823  1.0385 -0.2865  0.4565
  119OSM   C14F12582   2.529   6.238   7.865  0.1651 -0.3193  0.3442
  119OSM   H14F12583   2.583   6.161   7.806  2.2760 -0.9618  3.0322
  119OSM   H14G12584   2.437   6.195   7.911 -0.4801 -1.1810 -1.6631
  119OSM   C15F12585   2.594   6.295   7.991  0.0611 -1.0044 -0.3628
  119OSM   H15F12586   2.516   6.337   8.058 -0.7444 -1.4343 -1.0364
  119OSM   H15G12587   2.663   6.374   7.954 -1.7590  0.7530 -0.0722
  119OSM   C16F12588   2.692   6.209   8.078  0.2465  0.5052 -1.4657
  119OSM   H16F12589   2.746   6.286   8.136  0.2513  0.0066 -0.8040
  119OSM   H16G12590   2.781   6.168   8.027  1.8489  0.1189  1.5277
  119OSM   C17F12591   2.641   6.092   8.172 -0.0740  0.4619  0.0783
  119OSM   H17F12592   2.592   6.021   8.103  0.7774  0.6696 -0.7575
  119OSM   H17G12593   2.564   6.135   8.240  0.5565  1.3228  0.2606
  119OSM   C18F12594   2.757   6.029   8.254 -0.6261  0.0924 -0.4553
  119OSM   H18F12595   2.837   5.975   8.201  0.7240  0.7275  0.8893
  119OSM   H18G12596   2.716   5.958   8.330 -0.5989  0.7742  0.2026
  119OSM   H18H12597   2.813   6.107   8.310 -1.6664  0.6740 -0.1996
  120OSM      N12598   0.214   4.371   6.661  0.2229 -0.4881  0.3448
  120OSM    C1512599   0.350   4.438   6.637  0.3388  0.1597  0.8861
  120OSM   H15A12600   0.423   4.389   6.699 -0.0430 -1.5517  0.0299
  120OSM   H15B12601   0.345   4.543   6.660  0.3297 -0.3116  3.1675
  120OSM   H15C12602   0.371   4.427   6.531  0.4006  0.1968  0.8951
  120OSM    C1412603   0.175   4.393   6.801 -0.1583  0.0973 -0.8911
  120OSM   H14A12604   0.071   4.370   6.818 -0.3267  2.5255  1.7813
  120OSM   H14B12605   0.177   4.497   6.827 -1.0981 -0.3789  1.1914
  120OSM   H14C12606   0.246   4.341   6.865 -1.1277 -0.4401 -0.2425
  120OSM    C1312607   0.119   4.431   6.571 -0.2655 -0.4738  0.4239
  120OSM   H13A12608   0.144   4.415   6.467  0.1617 -0.7863  0.5746
  120OSM   H13B12609   0.115   4.538   6.590 -1.4270 -0.6492  1.2430
  120OSM   H13C12610   0.023   4.384   6.586  0.0260 -0.6882  1.6979
  120OSM    C1212611   0.223   4.220   6.642 -0.0086  0.0586 -0.1071
  120OSM   H12A12612   0.240   4.196   6.538 -0.5560 -1.8871  0.2337
  120OSM   H12B12613   0.128   4.172   6.656 -1.0354  1.5982 -1.5961
  120OSM    C1112614   0.326   4.148   6.726 -0.1507 -0.7172  0.0764
  120OSM   H11A12615   0.308   4.039   6.719 -0.0876 -0.6879 -0.5845
  120OSM   H11B12616   0.310   4.186   6.829 -1.2115 -1.9195  0.3714
  120OSM      P12617   0.528   4.109   6.564 -0.1339  0.2363  0.0123
  120OSM    O1312618   0.442   4.098   6.439  0.0919  0.9109  0.2049
  120OSM    O1412619   0.663   4.169   6.552 -0.4744 -0.0587 -0.2407
  120OSM    O1112620   0.546   3.962   6.613 -0.4976  0.0491  0.3072
  120OSM    O1212621   0.464   4.177   6.691  1.5103 -0.3550 -0.3639
  120OSM    C1S12622   0.626   3.932   6.734 -0.2501  0.1743  0.2930
  120OSM    H1S12623   0.674   4.019   6.785  0.1408 -1.4577  2.8145
  120OSM    H1T12624   0.710   3.862   6.714 -0.2850  0.2489 -0.1095
  120OSM     NF12625   0.631   3.818   6.958 -0.4543 -0.2948  0.8912
  120OSM    HNF12626   0.651   3.720   6.961 -3.5609 -1.0114 -0.1197
  120OSM    C2S12627   0.549   3.853   6.838 -0.5009  0.6771 -0.2608
  120OSM    H2S12628   0.467   3.915   6.881  0.8828  2.0667  0.3894
  120OSM    C3S12629   0.469   3.726   6.776  0.7472 -0.1801  0.4779
  120OSM    H3S12630   0.540   3.646   6.747  2.0138  0.9815  0.3214
  120OSM     O312631   0.413   3.753   6.651 -0.1979 -0.1972 -0.5128
  120OSM    HO312632   0.459   3.832   6.622  2.5152 -1.9400 -1.1850
  120OSM    C4S12633   0.364   3.675   6.873 -0.1659 -0.1764 -0.5346
  120OSM    H4S12634   0.268   3.729   6.872 -0.3244 -0.4594 -0.7824
  120OSM    C5S12635   0.368   3.561   6.940 -0.4583 -0.3111 -0.4212
  120OSM    H5S12636   0.443   3.483   6.923  0.9134  0.3792  2.1330
  120OSM    C6S12637   0.266   3.527   7.041  0.7755  0.0715 -0.2032
  120OSM    H6S12638   0.164   3.554   7.005  0.5778 -0.5310 -0.0907
  120OSM    H6T12639   0.288   3.583   7.134  1.7651 -2.1150  0.9129
  120OSM    C7S12640   0.257   3.377   7.072 -0.0780 -0.2991  0.6616
  120OSM    H7S12641   0.338   3.352   7.144  0.4669 -0.5034 -0.0092
  120OSM    H7T12642   0.253   3.317   6.978 -1.8600 -2.0681  1.8179
  120OSM    C8S12643   0.122   3.348   7.147  0.2834  0.3825  0.2215
  120OSM    H8S12644   0.107   3.239   7.135 -1.1203  0.6275 -0.4135
  120OSM    H8T12645   0.042   3.413   7.105 -2.7815 -3.8161 -0.7316
  120OSM    C9S12646   0.132   3.384   7.301  0.2653  0.6160  0.2394
  120OSM    H9S12647   0.029   3.380   7.344  0.2339 -1.5387  0.0245
  120OSM    H9T12648   0.179   3.484   7.316 -0.8895  1.1346  0.4456
  120OSM   C10S12649   0.204   3.283   7.386  0.2169  0.0986 -0.2042
  120OSM   H10S12650   0.290   3.235   7.334 -0.0752  0.1546 -0.7441
  120OSM   H10T12651   0.131   3.200   7.396  0.5172 -0.1320  0.0926
  120OSM   C11S12652   0.236   3.338   7.522 -1.1664  0.1504  0.0534
  120OSM   H11S12653   0.136   3.376   7.553 -1.3932  1.9895 -2.7214
  120OSM   H11T12654   0.310   3.420   7.533 -1.8988  0.5919  1.8527
  120OSM   C12S12655   0.277   3.225   7.628 -0.0238 -0.5053  0.4871
  120OSM   H12S12656   0.379   3.190   7.603 -0.0094  1.3114 -2.1139
  120OSM   H12T12657   0.205   3.140   7.625  1.3385 -1.6156 -2.0176
  120OSM   C13S12658   0.286   3.278   7.770  0.1129 -0.3408  0.3332
  120OSM   H13S12659   0.192   3.332   7.794 -0.0543  0.0675 -1.1652
  120OSM   H13T12660   0.372   3.349   7.772 -0.3951  0.3721 -1.6133
  120OSM   C14S12661   0.312   3.169   7.873  0.1372  0.3987  0.0413
  120OSM   H14S12662   0.372   3.080   7.844 -0.4072 -0.0630  0.3161
  120OSM   H14T12663   0.206   3.143   7.891 -0.0449 -0.3925 -1.9523
  120OSM   C15S12664   0.357   3.225   8.008 -0.9757 -0.7055 -0.1917
  120OSM   H15S12665   0.293   3.307   8.045  0.8304  0.2981  0.7790
  120OSM   H15T12666   0.463   3.257   7.995 -1.6108  1.8491  0.7034
  120OSM   C16S12667   0.361   3.117   8.120 -0.1259 -0.2417  0.1974
  120OSM   H16S12668   0.433   3.046   8.075 -1.1589  0.5047 -2.7881
  120OSM   H16T12669   0.264   3.061   8.117  0.3947 -1.1391 -0.1051
  120OSM   C17S12670   0.405   3.164   8.255  0.6646  0.8013 -1.0137
  120OSM   H17S12671   0.498   3.223   8.238  1.8975 -1.2819 -1.7832
  120OSM   H17T12672   0.431   3.077   8.319  2.4876  1.2435 -1.1170
  120OSM   C18S12673   0.301   3.249   8.326  0.0417 -0.1462 -0.3227
  120OSM   H18S12674   0.302   3.244   8.437  1.0186  0.0876 -0.3214
  120OSM   H18T12675   0.203   3.198   8.309  0.8739 -1.5819 -0.8826
  120OSM   H18U12676   0.304   3.353   8.288  1.5911  0.0737  0.4007
  120OSM    C1F12677   0.695   3.902   7.038  0.3076  0.3501  0.0260
  120OSM     OF12678   0.656   4.017   7.046  0.4030  0.1635  0.6200
  120OSM    C2F12679   0.817   3.849   7.115  0.4441 -0.5417 -0.0550
  120OSM    H2F12680   0.907   3.852   7.049  1.0021 -0.0054  0.7213
  120OSM    H2G12681   0.796   3.747   7.154  2.1045 -2.2260 -3.3399
  120OSM    C3F12682   0.840   3.940   7.243  0.3564 -0.2421 -0.4581
  120OSM    H3F12683   0.744   3.938   7.299  0.7590 -1.2065  0.2063
  120OSM    H3G12684   0.869   4.041   7.206  1.7855 -0.5389 -0.1780
  120OSM    C4F12685   0.938   3.881   7.338  0.2097  0.6879 -0.0433
  120OSM    H4F12686   1.001   3.960   7.384  1.9215 -1.1151  0.7986
  120OSM    H4G12687   1.018   3.820   7.290 -1.6813 -0.8804 -1.2911
  120OSM    C5F12688   0.879   3.779   7.432 -0.1849  0.1628  0.2548
  120OSM    H5F12689   0.818   3.705   7.375 -0.0548  0.4817 -0.2987
  120OSM    H5G12690   0.809   3.832   7.500 -1.8405 -0.1670 -1.1461
  120OSM    C6F12691   0.982   3.686   7.504  0.9858 -0.2996 -0.1510
  120OSM    H6F12692   1.044   3.647   7.420 -0.2386  0.0878 -1.2494
  120OSM    H6G12693   0.920   3.615   7.563  2.6124 -2.5532 -1.0821
  120OSM    C7F12694   1.082   3.765   7.585 -0.0276 -0.1269  0.6656
  120OSM    H7F12695   1.035   3.833   7.658 -0.5234  1.4079 -1.0410
  120OSM    H7G12696   1.134   3.825   7.506  0.5489  0.6602  1.6255
  120OSM    C8F12697   1.160   3.666   7.668 -0.2740  0.4908  0.1091
  120OSM    H8F12698   1.216   3.600   7.599 -0.0454  0.4026  0.3807
  120OSM    H8G12699   1.091   3.595   7.719 -2.8580  1.4387 -1.9421
  120OSM    C9F12700   1.257   3.734   7.759  0.5003 -0.1960  0.5165
  120OSM    H9F12701   1.356   3.753   7.715  1.8953 -2.7616  2.3769
  120OSM   C10F12702   1.237   3.767   7.892  0.2518  0.1641 -0.0075
  120OSM   H10F12703   1.323   3.814   7.943  0.7303  0.9058 -1.4499
  120OSM   C11F12704   1.104   3.744   7.965  0.2876  0.5312 -0.1631
  120OSM   H11F12705   1.107   3.653   8.028 -1.1102  1.0322  0.6553
  120OSM   H11G12706   1.023   3.728   7.891 -0.2193 -0.1081  0.5341
  120OSM   C12F12707   1.069   3.867   8.048 -0.1701  0.0722 -0.4480
  120OSM   H12F12708   1.058   3.946   7.970 -0.2335  1.3578  0.8296
  120OSM   H12G12709   1.143   3.901   8.123 -0.9550 -0.2928  0.4980
  120OSM   C13F12710   0.937   3.849   8.117  0.1366 -0.8164 -0.0829
  120OSM   H13F12711   0.956   3.780   8.202  3.4583  0.4158  0.2535
  120OSM   H13G12712   0.863   3.808   8.046  0.6016  2.2007 -2.4107
  120OSM   C14F12713   0.889   3.981   8.169 -0.2561 -0.0901 -0.2308
  120OSM   H14F12714   0.850   4.039   8.083  0.8008  1.2011  0.1496
  120OSM   H14G12715   0.972   4.040   8.212  0.6854 -0.2332 -1.8449
  120OSM   C15F12716   0.784   3.959   8.276  0.6602  1.5344 -0.3428
  120OSM   H15F12717   0.818   3.901   8.364 -1.8635 -0.3038 -0.5306
  120OSM   H15G12718   0.707   3.893   8.231  0.4277  0.6827  1.2801
  120OSM   C16F12719   0.705   4.086   8.329  0.6745  0.2878 -0.4189
  120OSM   H16F12720   0.630   4.054   8.404 -0.0769 -0.4707 -1.4778
  120OSM   H16G12721   0.656   4.135   8.242 -1.5313 -1.5185 -0.2300
  120OSM   C17F12722   0.805   4.170   8.403 -0.6529  0.4105 -0.6824
  120OSM   H17F12723   0.757   4.268   8.428  0.2285  0.4380  0.9674
  120OSM   H17G12724   0.894   4.193   8.340  1.9441 -2.8153  1.5815
  120OSM   C18F12725   0.852   4.102   8.536  0.1484  0.5154  0.0613
  120OSM   H18F12726   0.926   4.170   8.582 -0.0426  1.3085 -0.7887
  120OSM   H18G12727   0.914   4.011   8.525  1.6498  1.2729  2.0887
  120OSM   H18H12728   0.774   4.080   8.612  0.0806 -2.3036 -0.7753
  121OSM      N12729   2.182   5.017   5.957 -0.0739  0.0612  0.1969
  121OSM    C1512730   2.138   4.868   5.956 -0.5512  0.1422 -0.3974
  121OSM   H15A12731   2.038   4.853   5.993 -0.0915 -0.9500  0.4315
  121OSM   H15B12732   2.204   4.803   6.012 -0.6557 -0.5912 -1.1298
  121OSM   H15C12733   2.155   4.825   5.859 -0.7598 -0.8648  0.0079
  121OSM    C1412734   2.327   5.018   5.914  0.3237  0.4784 -0.4427
  121OSM   H14A12735   2.385   4.974   5.994 -3.6068 -0.8641  1.8288
  121OSM   H14B12736   2.357   5.121   5.907  1.7566  0.1052 -0.0067
  121OSM   H14C12737   2.337   4.974   5.816  0.6375 -1.1492  0.2918
  121OSM    C1312738   2.095   5.100   5.870 -0.3599  0.4197  0.0442
  121OSM   H13A12739   2.102   5.060   5.769  0.7050 -0.4510  0.4470
  121OSM   H13B12740   2.122   5.203   5.887  0.0897 -0.1472  3.1114
  121OSM   H13C12741   1.990   5.088   5.893 -0.5948 -1.4921 -1.7583
  121OSM    C1212742   2.166   5.077   6.091  0.0406 -0.0390 -0.2749
  121OSM   H12A12743   2.064   5.070   6.126 -0.1284 -0.3625 -0.8291
  121OSM   H12B12744   2.190   5.182   6.083  1.5913 -0.4301 -0.9301
  121OSM    C1112745   2.256   5.029   6.209  0.3606  0.0417 -0.5793
  121OSM   H11A12746   2.263   4.918   6.207 -1.3474 -0.0754 -2.5804
  121OSM   H11B12747   2.211   5.048   6.308  1.3027  1.6201 -0.4259
  121OSM      P12748   2.417   5.226   6.238  0.3738  0.2023  0.0924
  121OSM    O1312749   2.558   5.262   6.203 -0.0631 -0.5990  0.2045
  121OSM    O1412750   2.315   5.320   6.189  0.3445  0.4637 -0.4144
  121OSM    O1112751   2.403   5.228   6.398  0.3107  0.6880  0.0452
  121OSM    O1212752   2.387   5.077   6.194 -0.0896  0.4180 -0.3800
  121OSM    C1S12753   2.444   5.133   6.490  0.1514  0.2100  0.4239
  121OSM    H1S12754   2.552   5.150   6.510 -0.2893 -0.6102  3.7839
  121OSM    H1T12755   2.451   5.032   6.442 -1.9426  0.6366 -0.8517
  121OSM     NF12756   2.421   5.030   6.717  0.1898  0.0167  0.2605
  121OSM    HNF12757   2.382   4.939   6.714 -0.2593  0.1573  1.3945
  121OSM    C2S12758   2.370   5.140   6.625  0.3253  0.2980 -0.5769
  121OSM    H2S12759   2.388   5.236   6.677  0.4339 -1.0458  1.9732
  121OSM    C3S12760   2.219   5.137   6.610  0.5057 -0.1509  0.6969
  121OSM    H3S12761   2.184   5.037   6.575 -1.5205  1.1141 -0.9941
  121OSM     O312762   2.164   5.231   6.513 -0.3026  0.6051  0.2251
  121OSM    HO312763   2.249   5.246   6.471 -0.8191 -1.3181 -1.6444
  121OSM    C4S12764   2.150   5.151   6.749  0.3776 -0.3179 -0.4107
  121OSM    H4S12765   2.142   5.055   6.803 -2.4371  0.0319 -0.1165
  121OSM    C5S12766   2.100   5.263   6.813 -0.4017 -0.1112  0.9211
  121OSM    H5S12767   2.132   5.363   6.779 -1.1681  0.5061  1.9809
  121OSM    C6S12768   2.039   5.273   6.950  0.3075  0.0161 -0.8885
  121OSM    H6S12769   1.930   5.290   6.935  0.6365  1.9810 -1.2229
  121OSM    H6T12770   2.085   5.362   6.999  0.0829 -1.4177  2.0357
  121OSM    C7S12771   2.052   5.148   7.044  0.2999 -0.7166  0.2901
  121OSM    H7S12772   2.000   5.060   7.001 -0.5610 -0.2235  0.3025
  121OSM    H7T12773   1.996   5.172   7.137 -4.6341 -1.0366 -2.4102
  121OSM    C8S12774   2.197   5.121   7.088  0.0621 -0.4612  0.3959
  121OSM    H8S12775   2.227   5.198   7.163 -1.2527 -1.1677  1.6724
  121OSM    H8T12776   2.270   5.125   7.004  0.8259  0.3121  1.0849
  121OSM    C9S12777   2.203   4.988   7.159 -0.2112  0.6588 -0.2369
  121OSM    H9S12778   2.301   4.953   7.197 -0.3419  0.3327 -0.2012
  121OSM    H9T12779   2.180   4.912   7.081 -1.9979  1.4456 -0.4992
  121OSM   C10S12780   2.092   4.968   7.267 -0.1846 -0.3063  0.7349
  121OSM   H10S12781   1.991   4.986   7.225  1.4026  1.1636 -2.6716
  121OSM   H10T12782   2.106   5.054   7.337  0.6850  1.6361 -1.7493
  121OSM   C11S12783   2.093   4.839   7.341  0.1535 -0.1005  0.1659
  121OSM   H11S12784   2.014   4.843   7.419  0.9523  1.0364  0.9362
  121OSM   H11T12785   2.196   4.813   7.373 -0.3024 -0.2266  1.5693
  121OSM   C12S12786   2.042   4.719   7.257 -0.6714  0.1519 -0.0464
  121OSM   H12S12787   2.090   4.716   7.157  1.1494 -0.8711  0.8377
  121OSM   H12T12788   1.932   4.728   7.247 -0.8787 -0.4576  1.4977
  121OSM   C13S12789   2.078   4.585   7.332 -0.0953  0.4037 -0.3737
  121OSM   H13S12790   2.031   4.502   7.276 -2.2479  1.5953 -0.3942
  121OSM   H13T12791   2.025   4.580   7.430 -0.1352  1.7683 -0.3052
  121OSM   C14S12792   2.224   4.554   7.357 -0.3282 -0.0815  0.0440
  121OSM   H14S12793   2.267   4.624   7.432 -0.1075 -1.4206  1.2169
  121OSM   H14T12794   2.286   4.571   7.267 -3.0069 -1.3742 -2.0946
  121OSM   C15S12795   2.252   4.420   7.413  0.1065 -0.4296 -0.2664
  121OSM   H15S12796   2.356   4.395   7.381 -0.0424 -1.5471  0.0917
  121OSM   H15T12797   2.192   4.344   7.358  0.8044 -0.8219 -0.5051
  121OSM   C16S12798   2.231   4.408   7.561 -0.0520  0.3282  0.0333
  121OSM   H16S12799   2.165   4.493   7.589 -0.7363  0.7451 -2.6793
  121OSM   H16T12800   2.324   4.409   7.621  0.6321  0.5146 -1.0031
  121OSM   C17S12801   2.159   4.281   7.605 -0.8306 -0.3894 -0.4266
  121OSM   H17S12802   2.225   4.194   7.584 -0.6227 -0.5707  0.9063
  121OSM   H17T12803   2.067   4.267   7.545 -0.2316 -0.3571 -1.3612
  121OSM   C18S12804   2.129   4.275   7.751 -0.1717 -0.1490 -0.3078
  121OSM   H18S12805   2.096   4.377   7.785 -1.7765 -1.1692  1.3384
  121OSM   H18T12806   2.222   4.258   7.808 -0.5182  1.2912  0.7307
  121OSM   H18U12807   2.049   4.199   7.763 -0.1136 -0.0715  0.6100
  121OSM    C1F12808   2.538   5.038   6.775  0.2333 -0.4609  0.1190
  121OSM     OF12809   2.609   5.139   6.770  0.1886 -0.6165 -0.4205
  121OSM    C2F12810   2.587   4.915   6.842  0.1586  0.7730 -0.3020
  121OSM    H2F12811   2.640   4.854   6.766  0.0399 -2.5625  2.1820
  121OSM    H2G12812   2.497   4.854   6.865  2.6326 -3.0271 -0.2671
  121OSM    C3F12813   2.673   4.925   6.965  0.3724  0.0549 -0.3536
  121OSM    H3F12814   2.752   5.000   6.947 -0.3055  1.2459  1.5275
  121OSM    H3G12815   2.732   4.831   6.972 -2.7422 -2.0284 -0.8666
  121OSM    C4F12816   2.591   4.959   7.094  0.3196  0.2058 -0.0485
  121OSM    H4F12817   2.511   4.883   7.102 -0.0649  0.3431 -2.2313
  121OSM    H4G12818   2.539   5.053   7.068 -0.5806 -0.1784  0.3385
  121OSM    C5F12819   2.678   4.965   7.216 -1.2119  0.0515 -0.9625
  121OSM    H5F12820   2.773   5.013   7.184  0.2080 -1.5701  0.7344
  121OSM    H5G12821   2.713   4.865   7.250 -1.4028 -0.0174 -0.9699
  121OSM    C6F12822   2.609   5.023   7.344 -0.2472  0.6433  0.6506
  121OSM    H6F12823   2.671   5.000   7.434 -0.6005 -1.8180  0.2807
  121OSM    H6G12824   2.514   4.967   7.355  0.3105 -0.3039  0.7303
  121OSM    C7F12825   2.580   5.178   7.331  0.5207 -0.4690  0.1096
  121OSM    H7F12826   2.505   5.204   7.408  0.3301 -1.1774  0.1643
  121OSM    H7G12827   2.525   5.178   7.235 -1.8402 -0.1565  1.4381
  121OSM    C8F12828   2.706   5.271   7.341  0.0981 -0.1580  0.0494
  121OSM    H8F12829   2.763   5.258   7.247  2.0201 -0.4237  1.2277
  121OSM    H8G12830   2.770   5.237   7.424 -0.3578 -0.4440  0.2871
  121OSM    C9F12831   2.679   5.420   7.365 -0.2512  0.2986 -0.1599
  121OSM    H9F12832   2.603   5.467   7.302 -1.8063 -0.7105  0.9436
  121OSM   C10F12833   2.724   5.500   7.466 -0.1843 -0.2194 -0.1225
  121OSM   H10F12834   2.685   5.602   7.485 -0.5816 -0.3565 -0.1902
  121OSM   C11F12835   2.821   5.464   7.575 -0.2361 -0.5848 -0.1567
  121OSM   H11F12836   2.886   5.552   7.596 -1.3134  0.1461  0.1461
  121OSM   H11G12837   2.886   5.381   7.539  0.4763  0.4269 -1.2603
  121OSM   C12F12838   2.751   5.427   7.708 -0.3059  0.0080 -0.0499
  121OSM   H12F12839   2.674   5.505   7.727 -1.7630 -1.7675  1.5493
  121OSM   H12G12840   2.818   5.442   7.795  1.9191 -1.9944 -1.3638
  121OSM   C13F12841   2.681   5.292   7.723 -0.8270  0.3242  0.5870
  121OSM   H13F12842   2.752   5.208   7.707 -1.3332  0.1400 -0.7741
  121OSM   H13G12843   2.602   5.302   7.645  1.3043  0.5279 -1.6108
  121OSM   C14F12844   2.612   5.271   7.857  0.0423 -0.0841 -0.4947
  121OSM   H14F12845   2.527   5.341   7.862 -0.8804 -1.1851 -0.6226
  121OSM   H14G12846   2.676   5.296   7.944  0.4399  1.3189 -1.1798
  121OSM   C15F12847   2.560   5.125   7.862  0.7027 -0.4806  0.6259
  121OSM   H15F12848   2.631   5.071   7.928 -0.5237 -2.0932  0.6513
  121OSM   H15G12849   2.565   5.075   7.764 -1.0431  0.4139  0.0579
  121OSM   C16F12850   2.413   5.123   7.912  0.5555  0.1164 -0.4055
  121OSM   H16F12851   2.344   5.178   7.844  1.2600  3.2958  1.3544
  121OSM   H16G12852   2.398   5.177   8.009 -1.3590 -2.8698  1.0162
  121OSM   C17F12853   2.356   4.980   7.912 -0.4360 -0.4356 -0.2559
  121OSM   H17F12854   2.366   4.967   7.802  0.2561  3.4302 -0.7406
  121OSM   H17G12855   2.253   4.980   7.953  0.4354 -0.4355  1.9901
  121OSM   C18F12856   2.439   4.887   7.999  0.9327  0.5783  0.0160
  121OSM   H18F12857   2.411   4.779   7.994  0.8617  0.5711  0.5445
  121OSM   H18G12858   2.434   4.918   8.105  1.4147  0.9990 -0.0831
  121OSM   H18H12859   2.544   4.891   7.963  0.6647  0.9715 -0.7396
  122OSM      N12860   0.957   0.855   5.871  0.3064 -0.2712 -0.5881
  122OSM    C1512861   1.036   0.899   5.992 -0.4796  1.0435  0.3374
  122OSM   H15A12862   1.026   1.005   6.010 -1.7814  1.0936 -0.5851
  122OSM   H15B12863   1.139   0.874   5.972 -1.3938  0.1143 -3.8446
  122OSM   H15C12864   0.995   0.858   6.083 -0.0158  1.3876  0.6976
  122OSM    C1412865   0.815   0.877   5.920 -0.6607 -0.3297 -0.0403
  122OSM   H14A12866   0.754   0.845   5.836 -2.8598  1.1145  0.9701
  122OSM   H14B12867   0.784   0.979   5.932 -0.8209 -0.3817 -0.0078
  122OSM   H14C12868   0.781   0.825   6.008 -0.4308  0.7204  0.6733
  122OSM    C1312869   0.984   0.944   5.759  0.0804 -0.1610 -0.0104
  122OSM   H13A12870   1.076   0.918   5.709 -0.5377 -0.1347 -1.1771
  122OSM   H13B12871   0.981   1.049   5.787  0.0292  0.4587 -2.1992
  122OSM   H13C12872   0.914   0.932   5.678  0.8147  2.7225 -1.1459
  122OSM    C1212873   0.967   0.706   5.825 -0.1871 -0.8702 -0.1809
  122OSM   H12A12874   0.878   0.694   5.766 -0.1468  0.5002 -0.5344
  122OSM   H12B12875   0.963   0.638   5.909 -0.0034 -3.4553 -2.2163
  122OSM    C1112876   1.096   0.656   5.746 -0.4909  0.1395 -0.6133
  122OSM   H11A12877   1.094   0.689   5.640 -0.1695  1.9172 -0.0767
  122OSM   H11B12878   1.081   0.546   5.738  2.2505 -0.2586 -0.8796
  122OSM      P12879   1.286   0.613   5.919 -0.1645 -0.2970  0.2391
  122OSM    O1312880   1.274   0.471   5.887  0.0742  0.0183 -0.3708
  122OSM    O1412881   1.420   0.659   5.932  0.1798  0.5508 -0.1273
  122OSM    O1112882   1.190   0.653   6.042  0.1489  0.0088 -0.0457
  122OSM    O1212883   1.226   0.703   5.805  0.0172 -0.2684  0.0275
  122OSM    C1S12884   1.224   0.625   6.177 -0.6714  0.1375  0.7145
  122OSM    H1S12885   1.310   0.694   6.195  1.5980 -1.6116 -2.7618
  122OSM    H1T12886   1.255   0.519   6.193 -0.3825  0.4599  2.3711
  122OSM     NF12887   1.192   0.674   6.418 -0.1958 -0.4814  0.0947
  122OSM    HNF12888   1.164   0.604   6.484  1.0299  1.1574  2.3996
  122OSM    C2S12889   1.130   0.680   6.284 -0.1326 -0.3179 -0.3087
  122OSM    H2S12890   1.114   0.788   6.266  0.9059  0.0125  0.6591
  122OSM    C3S12891   0.997   0.603   6.263  0.5119 -0.3187 -0.3983
  122OSM    H3S12892   1.017   0.494   6.254  1.6216 -0.2654  1.1156
  122OSM     O312893   0.938   0.647   6.140  0.1576 -0.2913 -0.1590
  122OSM    HO312894   1.006   0.689   6.087 -0.0364 -0.6710 -0.7202
  122OSM    C4S12895   0.899   0.631   6.372  0.4658 -0.7277 -0.2126
  122OSM    H4S12896   0.855   0.731   6.375 -0.8979 -1.3718  2.1918
  122OSM    C5S12897   0.856   0.535   6.456 -0.6367 -0.4291  0.3748
  122OSM    H5S12898   0.904   0.437   6.444 -1.5672 -0.7910 -0.4748
  122OSM    C6S12899   0.759   0.556   6.567 -0.8989  0.1693  0.2886
  122OSM    H6S12900   0.695   0.467   6.587 -1.2642  0.3447 -0.0921
  122OSM    H6T12901   0.687   0.640   6.558 -0.8112  0.0555 -1.6794
  122OSM    C7S12902   0.849   0.595   6.691 -0.4292 -0.0595 -0.0211
  122OSM    H7S12903   0.867   0.705   6.683 -1.1317  0.2023  1.7366
  122OSM    H7T12904   0.941   0.533   6.682 -0.3797  0.1469 -1.0768
  122OSM    C8S12905   0.785   0.546   6.827  0.5647 -0.2457  0.0944
  122OSM    H8S12906   0.863   0.561   6.906  0.3428  0.8128  0.1209
  122OSM    H8T12907   0.761   0.438   6.820 -0.0443  0.0202 -2.3375
  122OSM    C9S12908   0.669   0.633   6.868 -0.2601  0.0048  0.8470
  122OSM    H9S12909   0.584   0.607   6.801 -0.6631 -0.4033  1.5112
  122OSM    H9T12910   0.700   0.735   6.835  2.7395 -1.1790 -0.0767
  122OSM   C10S12911   0.620   0.620   7.010 -0.6062 -0.2958  0.4355
  122OSM   H10S12912   0.602   0.512   7.024 -0.0547 -0.6680 -1.5144
  122OSM   H10T12913   0.528   0.679   7.025 -0.4425  0.1535 -0.2635
  122OSM   C11S12914   0.724   0.672   7.119 -0.0564 -0.7770  0.3176
  122OSM   H11S12915   0.744   0.776   7.087  1.0943 -1.4610 -1.2474
  122OSM   H11T12916   0.819   0.616   7.107 -0.0790 -0.8286  0.3733
  122OSM   C12S12917   0.669   0.673   7.261  0.6203  0.3914 -0.0030
  122OSM   H12S12918   0.581   0.741   7.269  1.0362  0.8665  0.6181
  122OSM   H12T12919   0.746   0.709   7.333  0.0552 -0.1349  0.8744
  122OSM   C13S12920   0.612   0.537   7.298 -0.0258 -0.5324 -0.3395
  122OSM   H13S12921   0.672   0.454   7.254 -3.2926 -2.0379 -2.1231
  122OSM   H13T12922   0.517   0.531   7.242  0.7216  1.1878 -1.8485
  122OSM   C14S12923   0.597   0.528   7.453  0.0561  1.0044 -0.3039
  122OSM   H14S12924   0.506   0.589   7.472  0.5139  0.8740  2.5374
  122OSM   H14T12925   0.686   0.583   7.493  0.3919 -0.9774  1.7268
  122OSM   C15S12926   0.586   0.387   7.508 -0.4394  1.0846  0.6472
  122OSM   H15S12927   0.694   0.362   7.516 -0.5984  0.2642  0.3060
  122OSM   H15T12928   0.536   0.311   7.444  1.0963  0.6841 -0.1156
  122OSM   C16S12929   0.516   0.392   7.646 -0.5763  0.8136 -0.0176
  122OSM   H16S12930   0.489   0.285   7.657  1.0997  0.4678  0.7939
  122OSM   H16T12931   0.425   0.456   7.642 -0.7608  0.7838  2.9254
  122OSM   C17S12932   0.603   0.428   7.763 -0.0900  0.0251 -0.0062
  122OSM   H17S12933   0.613   0.537   7.777  0.8656 -0.1275  0.5482
  122OSM   H17T12934   0.709   0.403   7.740  0.0560 -0.0246  0.6934
  122OSM   C18S12935   0.559   0.379   7.908  0.1104  0.4776 -0.4131
  122OSM   H18S12936   0.605   0.445   7.985 -1.2621 -0.2614  1.0769
  122OSM   H18T12937   0.583   0.271   7.919  1.0678  0.6175 -1.0345
  122OSM   H18U12938   0.448   0.385   7.917  0.0142 -0.2292 -1.0332
  122OSM    C1F12939   1.282   0.761   6.460 -0.2721 -0.1495 -0.0120
  122OSM     OF12940   1.312   0.859   6.386 -0.5204 -0.4372 -0.2694
  122OSM    C2F12941   1.350   0.741   6.594 -0.3220 -0.2457  0.1249
  122OSM    H2F12942   1.439   0.675   6.579 -0.3059  0.0789 -1.1958
  122OSM    H2G12943   1.281   0.677   6.654 -0.3954  0.8437  1.2358
  122OSM    C3F12944   1.382   0.873   6.668  0.0732 -0.2146  0.3063
  122OSM    H3F12945   1.295   0.939   6.688  1.2109  0.3933  3.4767
  122OSM    H3G12946   1.459   0.932   6.612  0.1961 -1.7635 -1.2329
  122OSM    C4F12947   1.444   0.854   6.804 -0.4596 -0.7548 -0.4087
  122OSM    H4F12948   1.542   0.803   6.795 -0.0922 -0.4806  1.7845
  122OSM    H4G12949   1.386   0.794   6.878  0.6520  0.1140  1.1767
  122OSM    C5F12950   1.453   0.998   6.863  0.3305 -0.3705  0.1751
  122OSM    H5F12951   1.352   1.040   6.883  0.8396  0.9228  0.0571
  122OSM    H5G12952   1.501   1.067   6.791  1.3376 -0.3935  0.8215
  122OSM    C6F12953   1.546   1.016   6.986  0.4415 -0.3340 -0.0856
  122OSM    H6F12954   1.567   1.123   7.009  1.3711 -0.4013 -0.6207
  122OSM    H6G12955   1.642   0.964   6.970  0.9423  0.6601 -0.3680
  122OSM    C7F12956   1.474   0.961   7.111 -0.0182 -0.1947 -0.1458
  122OSM    H7F12957   1.441   0.856   7.096  0.5939 -0.6019  1.2122
  122OSM    H7G12958   1.377   1.014   7.121 -1.1582 -2.1653 -0.4759
  122OSM    C8F12959   1.551   0.970   7.245 -0.4860 -1.3228 -0.3337
  122OSM    H8F12960   1.486   0.935   7.328 -0.1585 -1.3969 -0.1070
  122OSM    H8G12961   1.584   1.074   7.267 -0.5914 -1.1974 -0.7728
  122OSM    C9F12962   1.670   0.882   7.229 -0.0489 -0.2516  0.1476
  122OSM    H9F12963   1.716   0.887   7.130 -1.9205  0.6939 -0.6912
  122OSM   C10F12964   1.719   0.796   7.320 -0.3938 -0.6066 -0.5371
  122OSM   H10F12965   1.809   0.737   7.299  0.1393  0.2422 -0.6741
  122OSM   C11F12966   1.687   0.782   7.466  0.1917  0.4469  0.4260
  122OSM   H11F12967   1.655   0.678   7.487 -1.2126 -0.2554 -4.5460
  122OSM   H11G12968   1.606   0.855   7.490 -0.3115  0.5347 -1.4265
  122OSM   C12F12969   1.809   0.819   7.552 -0.2094  0.5196  0.8904
  122OSM   H12F12970   1.831   0.927   7.537  2.5209 -0.0115  0.8650
  122OSM   H12G12971   1.899   0.758   7.530 -0.6982 -0.2535  1.0097
  122OSM   C13F12972   1.788   0.786   7.703  0.0713 -0.2213  0.0517
  122OSM   H13F12973   1.822   0.681   7.718 -0.4333 -0.6869 -1.8912
  122OSM   H13G12974   1.680   0.799   7.723  0.3346  0.4245  1.0820
  122OSM   C14F12975   1.864   0.872   7.812  0.6205 -0.3910 -0.3730
  122OSM   H14F12976   1.849   0.974   7.772  1.6172 -0.6791 -1.5042
  122OSM   H14G12977   1.973   0.853   7.822  0.5857 -3.0097 -3.7085
  122OSM   C15F12978   1.795   0.859   7.951 -0.4575 -0.1058  0.0243
  122OSM   H15F12979   1.686   0.873   7.937 -0.1241 -0.1003 -2.8100
  122OSM   H15G12980   1.832   0.947   8.008  0.8987  0.3841 -1.5631
  122OSM   C16F12981   1.829   0.727   8.016 -0.1963  0.0019  0.1866
  122OSM   H16F12982   1.938   0.704   8.014 -0.5163 -1.4567 -1.5454
  122OSM   H16G12983   1.784   0.644   7.957 -0.8015  1.3184 -1.2068
  122OSM   C17F12984   1.786   0.736   8.157 -0.3171 -0.4897 -0.3202
  122OSM   H17F12985   1.687   0.783   8.173 -1.7256 -3.7485  1.1322
  122OSM   H17G12986   1.854   0.803   8.214 -1.3332  1.3649 -1.2473
  122OSM   C18F12987   1.786   0.607   8.230  0.4623 -0.3383  0.3724
  122OSM   H18F12988   1.721   0.525   8.191 -1.0392  0.3545  1.3643
  122OSM   H18G12989   1.745   0.623   8.332 -0.8525  0.8709 -0.3237
  122OSM   H18H12990   1.885   0.558   8.227 -0.8401 -2.9881 -0.7560
  123OSM      N12991   6.449   2.831   6.442  0.1152  0.1779 -0.1245
  123OSM    C1512992   6.408   2.761   6.321 -0.3908 -0.6180  0.1569
  123OSM   H15A12993   6.467   2.803   6.241 -0.5559 -1.4225 -0.3917
  123OSM   H15B12994   6.302   2.768   6.303 -0.9534  0.4236  3.4890
  123OSM   H15C12995   6.430   2.655   6.317 -1.4623 -0.8153 -0.6506
  123OSM    C1412996   6.380   2.772   6.559  0.0402  0.3293  0.3904
  123OSM   H14A12997   6.408   2.668   6.569  1.0036  0.6628  1.3145
  123OSM   H14B12998   6.274   2.785   6.546  0.1379 -0.1579 -0.9193
  123OSM   H14C12999   6.403   2.819   6.654  0.5805  1.1556 -0.1525
  123OSM    C1313000   6.596   2.821   6.452  0.2723  0.0416 -0.6696
  123OSM   H13A13001   6.610   2.714   6.454 -1.2579 -0.1843 -1.5118
  123OSM   H13B13002   6.620   2.875   6.542 -0.0913 -1.9266  0.6393
  123OSM   H13C13003   6.655   2.850   6.365  0.5564 -0.8169 -0.7729
  123OSM    C1213004   6.395   2.972   6.422  0.7205 -0.1016  0.3284
  123OSM   H12A13005   6.438   3.014   6.331 -0.0314  0.6876  0.3266
  123OSM   H12B13006   6.431   3.029   6.506 -1.4179  1.1720  0.4261
  123OSM    C1113007   6.239   2.986   6.427 -0.1111 -0.9317  0.5798
  123OSM   H11A13008   6.197   2.908   6.360 -0.4886 -0.2698  0.0365
  123OSM   H11B13009   6.204   3.084   6.389 -2.4294 -1.3824  1.5025
  123OSM      P13010   6.032   2.934   6.575  0.3021  0.3011  0.3901
  123OSM    O1313011   5.974   2.962   6.445 -0.1248  0.2696 -0.2834
  123OSM    O1413012   6.035   2.793   6.620  0.3941  0.2414  0.1314
  123OSM    O1113013   5.973   3.030   6.686  0.6549  0.1109  0.0210
  123OSM    O1213014   6.187   2.979   6.559  0.2033  0.1230 -0.2889
  123OSM    C1S13015   6.003   3.169   6.663  0.3412 -0.2338 -0.8101
  123OSM    H1S13016   5.987   3.199   6.557 -2.1523  1.0722 -0.0879
  123OSM    H1T13017   6.113   3.179   6.681  0.2069 -2.4882  1.5444
  123OSM     NF13018   5.989   3.245   6.895 -0.0470  0.2091  0.3792
  123OSM    HNF13019   5.954   3.168   6.948  0.6428 -0.6420 -0.4154
  123OSM    C2S13020   5.932   3.257   6.762  0.1651  0.3215  0.0279
  123OSM    H2S13021   5.941   3.364   6.734  0.9953 -0.2042 -1.8032
  123OSM    C3S13022   5.778   3.224   6.751  0.1402  0.2988  0.6271
  123OSM    H3S13023   5.761   3.115   6.765  3.3977 -0.5186 -1.3769
  123OSM     O313024   5.732   3.253   6.622  0.1058 -0.2741 -0.2220
  123OSM    HO313025   5.808   3.294   6.579 -0.1522  3.8694  2.8671
  123OSM    C4S13026   5.680   3.290   6.843  0.2018 -0.2220 -0.1587
  123OSM    H4S13027   5.657   3.394   6.816  0.9104 -0.1344 -0.4175
  123OSM    C5S13028   5.600   3.243   6.940  0.2680 -0.2439 -0.2446
  123OSM    H5S13029   5.603   3.134   6.953  0.0097 -0.1411  0.6627
  123OSM    C6S13030   5.503   3.310   7.034  0.2608 -0.0869 -0.1360
  123OSM    H6S13031   5.532   3.273   7.135 -1.9262 -0.4980  0.3751
  123OSM    H6T13032   5.396   3.285   7.022  0.6754 -1.9400 -0.1148
  123OSM    C7S13033   5.524   3.466   7.042 -0.1859  0.1319  0.3707
  123OSM    H7S13034   5.452   3.515   7.111 -1.3445  1.6011 -1.8222
  123OSM    H7T13035   5.499   3.514   6.945  0.2185 -0.6031 -0.0989
  123OSM    C8S13036   5.664   3.505   7.081  0.7699  0.1520  0.3960
  123OSM    H8S13037   5.668   3.609   7.041  1.3867  0.1190  0.3615
  123OSM    H8T13038   5.745   3.452   7.027  0.5413  0.9367 -0.7409
  123OSM    C9S13039   5.687   3.523   7.233 -0.4213 -0.1608  0.0570
  123OSM    H9S13040   5.727   3.421   7.253  1.0208 -0.1319 -2.4436
  123OSM    H9T13041   5.593   3.535   7.291  1.2075 -0.8536  2.9562
  123OSM   C10S13042   5.799   3.627   7.264  0.1979 -0.8614  0.5630
  123OSM   H10S13043   5.780   3.724   7.213 -3.5107 -2.0206 -0.4415
  123OSM   H10T13044   5.895   3.582   7.229 -0.0991  0.5782 -2.2622
  123OSM   C11S13045   5.822   3.661   7.417 -0.0525  0.2910 -0.6799
  123OSM   H11S13046   5.890   3.749   7.407 -0.4408  0.4640 -1.8580
  123OSM   H11T13047   5.869   3.581   7.478  0.7573  1.7230  0.6143
  123OSM   C12S13048   5.702   3.710   7.492 -0.5017  0.2796 -1.0338
  123OSM   H12S13049   5.626   3.629   7.496  0.2340 -0.3283  2.0711
  123OSM   H12T13050   5.647   3.785   7.431 -0.7086 -0.0032 -1.1959
  123OSM   C13S13051   5.729   3.772   7.626 -0.0907 -0.4241  0.0118
  123OSM   H13S13052   5.636   3.810   7.672  0.8800  2.0673  0.0030
  123OSM   H13T13053   5.804   3.852   7.607  0.2789 -0.5268  1.0180
  123OSM   C14S13054   5.800   3.676   7.724  0.5520 -0.4993  0.2408
  123OSM   H14S13055   5.910   3.668   7.709  0.4532 -0.2682 -0.6215
  123OSM   H14T13056   5.767   3.571   7.706  0.5066 -0.8322  2.2005
  123OSM   C15S13057   5.767   3.700   7.870 -0.0708  0.1665 -0.5227
  123OSM   H15S13058   5.784   3.810   7.875  0.9892 -0.1060  3.2053
  123OSM   H15T13059   5.846   3.651   7.930 -0.3132 -0.8830 -1.0433
  123OSM   C16S13060   5.629   3.670   7.925  1.0635  0.7875  0.6372
  123OSM   H16S13061   5.617   3.560   7.918  1.2867  0.6213  2.5286
  123OSM   H16T13062   5.549   3.709   7.858  0.2405 -0.9871  0.5492
  123OSM   C17S13063   5.595   3.714   8.064  0.0063 -0.3776  0.1594
  123OSM   H17S13064   5.678   3.669   8.122 -0.1856  1.0577  1.5580
  123OSM   H17T13065   5.502   3.679   8.113 -0.5516  0.9687  0.0642
  123OSM   C18S13066   5.609   3.864   8.081 -0.4929 -0.3351 -0.1171
  123OSM   H18S13067   5.715   3.894   8.075 -0.3869 -0.8285 -0.7647
  123OSM   H18T13068   5.572   3.886   8.184 -0.8863 -0.9210 -0.1261
  123OSM   H18U13069   5.549   3.922   8.008 -2.0669  0.6601  1.8884
  123OSM    C1F13070   6.110   3.300   6.923  0.2289 -0.1676  0.3742
  123OSM     OF13071   6.157   3.375   6.840 -0.1710  0.7073  0.1599
  123OSM    C2F13072   6.171   3.265   7.053 -0.2377 -0.4935  0.5495
  123OSM    H2F13073   6.275   3.227   7.042 -0.4351 -1.2940  1.4010
  123OSM    H2G13074   6.123   3.176   7.099 -2.7216  0.5759  0.0747
  123OSM    C3F13075   6.184   3.390   7.150 -0.5518  0.4335 -0.7209
  123OSM    H3F13076   6.101   3.462   7.129 -1.0667 -0.2158 -0.9141
  123OSM    H3G13077   6.278   3.436   7.112 -1.0577  3.0911  1.0587
  123OSM    C4F13078   6.183   3.355   7.298 -0.7289  0.8977 -0.0606
  123OSM    H4F13079   6.268   3.287   7.320 -1.0587  0.7551  0.7710
  123OSM    H4G13080   6.090   3.300   7.320 -0.5960  0.5056 -0.4727
  123OSM    C5F13081   6.200   3.481   7.377  0.1925 -0.0440  0.0970
  123OSM    H5F13082   6.118   3.544   7.336  0.9427  1.1082  0.3469
  123OSM    H5G13083   6.300   3.526   7.361  1.1080 -2.3518 -0.8322
  123OSM    C6F13084   6.171   3.461   7.528 -0.2730  0.7282  0.2691
  123OSM    H6F13085   6.240   3.379   7.557 -0.9785  0.6430  1.7276
  123OSM    H6G13086   6.066   3.426   7.537  0.3522 -1.6234 -0.8592
  123OSM    C7F13087   6.178   3.580   7.621 -0.0883 -0.2054 -0.8144
  123OSM    H7F13088   6.092   3.646   7.601 -0.9833  0.3032  4.1494
  123OSM    H7G13089   6.275   3.632   7.604 -0.0465  0.1771  0.5776
  123OSM    C8F13090   6.163   3.547   7.770 -0.2104 -0.2751  0.3982
  123OSM    H8F13091   6.064   3.497   7.775 -0.2814 -0.2289 -0.4926
  123OSM    H8G13092   6.153   3.642   7.827  0.8441 -1.1068  2.0196
  123OSM    C9F13093   6.279   3.468   7.818  0.0007 -0.7786 -0.1997
  123OSM    H9F13094   6.372   3.479   7.760  0.6114  3.6757  1.4082
  123OSM   C10F13095   6.283   3.407   7.938  0.0226  0.4589  0.4086
  123OSM   H10F13096   6.376   3.361   7.974 -0.6919  0.3649  2.1339
  123OSM   C11F13097   6.165   3.416   8.036 -0.6338 -0.3028  0.2923
  123OSM   H11F13098   6.111   3.319   8.037  0.7794 -1.1263 -0.3571
  123OSM   H11G13099   6.092   3.498   8.018 -0.2911 -0.5479 -2.4650
  123OSM   C12F13100   6.225   3.442   8.174  0.3901 -0.4178 -0.0858
  123OSM   H12F13101   6.271   3.543   8.187 -0.5195  0.0416 -0.3764
  123OSM   H12G13102   6.299   3.362   8.195  2.3267  1.1179 -0.8672
  123OSM   C13F13103   6.127   3.431   8.290  0.4619  0.0069 -0.2670
  123OSM   H13F13104   6.190   3.424   8.381  0.8644 -0.4779 -0.5764
  123OSM   H13G13105   6.085   3.331   8.267 -1.0637  0.7901 -0.9324
  123OSM   C14F13106   6.021   3.543   8.290 -0.8001 -0.4220 -0.0281
  123OSM   H14F13107   5.946   3.526   8.210 -2.4069  1.1240  1.1061
  123OSM   H14G13108   6.070   3.642   8.275  0.0123 -0.6150  1.3100
  123OSM   C15F13109   5.931   3.538   8.413  0.6156 -0.1910  0.2593
  123OSM   H15F13110   5.979   3.587   8.502 -0.0304  0.4579  0.2518
  123OSM   H15G13111   5.915   3.432   8.441 -2.2206 -0.4708 -2.2979
  123OSM   C16F13112   5.794   3.590   8.384  0.6777  0.5300  0.0204
  123OSM   H16F13113   5.754   3.533   8.298  1.2154 -0.5421  0.4714
  123OSM   H16G13114   5.803   3.697   8.356  0.9537  0.2791 -0.8559
  123OSM   C17F13115   5.698   3.573   8.502  0.1117  0.0504 -0.7533
  123OSM   H17F13116   5.744   3.634   8.583  1.3714 -0.8435 -0.7867
  123OSM   H17G13117   5.692   3.469   8.539 -0.6592 -0.7857 -3.1194
  123OSM   C18F13118   5.555   3.623   8.482  0.2783  0.2331 -0.1030
  123OSM   H18F13119   5.491   3.610   8.571  0.7440  1.3440  0.4024
  123OSM   H18G13120   5.502   3.568   8.401 -2.0100  2.4717 -0.1945
  123OSM   H18H13121   5.565   3.730   8.453  0.7632 -0.0489 -1.0019
  124OSM      N13122   6.472   6.029   6.428 -0.7431 -0.3877  0.0235
  124OSM    C1513123   6.485   6.150   6.520 -0.0039  0.3696  0.5430
  124OSM   H15A13124   6.462   6.124   6.622 -1.3381 -0.5130  0.0364
  124OSM   H15B13125   6.417   6.228   6.488 -4.0500 -1.1567  4.8541
  124OSM   H15C13126   6.586   6.187   6.532  0.1883 -0.7702  2.5923
  124OSM    C1413127   6.348   5.962   6.456  0.5255  0.2956 -0.1140
  124OSM   H14A13128   6.262   6.025   6.473 -1.2855 -1.7184 -1.5776
  124OSM   H14B13129   6.353   5.897   6.542 -0.5741  1.0147  0.5094
  124OSM   H14C13130   6.322   5.891   6.379 -1.5604  0.1604  0.6846
  124OSM    C1313131   6.467   6.084   6.293 -0.0968 -0.2529 -0.2743
  124OSM   H13A13132   6.559   6.129   6.258 -1.1826  0.6579 -2.0427
  124OSM   H13B13133   6.393   6.162   6.289  0.5995  0.4555  0.5835
  124OSM   H13C13134   6.439   6.019   6.211 -1.6924  1.2468 -0.9621
  124OSM    C1213135   6.594   5.927   6.450  0.2947  0.0522  0.5174
  124OSM   H12A13136   6.584   5.852   6.373  1.9363  0.0940  0.2274
  124OSM   H12B13137   6.568   5.872   6.539 -1.0291  1.2354  0.8891
  124OSM    C1113138   6.739   5.986   6.462  0.4281  0.4221  0.3553
  124OSM   H11A13139   6.810   5.902   6.480  0.5176 -0.0637 -2.0797
  124OSM   H11B13140   6.737   6.046   6.555 -1.8106  1.3187 -0.2473
  124OSM      P13141   6.838   6.027   6.215  0.1379  0.6493  0.0295
  124OSM    O1313142   6.843   5.878   6.213 -0.2527  1.0966 -0.3800
  124OSM    O1413143   6.783   6.090   6.096 -0.6142  0.0443  0.0661
  124OSM    O1113144   6.981   6.070   6.226 -0.1433 -0.3994  0.1489
  124OSM    O1213145   6.768   6.073   6.350  0.0511  0.3589  0.1605
  124OSM    C1S13146   7.018   6.189   6.294  0.1337 -0.2698  0.2615
  124OSM    H1S13147   6.943   6.271   6.287  0.1387 -0.2381  0.5718
  124OSM    H1T13148   7.115   6.219   6.248  1.6354 -1.9933  2.2071
  124OSM     NF13149   7.109   6.283   6.509  0.1056  0.5969 -0.3947
  124OSM    HNF13150   7.204   6.313   6.494  0.2928 -0.2226 -0.8577
  124OSM    C2S13151   7.053   6.161   6.441  0.3296  0.8982  0.2098
  124OSM    H2S13152   6.958   6.122   6.483  2.2302 -0.6494  3.2570
  124OSM    C3S13153   7.149   6.041   6.457 -0.5046 -0.1015 -0.4308
  124OSM    H3S13154   7.235   6.039   6.386 -0.5955 -0.3624 -0.5332
  124OSM     O313155   7.081   5.917   6.436 -0.5040 -0.3700  0.2600
  124OSM    HO313156   7.024   5.925   6.360 -0.1054 -0.1999 -0.0242
  124OSM    C4S13157   7.208   6.036   6.598  0.2801 -1.1312  0.2641
  124OSM    H4S13158   7.143   5.983   6.669 -1.8488  0.7436 -0.2095
  124OSM    C5S13159   7.336   6.074   6.628 -0.3881  0.1134  0.7508
  124OSM    H5S13160   7.408   6.103   6.550  0.6411  0.3920  1.7751
  124OSM    C6S13161   7.399   6.061   6.766  0.8123 -0.7716  0.2681
  124OSM    H6S13162   7.509   6.068   6.754  0.7241  1.7009  0.6607
  124OSM    H6T13163   7.365   5.963   6.806  0.7632 -0.6622  0.4954
  124OSM    C7S13164   7.351   6.163   6.873 -0.6642  0.0472 -0.0821
  124OSM    H7S13165   7.243   6.177   6.892 -0.4447  1.9339 -0.1366
  124OSM    H7T13166   7.390   6.259   6.832 -1.8989  0.5395 -0.0987
  124OSM    C8S13167   7.400   6.124   7.019  0.1045 -0.1751 -0.3642
  124OSM    H8S13168   7.508   6.101   7.020  0.5687  1.9233 -0.3043
  124OSM    H8T13169   7.347   6.031   7.052 -1.6142  0.8287 -0.2303
  124OSM    C9S13170   7.376   6.230   7.135  0.3350  0.2829 -0.1395
  124OSM    H9S13171   7.270   6.261   7.134 -0.5335 -2.1772  4.2127
  124OSM    H9T13172   7.437   6.322   7.120 -0.5134  1.3278  2.5683
  124OSM   C10S13173   7.409   6.186   7.275  0.3560  0.0430 -0.1394
  124OSM   H10S13174   7.506   6.133   7.275  1.2989  1.7441 -0.5660
  124OSM   H10T13175   7.333   6.109   7.301 -0.7951  0.6551 -1.6479
  124OSM   C11S13176   7.410   6.292   7.387 -0.2806  0.3936  0.1981
  124OSM   H11S13177   7.315   6.350   7.392 -1.4860 -1.2594 -2.5165
  124OSM   H11T13178   7.486   6.372   7.378 -0.3316  0.6502  1.8626
  124OSM   C12S13179   7.430   6.218   7.519  0.0528 -0.6651 -0.3361
  124OSM   H12S13180   7.519   6.152   7.519  2.1732  2.0558 -2.1873
  124OSM   H12T13181   7.348   6.154   7.556 -0.5764 -0.4400 -1.3273
  124OSM   C13S13182   7.437   6.320   7.629 -0.1274 -0.4972  0.5301
  124OSM   H13S13183   7.355   6.395   7.631  0.9829  0.7222  0.7781
  124OSM   H13T13184   7.535   6.367   7.604 -0.1894 -0.5905  0.0983
  124OSM   C14S13185   7.451   6.263   7.768  0.2098 -0.1984 -0.6276
  124OSM   H14S13186   7.554   6.237   7.800 -0.1393 -1.4370 -0.4843
  124OSM   H14T13187   7.408   6.161   7.770 -0.6764  0.1875 -0.0731
  124OSM   C15S13188   7.393   6.354   7.879  0.4391 -0.0635  0.4936
  124OSM   H15S13189   7.282   6.353   7.886  0.3575  2.7634  0.2049
  124OSM   H15T13190   7.414   6.461   7.862  2.2525 -0.1456  1.9920
  124OSM   C16S13191   7.437   6.327   8.023  0.5436 -0.4047  0.3806
  124OSM   H16S13192   7.423   6.217   8.023  1.3713 -0.5112  1.0561
  124OSM   H16T13193   7.365   6.384   8.086  0.9459  1.8343 -1.0942
  124OSM   C17S13194   7.585   6.359   8.051 -0.2700 -0.5585  0.0860
  124OSM   H17S13195   7.599   6.469   8.042 -1.2707 -0.6341 -2.9057
  124OSM   H17T13196   7.640   6.309   7.969  0.5235  0.4445 -0.0055
  124OSM   C18S13197   7.641   6.306   8.183  0.5148  0.1163  0.2631
  124OSM   H18S13198   7.613   6.199   8.186  1.3536 -0.0725  1.8694
  124OSM   H18T13199   7.609   6.370   8.268 -0.1423 -0.7130  0.6360
  124OSM   H18U13200   7.751   6.323   8.173  0.1711  2.2769 -0.0760
  124OSM    C1F13201   7.023   6.381   6.525  0.7586  0.1010 -0.4138
  124OSM     OF13202   6.904   6.355   6.517  0.1911 -0.3381  0.1647
  124OSM    C2F13203   7.071   6.524   6.535  0.0122 -0.3406  0.4263
  124OSM    H2F13204   6.997   6.601   6.506  0.7238 -0.7554 -2.6065
  124OSM    H2G13205   7.156   6.521   6.464 -0.8657  0.4627 -0.6553
  124OSM    C3F13206   7.123   6.579   6.668  0.3917  0.7088 -0.1357
  124OSM    H3F13207   7.151   6.685   6.651  0.3815  0.9076  1.0580
  124OSM    H3G13208   7.213   6.523   6.700  0.2399  0.5704  0.0493
  124OSM    C4F13209   7.030   6.570   6.786 -0.3902  0.2975  0.7216
  124OSM    H4F13210   7.006   6.463   6.802 -1.2840  0.9590  4.1502
  124OSM    H4G13211   6.932   6.618   6.765 -0.7052 -0.5729  0.1682
  124OSM    C5F13212   7.085   6.616   6.926 -0.0791  0.3058 -0.1943
  124OSM    H5F13213   7.108   6.724   6.916 -0.2365  0.3122 -0.4937
  124OSM    H5G13214   7.182   6.566   6.950 -0.4084  0.1790  0.8953
  124OSM    C6F13215   6.972   6.587   7.027 -0.0657 -0.3699 -0.8423
  124OSM    H6F13216   6.961   6.476   7.030  3.2071 -0.7424 -0.6208
  124OSM    H6G13217   6.879   6.633   6.986 -1.0780 -2.3388 -0.8640
  124OSM    C7F13218   6.995   6.654   7.167 -0.1653 -0.4776 -0.0882
  124OSM    H7F13219   6.978   6.764   7.164  1.6344 -0.1849 -0.5269
  124OSM    H7G13220   7.098   6.639   7.205 -0.5724  1.7411  2.0063
  124OSM    C8F13221   6.913   6.587   7.266  0.3333 -0.1443 -0.1416
  124OSM    H8F13222   6.935   6.479   7.270 -0.9737 -0.3388  3.2015
  124OSM    H8G13223   6.806   6.587   7.235  0.4743 -2.2999 -0.6688
  124OSM    C9F13224   6.933   6.645   7.401 -0.4247 -0.3951  0.9390
  124OSM    H9F13225   6.941   6.754   7.408  0.2977 -0.1280 -2.8583
  124OSM   C10F13226   6.958   6.571   7.513  0.7190  0.4425  0.6115
  124OSM   H10F13227   6.958   6.624   7.609 -2.9913  1.7876 -0.0428
  124OSM   C11F13228   6.972   6.416   7.528  0.2133  0.8785  0.2617
  124OSM   H11F13229   7.057   6.390   7.462  1.0539  1.4656  1.0870
  124OSM   H11G13230   6.877   6.372   7.491  0.6794 -0.8273  1.0528
  124OSM   C12F13231   6.993   6.392   7.676 -0.2854 -0.0904  0.0135
  124OSM   H12F13232   6.904   6.414   7.738  0.4335  0.0426  1.0006
  124OSM   H12G13233   7.075   6.457   7.711 -0.4320  0.5719 -0.8380
  124OSM   C13F13234   7.034   6.249   7.705  0.1205  0.0017  0.2789
  124OSM   H13F13235   7.124   6.214   7.650 -0.8360 -0.7586 -0.7996
  124OSM   H13G13236   6.963   6.172   7.667  2.4690 -0.7981 -2.7296
  124OSM   C14F13237   7.029   6.209   7.855 -0.0116 -0.1191  0.4849
  124OSM   H14F13238   6.938   6.260   7.893  1.3433  0.7216  2.7418
  124OSM   H14G13239   7.109   6.255   7.918 -1.2060  1.5171  0.8402
  124OSM   C15F13240   7.022   6.060   7.888  0.4715 -0.0123 -1.1448
  124OSM   H15F13241   6.939   6.011   7.832 -0.4129  0.0416  0.1187
  124OSM   H15G13242   7.007   6.044   7.996 -0.1977 -0.2248 -1.2677
  124OSM   C16F13243   7.151   5.979   7.846 -0.1146  0.1332  0.2085
  124OSM   H16F13244   7.240   6.001   7.908  0.4073  0.7286 -0.7498
  124OSM   H16G13245   7.184   5.997   7.741 -0.6569 -2.5622 -0.4805
  124OSM   C17F13246   7.129   5.826   7.862  1.1729  0.0765  0.3368
  124OSM   H17F13247   7.218   5.773   7.821  1.3428 -2.3837  3.7211
  124OSM   H17G13248   7.038   5.798   7.805  0.4652  1.7658  0.5896
  124OSM   C18F13249   7.133   5.778   8.004  0.6748 -0.1651 -0.5239
  124OSM   H18F13250   7.047   5.808   8.069  2.9214 -1.5986  3.2780
  124OSM   H18G13251   7.225   5.796   8.064  0.8470 -3.2474  0.1856
  124OSM   H18H13252   7.119   5.668   7.997 -1.6932  0.0724 -0.1155
  125OSM      N13253   3.016   4.607   5.833 -0.8246 -0.4277  0.4460
  125OSM    C1513254   2.925   4.640   5.716  0.5363  0.3194 -0.3635
  125OSM   H15A13255   2.858   4.718   5.748 -0.0288 -0.0915 -0.5414
  125OSM   H15B13256   2.871   4.555   5.677  2.0622 -1.0243  0.4174
  125OSM   H15C13257   2.986   4.693   5.644  0.0167  0.5849 -0.6128
  125OSM    C1413258   3.093   4.478   5.802 -0.2663  0.1867  0.2021
  125OSM   H14A13259   3.153   4.486   5.712  1.7619  0.5360  1.5441
  125OSM   H14B13260   3.029   4.391   5.804 -1.6758  1.2262  3.2854
  125OSM   H14C13261   3.161   4.467   5.885 -3.0578 -0.3272  2.5069
  125OSM    C1313262   3.109   4.719   5.851 -0.7024  0.0234  0.1978
  125OSM   H13A13263   3.063   4.815   5.831 -1.3951 -0.0745  1.2525
  125OSM   H13B13264   3.194   4.705   5.786 -0.6794 -0.0701  0.2481
  125OSM   H13C13265   3.164   4.732   5.943  0.3098 -1.7446 -0.1280
  125OSM    C1213266   2.931   4.584   5.958 -0.5754  1.0026  0.7044
  125OSM   H12A13267   2.886   4.486   5.951 -1.8629  1.6694 -0.9588
  125OSM   H12B13268   2.853   4.658   5.971 -0.8679  0.3524  2.7596
  125OSM    C1113269   3.012   4.589   6.090 -0.2501  0.3182 -0.9320
  125OSM   H11A13270   2.945   4.552   6.170  1.9802  0.1900  0.9093
  125OSM   H11B13271   3.033   4.689   6.135  0.8991  0.5368 -1.9020
  125OSM      P13272   3.262   4.528   6.137  0.0615 -0.4646  0.0626
  125OSM    O1313273   3.342   4.407   6.095 -0.2155  0.2705  0.4070
  125OSM    O1413274   3.311   4.662   6.097  0.2752 -0.1412  0.2062
  125OSM    O1113275   3.246   4.538   6.292  0.7030  0.1727  0.1548
  125OSM    O1213276   3.116   4.498   6.082  0.4798 -0.2670 -0.4178
  125OSM    C1S13277   3.219   4.420   6.368  0.2271 -1.3464  0.5067
  125OSM    H1S13278   3.306   4.353   6.381  0.0747 -1.1705  2.6912
  125OSM    H1T13279   3.141   4.356   6.320 -1.8940  1.3456  0.1846
  125OSM     NF13280   3.165   4.335   6.601  0.3459 -0.1323 -0.4679
  125OSM    HNF13281   3.082   4.287   6.629 -0.2285  1.0231 -0.1712
  125OSM    C2S13282   3.167   4.452   6.515 -0.9158 -0.2343 -0.8584
  125OSM    H2S13283   3.235   4.530   6.556 -2.6089  0.7902  0.0690
  125OSM    C3S13284   3.027   4.523   6.507 -0.2033 -0.1603 -0.7165
  125OSM    H3S13285   2.947   4.447   6.501  0.1125 -0.3295 -2.9740
  125OSM     O313286   3.005   4.604   6.394  0.5916  0.0188 -0.0321
  125OSM    HO313287   3.094   4.597   6.358 -0.3353 -2.8923 -1.9246
  125OSM    C4S13288   3.005   4.605   6.637 -0.3058 -0.1462 -0.0970
  125OSM    H4S13289   2.969   4.549   6.725  0.3897 -1.0574 -0.3737
  125OSM    C5S13290   3.034   4.734   6.658  0.0426  0.7534  0.1659
  125OSM    H5S13291   3.067   4.804   6.580 -0.4166 -0.2363 -0.9322
  125OSM    C6S13292   3.006   4.815   6.788 -0.8070 -0.7101 -0.0793
  125OSM    H6S13293   2.957   4.745   6.860  0.6370 -1.9926 -0.3197
  125OSM    H6T13294   2.932   4.896   6.768  0.2813  0.2260 -0.3578
  125OSM    C7S13295   3.135   4.865   6.849  0.1970  0.3318 -0.3734
  125OSM    H7S13296   3.186   4.920   6.767  0.1564 -1.1468 -1.4143
  125OSM    H7T13297   3.211   4.787   6.869 -0.9230 -0.9324 -0.9837
  125OSM    C8S13298   3.127   4.971   6.971 -0.2580  0.1509 -0.6817
  125OSM    H8S13299   3.058   5.054   6.943  0.7813  0.9477 -0.9244
  125OSM    H8T13300   3.227   5.016   6.989 -0.1740 -0.0047 -0.7565
  125OSM    C9S13301   3.075   4.914   7.112  0.1984 -0.3568  0.2949
  125OSM    H9S13302   3.138   4.827   7.139 -0.0775 -1.4184 -2.2746
  125OSM    H9T13303   2.973   4.873   7.111  0.7926 -1.8600  1.0052
  125OSM   C10S13304   3.096   5.010   7.227 -0.3849 -0.2090  1.0668
  125OSM   H10S13305   3.036   5.103   7.216 -0.4792 -0.6098 -2.0717
  125OSM   H10T13306   3.203   5.041   7.229 -0.2869 -0.5195  0.6262
  125OSM   C11S13307   3.064   4.944   7.362  0.4283 -0.3798 -0.0549
  125OSM   H11S13308   3.150   4.884   7.397  0.2038 -0.0916  1.0070
  125OSM   H11T13309   2.971   4.883   7.359 -0.2378  0.6302 -0.2914
  125OSM   C12S13310   3.050   5.052   7.467  0.7136  0.2252  0.0928
  125OSM   H12S13311   2.999   5.143   7.429  2.0348  1.4243  1.1099
  125OSM   H12T13312   3.150   5.094   7.491  1.0177  0.5631 -1.7021
  125OSM   C13S13313   2.990   5.002   7.607  0.0965 -1.3298 -0.0303
  125OSM   H13S13314   3.016   4.899   7.638 -0.6884 -0.9085  2.1300
  125OSM   H13T13315   2.880   5.010   7.593 -0.1388  0.3456  2.3501
  125OSM   C14S13316   3.027   5.090   7.730 -1.0302 -0.0774  0.3273
  125OSM   H14S13317   3.008   5.197   7.706 -0.9829 -0.1873 -0.2143
  125OSM   H14T13318   3.132   5.081   7.763 -0.8389  1.2506  0.0946
  125OSM   C15S13319   2.946   5.043   7.852  0.5582  0.8439  0.1918
  125OSM   H15S13320   2.995   4.945   7.872 -0.7890  0.3569  1.1856
  125OSM   H15T13321   2.841   5.022   7.825  0.0335  0.6405  2.2879
  125OSM   C16S13322   2.970   5.135   7.979  0.1467  0.5087 -0.0390
  125OSM   H16S13323   2.924   5.235   7.966  0.0293  0.1060 -2.8829
  125OSM   H16T13324   3.079   5.152   7.978  0.0761  1.0169  0.6075
  125OSM   C17S13325   2.935   5.076   8.109  0.1527 -0.2157  0.0819
  125OSM   H17S13326   2.978   5.134   8.193  1.9532 -1.6569  0.1808
  125OSM   H17T13327   2.979   4.975   8.117  0.6584  0.1286  1.7755
  125OSM   C18S13328   2.789   5.069   8.147  0.3031  0.1373 -0.6481
  125OSM   H18S13329   2.736   4.981   8.104  1.0180 -0.0685 -1.1129
  125OSM   H18T13330   2.732   5.159   8.115  2.9528  1.7428 -0.9539
  125OSM   H18U13331   2.773   5.063   8.257 -0.7284 -0.5545 -0.8294
  125OSM    C1F13332   3.276   4.283   6.649  0.2238  0.0085 -0.7811
  125OSM     OF13333   3.377   4.330   6.606 -0.0612 -0.7421  0.3921
  125OSM    C2F13334   3.269   4.163   6.737  0.0421 -0.3330 -0.1896
  125OSM    H2F13335   3.268   4.074   6.670 -0.9862 -0.2848 -0.2341
  125OSM    H2G13336   3.174   4.170   6.793 -0.4915 -1.4911 -0.9323
  125OSM    C3F13337   3.378   4.163   6.846 -0.0380  0.0264 -0.3225
  125OSM    H3F13338   3.476   4.158   6.794  0.4415  1.3643  0.4512
  125OSM    H3G13339   3.361   4.068   6.901 -0.0251  0.1747 -0.0619
  125OSM    C4F13340   3.370   4.275   6.952  0.3748 -0.4376  0.2295
  125OSM    H4F13341   3.265   4.301   6.978  0.2715  1.2755 -1.7730
  125OSM    H4G13342   3.410   4.365   6.901  0.3530 -0.6756 -0.2064
  125OSM    C5F13343   3.468   4.289   7.065 -0.3116  0.6467  0.2800
  125OSM    H5F13344   3.473   4.397   7.089  1.0273  0.8977 -1.0307
  125OSM    H5G13345   3.574   4.277   7.035 -0.3101 -0.7066  0.7521
  125OSM    C6F13346   3.450   4.218   7.203  0.3095  0.7014 -0.4779
  125OSM    H6F13347   3.557   4.219   7.234 -0.0361 -0.4663  0.8354
  125OSM    H6G13348   3.430   4.109   7.188 -0.4119  0.5350  1.4691
  125OSM    C7F13349   3.359   4.266   7.305  0.3852  0.4930  0.8159
  125OSM    H7F13350   3.259   4.229   7.276  0.8075  1.0715 -1.4674
  125OSM    H7G13351   3.359   4.377   7.305  3.0137  0.5369 -1.3382
  125OSM    C8F13352   3.398   4.206   7.450 -0.7999  0.0918  0.4641
  125OSM    H8F13353   3.508   4.192   7.463 -0.9387 -1.1995  0.3020
  125OSM    H8G13354   3.368   4.101   7.435 -0.1398  0.3102 -2.8143
  125OSM    C9F13355   3.305   4.260   7.553  0.2675 -0.3792 -0.2674
  125OSM    H9F13356   3.207   4.286   7.510 -0.8021 -3.2746  0.3192
  125OSM   C10F13357   3.319   4.289   7.683 -0.4281  0.5493  0.3333
  125OSM   H10F13358   3.235   4.338   7.734  0.3929  0.7122  1.5485
  125OSM   C11F13359   3.442   4.269   7.766  0.0024 -0.4956 -0.4199
  125OSM   H11F13360   3.479   4.367   7.804  1.0808 -2.3040  3.3891
  125OSM   H11G13361   3.517   4.213   7.706 -0.4987 -1.3044 -0.2929
  125OSM   C12F13362   3.425   4.185   7.889  0.1197 -1.0944  0.1307
  125OSM   H12F13363   3.530   4.183   7.925 -0.4693 -1.0905  1.8623
  125OSM   H12G13364   3.394   4.084   7.855  1.0005 -1.5024  0.5194
  125OSM   C13F13365   3.323   4.248   7.990  0.3808 -0.6440 -0.9291
  125OSM   H13F13366   3.226   4.215   7.949  0.3251 -2.2611  0.4662
  125OSM   H13G13367   3.319   4.358   7.975 -0.2783 -0.5013  0.2336
  125OSM   C14F13368   3.345   4.201   8.135 -0.0755  0.6167 -0.8969
  125OSM   H14F13369   3.420   4.268   8.183  0.1300  0.1649 -0.5740
  125OSM   H14G13370   3.380   4.096   8.123  0.0063  0.4628  0.5830
  125OSM   C15F13371   3.212   4.201   8.221 -0.2722  0.2335  0.3315
  125OSM   H15F13372   3.143   4.129   8.173 -0.3031  1.1214 -0.9957
  125OSM   H15G13373   3.166   4.301   8.237 -0.4833  0.5064 -1.8402
  125OSM   C16F13374   3.247   4.146   8.359 -0.2462  0.0537  0.4330
  125OSM   H16F13375   3.161   4.170   8.426  0.9382 -2.2156  2.8601
  125OSM   H16G13376   3.331   4.192   8.415  0.0370 -1.9714  1.7140
  125OSM   C17F13377   3.277   3.997   8.369 -0.5992 -0.9909 -0.6626
  125OSM   H17F13378   3.377   3.983   8.322 -1.1813 -2.2856 -1.5283
  125OSM   H17G13379   3.198   3.951   8.308 -1.5049 -0.7153  0.2878
  125OSM   C18F13380   3.282   3.941   8.513  0.4288 -0.1916 -0.0961
  125OSM   H18F13381   3.352   4.002   8.574  0.0572  1.4023 -1.2191
  125OSM   H18G13382   3.324   3.838   8.514 -1.2769 -0.9142 -0.1489
  125OSM   H18H13383   3.183   3.955   8.561  1.3022  0.8028  1.4312
  126OSM      N13384   0.540   2.039   6.459 -0.1797 -0.1138 -0.2850
  126OSM    C1513385   0.600   2.133   6.555 -0.0210 -0.7512 -0.1931
  126OSM   H15A13386   0.706   2.114   6.566  0.4535  0.7229 -2.1221
  126OSM   H15B13387   0.551   2.125   6.651  1.5209 -0.4903  0.6255
  126OSM   H15C13388   0.592   2.231   6.511 -0.8292 -0.7728 -0.0946
  126OSM    C1413389   0.564   2.105   6.322 -0.7218  0.4358 -0.2062
  126OSM   H14A13390   0.571   2.020   6.255  2.3577 -0.7196  1.4498
  126OSM   H14B13391   0.659   2.156   6.321 -1.1466  1.3823  2.4225
  126OSM   H14C13392   0.489   2.176   6.291 -2.9971 -1.5968  0.4804
  126OSM    C1313393   0.601   1.907   6.476 -0.0725  0.1440  0.2190
  126OSM   H13A13394   0.548   1.830   6.423  1.2496 -0.2703 -0.4978
  126OSM   H13B13395   0.597   1.871   6.578  0.8500  1.3125  0.6735
  126OSM   H13C13396   0.702   1.897   6.439 -0.3688  1.7691 -1.1339
  126OSM    C1213397   0.388   2.026   6.495 -0.5166 -0.5286 -0.6702
  126OSM   H12A13398   0.374   1.975   6.589  1.6856  1.7109  0.9083
  126OSM   H12B13399   0.340   1.961   6.423  1.7341 -0.3819 -2.3782
  126OSM    C1113400   0.303   2.153   6.517 -0.0237 -0.7418  0.2339
  126OSM   H11A13401   0.195   2.127   6.522 -0.1845  0.0165  0.7601
  126OSM   H11B13402   0.329   2.214   6.428  0.9424  0.2789  1.2019
  126OSM      P13403   0.344   2.377   6.665  0.0987 -0.0729 -0.1880
  126OSM    O1313404   0.406   2.395   6.798  0.2152  0.0190 -0.0091
  126OSM    O1413405   0.402   2.448   6.548 -0.2188  0.1079 -0.2573
  126OSM    O1113406   0.189   2.413   6.670 -0.1293  0.5685  0.3877
  126OSM    O1213407   0.346   2.224   6.635  0.0046  0.0984 -0.0430
  126OSM    C1S13408   0.094   2.344   6.748  0.3727  0.1467  0.0042
  126OSM    H1S13409   0.106   2.234   6.753  1.1926  0.2051 -0.6739
  126OSM    H1T13410  -0.009   2.358   6.708 -0.1025  0.0337  1.1594
  126OSM     NF13411  -0.003   2.301   6.969 -0.2391  0.4087  1.0040
  126OSM    HNF13412  -0.097   2.324   6.995 -0.7446  0.4859 -0.8377
  126OSM    C2S13413   0.080   2.395   6.897  0.2703 -0.7156 -0.2301
  126OSM    H2S13414   0.184   2.392   6.936 -0.3513 -2.1079  1.4168
  126OSM    C3S13415   0.038   2.538   6.896  0.3655  0.4635 -0.0283
  126OSM    H3S13416  -0.057   2.547   6.838  0.5103 -2.5935 -0.8047
  126OSM     O313417   0.126   2.627   6.826 -0.1736 -0.0413  0.2276
  126OSM    HO313418   0.168   2.565   6.766  0.0747  1.2971 -1.0392
  126OSM    C4S13419   0.024   2.597   7.032  0.1418  0.2535 -0.0178
  126OSM    H4S13420   0.118   2.603   7.090  0.6863 -0.3487 -0.8203
  126OSM    C5S13421  -0.094   2.641   7.077 -0.2824  0.0505 -0.3788
  126OSM    H5S13422  -0.189   2.623   7.025 -0.5475 -0.9577  0.4211
  126OSM    C6S13423  -0.110   2.698   7.213  0.2572  0.2730 -0.8631
  126OSM    H6S13424  -0.178   2.637   7.276 -1.5315  1.3295 -1.7417
  126OSM    H6T13425  -0.160   2.797   7.207  0.8362  0.5633 -0.9748
  126OSM    C7S13426   0.017   2.734   7.291  0.5861 -0.0681  0.9564
  126OSM    H7S13427   0.073   2.812   7.236  1.4098  0.1623  2.1061
  126OSM    H7T13428   0.086   2.646   7.290  0.2849 -0.3356 -1.9388
  126OSM    C8S13429  -0.008   2.783   7.432  0.4885 -0.9838 -0.3534
  126OSM    H8S13430  -0.055   2.694   7.479  3.0553 -2.5118 -0.5923
  126OSM    H8T13431  -0.081   2.866   7.423  0.6446 -0.9741 -1.6077
  126OSM    C9S13432   0.110   2.823   7.518  0.2739 -0.1974  1.5141
  126OSM    H9S13433   0.169   2.901   7.466  2.4024 -4.0930 -2.2234
  126OSM    H9T13434   0.186   2.743   7.506  1.1286  0.7263  0.7324
  126OSM   C10S13435   0.076   2.850   7.664  0.3240 -0.0241 -0.6586
  126OSM   H10S13436   0.014   2.941   7.674  0.0107 -0.3042 -0.0390
  126OSM   H10T13437   0.166   2.869   7.727 -2.0210 -1.3457  3.2371
  126OSM   C11S13438   0.018   2.733   7.741  0.6464  0.1441 -0.7747
  126OSM   H11S13439   0.074   2.640   7.722 -0.2967 -0.3232 -1.3162
  126OSM   H11T13440  -0.087   2.728   7.704  0.4382  0.9955 -0.3134
  126OSM   C12S13441   0.023   2.750   7.897  0.6288 -0.7308  1.2199
  126OSM   H12S13442   0.130   2.755   7.925  0.4643 -0.6316  1.8352
  126OSM   H12T13443  -0.009   2.656   7.947 -1.5737 -0.5001  0.3131
  126OSM   C13S13444  -0.056   2.867   7.956  0.0409 -0.1267 -0.2297
  126OSM   H13S13445  -0.165   2.853   7.943  0.1960 -2.0842  0.4548
  126OSM   H13T13446  -0.029   2.965   7.910  1.1114 -0.9022 -1.2768
  126OSM   C14S13447  -0.022   2.890   8.105 -0.1386 -0.8544 -0.2637
  126OSM   H14S13448  -0.084   2.972   8.147  0.2448 -0.6639 -0.0568
  126OSM   H14T13449   0.082   2.927   8.121 -0.2276 -1.3534  1.6512
  126OSM   C15S13450  -0.042   2.764   8.198  0.0374 -0.1036 -0.6198
  126OSM   H15S13451  -0.004   2.789   8.299  0.5089 -0.9831 -0.5792
  126OSM   H15T13452   0.013   2.673   8.166 -2.1484 -1.9123  0.6528
  126OSM   C16S13453  -0.191   2.726   8.199  0.3917  0.0444 -0.2409
  126OSM   H16S13454  -0.211   2.688   8.096 -0.8518  1.1303 -0.4060
  126OSM   H16T13455  -0.265   2.801   8.234  1.2104  1.1650 -0.8508
  126OSM   C17S13456  -0.215   2.598   8.278 -0.2288  0.0356 -0.2220
  126OSM   H17S13457  -0.128   2.530   8.264  0.8241  1.0556  1.2732
  126OSM   H17T13458  -0.302   2.546   8.233 -0.3889 -1.2684  1.5365
  126OSM   C18S13459  -0.236   2.616   8.426 -0.1964 -0.4159 -0.2897
  126OSM   H18S13460  -0.148   2.602   8.492 -1.7950 -1.2528  1.7268
  126OSM   H18T13461  -0.323   2.553   8.456  0.5728 -1.2145  0.2833
  126OSM   H18U13462  -0.264   2.720   8.449  1.6015 -0.4391  2.1640
  126OSM    C1F13463   0.035   2.187   7.009 -0.1395  0.0476  0.3221
  126OSM     OF13464   0.156   2.165   7.002 -0.5667  0.3613 -0.1898
  126OSM    C2F13465  -0.059   2.080   7.055  0.2088 -0.6502 -0.5199
  126OSM    H2F13466  -0.132   2.067   6.973  2.4129 -1.5424 -2.4032
  126OSM    H2G13467  -0.118   2.111   7.144  0.3491 -1.1152 -0.2571
  126OSM    C3F13468   0.008   1.942   7.077 -0.2087 -0.0843  0.0470
  126OSM    H3F13469   0.095   1.937   7.146  0.0007 -1.1788 -0.2943
  126OSM    H3G13470   0.049   1.910   6.978  2.2403 -1.2121  1.3688
  126OSM    C4F13471  -0.102   1.848   7.133 -0.4541 -0.1438  0.3309
  126OSM    H4F13472  -0.184   1.835   7.059  0.5951 -0.6112 -0.7772
  126OSM    H4G13473  -0.145   1.917   7.209 -0.9814 -1.3129  1.1088
  126OSM    C5F13474  -0.062   1.711   7.177  0.3151  0.3774  0.2569
  126OSM    H5F13475  -0.007   1.650   7.103  3.0917  0.3022  2.2911
  126OSM    H5G13476  -0.150   1.647   7.201 -0.1838  1.1483  0.5273
  126OSM    C6F13477   0.014   1.710   7.308  0.1652  0.1618  0.0475
  126OSM    H6F13478   0.099   1.781   7.305 -0.8588  1.3697 -0.4216
  126OSM    H6G13479   0.048   1.604   7.314 -0.1125 -0.2275 -3.7156
  126OSM    C7F13480  -0.062   1.762   7.433 -0.3386  0.0743 -0.0898
  126OSM    H7F13481  -0.150   1.695   7.436  0.3663 -0.9710 -1.8212
  126OSM    H7G13482  -0.102   1.857   7.392  0.6822 -0.7319 -3.0803
  126OSM    C8F13483   0.013   1.769   7.569 -0.5211 -0.3926  0.2772
  126OSM    H8F13484   0.095   1.842   7.552 -0.7025 -0.7094 -2.1423
  126OSM    H8G13485   0.065   1.673   7.593 -1.0832 -0.7698  0.0212
  126OSM    C9F13486  -0.078   1.814   7.677 -0.0483  0.2468 -0.1739
  126OSM    H9F13487  -0.162   1.868   7.632 -0.5935  0.9050  1.5800
  126OSM   C10F13488  -0.067   1.801   7.808 -0.6608  0.0561  0.1889
  126OSM   H10F13489  -0.154   1.826   7.870  0.4308  0.3128  1.6424
  126OSM   C11F13490   0.047   1.738   7.888 -0.3152 -0.7275 -0.0194
  126OSM   H11F13491   0.116   1.824   7.900  0.2660 -0.8821 -2.0157
  126OSM   H11G13492   0.107   1.660   7.835 -1.5603 -3.1032  1.9278
  126OSM   C12F13493  -0.018   1.673   8.000 -0.3142  0.2823  0.2061
  126OSM   H12F13494  -0.079   1.588   7.964  0.9907 -0.2011 -0.8911
  126OSM   H12G13495  -0.083   1.751   8.047 -0.8991 -0.9759  1.5269
  126OSM   C13F13496   0.079   1.629   8.113 -0.2393  0.0920 -0.3968
  126OSM   H13F13497   0.129   1.537   8.076 -0.4059 -0.6855  1.2721
  126OSM   H13G13498   0.012   1.588   8.192  0.4458  1.1196  0.7244
  126OSM   C14F13499   0.172   1.740   8.156 -0.1144 -0.5038  0.2858
  126OSM   H14F13500   0.114   1.835   8.153 -1.9204 -1.6153 -1.3133
  126OSM   H14G13501   0.253   1.767   8.084  1.8625 -0.5249  2.4623
  126OSM   C15F13502   0.230   1.728   8.296 -0.1512 -0.1238 -0.6322
  126OSM   H15F13503   0.336   1.762   8.300 -0.9177  2.3562 -0.0679
  126OSM   H15G13504   0.233   1.620   8.320  0.3381  0.2387  1.0316
  126OSM   C16F13505   0.153   1.810   8.400  0.2857  0.7230 -0.2880
  126OSM   H16F13506   0.053   1.761   8.405  0.9235 -0.5949 -0.1566
  126OSM   H16G13507   0.135   1.913   8.362 -0.4209  0.8365  0.3523
  126OSM   C17F13508   0.218   1.812   8.538 -0.2342  0.3125  0.4740
  126OSM   H17F13509   0.152   1.874   8.602  0.2012  0.9237  0.3334
  126OSM   H17G13510   0.313   1.869   8.530 -0.9213  1.4229  0.0861
  126OSM   C18F13511   0.251   1.683   8.614 -0.2950  0.3516  0.1152
  126OSM   H18F13512   0.158   1.625   8.633  0.1105 -0.0379  0.9465
  126OSM   H18G13513   0.296   1.698   8.715 -0.3464 -1.5421  0.4390
  126OSM   H18H13514   0.306   1.611   8.550 -0.9049  0.5809 -0.6764
  127OSM      N13515   5.820   4.045   6.269  0.2159 -0.5048  0.0581
  127OSM    C1513516   5.870   4.155   6.186 -0.4447  0.2943 -0.0221
  127OSM   H15A13517   5.801   4.178   6.107 -0.4416 -0.5180 -0.2661
  127OSM   H15B13518   5.958   4.131   6.128 -0.7393  0.5185 -0.5632
  127OSM   H15C13519   5.892   4.246   6.240 -1.8761  0.9029 -0.4270
  127OSM    C1413520   5.819   3.914   6.193  0.2761  0.2840  0.0181
  127OSM   H14A13521   5.772   3.936   6.098  1.7712 -0.0241 -0.8128
  127OSM   H14B13522   5.760   3.844   6.251 -0.1031  0.7655  0.2166
  127OSM   H14C13523   5.918   3.871   6.191  0.1882  0.1206 -1.1849
  127OSM    C1313524   5.899   4.041   6.394 -0.6838  0.2755  0.4729
  127OSM   H13A13525   6.003   4.015   6.381 -0.3618  0.4918  2.4376
  127OSM   H13B13526   5.854   3.974   6.465  2.1560 -1.0723  1.0607
  127OSM   H13C13527   5.907   4.137   6.443 -1.2395  0.6594 -0.1615
  127OSM    C1213528   5.672   4.085   6.291  0.3394  1.1431  0.0988
  127OSM   H12A13529   5.619   4.091   6.197 -1.5035 -0.4861  1.0064
  127OSM   H12B13530   5.679   4.184   6.334 -2.0264  1.2129  0.3951
  127OSM    C1113531   5.588   3.991   6.381  0.1837  0.0359  0.2288
  127OSM   H11A13532   5.491   4.042   6.395 -0.1910  0.0314 -2.1278
  127OSM   H11B13533   5.631   3.978   6.483  1.2188 -0.5126 -0.2600
  127OSM      P13534   5.432   3.836   6.239  0.1318 -0.1319 -0.3851
  127OSM    O1313535   5.414   3.936   6.128  0.2687 -0.1632 -0.1677
  127OSM    O1413536   5.426   3.694   6.201  0.3470  0.0882 -0.0324
  127OSM    O1113537   5.313   3.860   6.338 -0.2853 -0.0431  0.0831
  127OSM    O1213538   5.566   3.861   6.326 -0.1886 -0.2484 -0.4692
  127OSM    C1S13539   5.296   3.772   6.455 -0.4312  0.8144 -0.0986
  127OSM    H1S13540   5.378   3.786   6.530 -0.7831 -1.5527  0.7905
  127OSM    H1T13541   5.294   3.666   6.423  0.5900  0.6896  0.2162
  127OSM     NF13542   5.159   3.708   6.650 -0.5103  0.0576 -0.2218
  127OSM    HNF13543   5.076   3.657   6.671 -0.7194  0.3778 -0.2622
  127OSM    C2S13544   5.165   3.800   6.537 -0.8318 -0.1963 -0.1076
  127OSM    H2S13545   5.161   3.906   6.570 -0.0546 -0.2744  0.2585
  127OSM    C3S13546   5.040   3.789   6.445 -0.6368  0.1037  0.2159
  127OSM    H3S13547   5.040   3.683   6.410 -0.3599  0.1766 -0.0038
  127OSM     O313548   5.042   3.858   6.317 -0.6027  0.6284 -0.0371
  127OSM    HO313549   5.133   3.888   6.316 -0.5501  0.4690  0.0423
  127OSM    C4S13550   4.917   3.835   6.515 -0.7465  0.4365 -0.6250
  127OSM    H4S13551   4.926   3.939   6.551  0.7463  0.2824 -0.5417
  127OSM    C5S13552   4.793   3.774   6.526 -0.2538 -0.0163  0.2584
  127OSM    H5S13553   4.776   3.673   6.486  0.9414 -0.2469  0.3225
  127OSM    C6S13554   4.673   3.831   6.600 -0.8874 -0.4769  0.2012
  127OSM    H6S13555   4.645   3.753   6.674  1.2218 -1.0550  0.4100
  127OSM    H6T13556   4.591   3.847   6.526 -0.0303  1.5919 -0.3410
  127OSM    C7S13557   4.695   3.965   6.673 -0.6199 -0.3248  0.5338
  127OSM    H7S13558   4.595   4.013   6.684 -0.4067  0.4400 -0.7473
  127OSM    H7T13559   4.753   4.034   6.608  0.3308  0.9068  2.6140
  127OSM    C8S13560   4.748   3.933   6.812  0.3487  0.4470  0.9954
  127OSM    H8S13561   4.852   3.892   6.809 -0.0880 -0.6118 -0.9173
  127OSM    H8T13562   4.688   3.862   6.873  0.9492 -0.8511  0.0998
  127OSM    C9S13563   4.770   4.054   6.899  0.7750  0.7707 -0.0145
  127OSM    H9S13564   4.690   4.125   6.869 -1.3911 -2.0359 -1.0670
  127OSM    H9T13565   4.872   4.097   6.885  1.5040 -0.3072  1.7517
  127OSM   C10S13566   4.746   4.028   7.051  0.4353 -0.1014 -0.4223
  127OSM   H10S13567   4.650   3.978   7.075  0.2545  0.9209  1.0854
  127OSM   H10T13568   4.735   4.125   7.105 -0.0547 -0.8226  0.7921
  127OSM   C11S13569   4.861   3.957   7.108 -0.1739 -0.1539  0.1398
  127OSM   H11S13570   4.949   4.020   7.083 -1.3573  1.9775  1.1513
  127OSM   H11T13571   4.877   3.857   7.062 -1.0551  0.2614 -1.1181
  127OSM   C12S13572   4.860   3.930   7.263  0.7339  0.6913  0.3184
  127OSM   H12S13573   4.933   3.849   7.283  0.3247 -0.3996 -2.3213
  127OSM   H12T13574   4.759   3.889   7.286  0.7681  0.1448 -0.4569
  127OSM   C13S13575   4.906   4.052   7.346  0.3521 -0.0457 -0.1131
  127OSM   H13S13576   4.844   4.141   7.322  0.1198 -0.3378 -0.6074
  127OSM   H13T13577   5.011   4.075   7.318  1.0760  0.1326  2.6807
  127OSM   C14S13578   4.913   4.031   7.495 -0.0664 -0.3614 -0.4088
  127OSM   H14S13579   4.939   4.126   7.544  0.1295 -1.0881  0.9235
  127OSM   H14T13580   4.994   3.956   7.508 -0.1768 -0.0280  2.4118
  127OSM   C15S13581   4.791   3.969   7.562  0.3016 -0.4136  0.4862
  127OSM   H15S13582   4.761   3.886   7.494  0.7872 -0.8601  0.8042
  127OSM   H15T13583   4.709   4.040   7.580  0.0745 -0.8847  1.3214
  127OSM   C16S13584   4.827   3.915   7.702 -0.1927  0.0365 -0.0992
  127OSM   H16S13585   4.915   3.849   7.691 -0.1641  0.4824 -3.0549
  127OSM   H16T13586   4.742   3.848   7.728 -1.3536  1.0353 -1.2143
  127OSM   C17S13587   4.855   4.029   7.808 -0.0603  0.1023 -0.0101
  127OSM   H17S13588   4.763   4.084   7.839  0.9748  1.0255  1.5489
  127OSM   H17T13589   4.935   4.093   7.765  1.0961 -1.8577 -0.8273
  127OSM   C18S13590   4.908   3.972   7.944  0.1332 -0.3981  0.4896
  127OSM   H18S13591   4.835   3.900   7.987 -0.2602 -1.3932 -1.8220
  127OSM   H18T13592   4.928   4.056   8.015  0.0782 -1.8021  2.2215
  127OSM   H18U13593   5.005   3.920   7.927 -0.8127 -1.9152 -0.3609
  127OSM    C1F13594   5.252   3.678   6.741 -0.7710  0.0925 -0.6329
  127OSM     OF13595   5.373   3.693   6.734  0.3176  0.5468 -0.0061
  127OSM    C2F13596   5.189   3.610   6.862 -0.2884 -0.3222 -0.8382
  127OSM    H2F13597   5.231   3.509   6.880 -1.5716 -0.8439 -0.6864
  127OSM    H2G13598   5.079   3.621   6.860 -0.1279  1.2546 -1.2380
  127OSM    C3F13599   5.236   3.689   6.991  0.3203 -0.1589  0.3104
  127OSM    H3F13600   5.209   3.796   6.983  0.0447 -0.3337 -1.3655
  127OSM    H3G13601   5.346   3.674   6.995  0.2694 -0.1681  1.7626
  127OSM    C4F13602   5.180   3.630   7.120  0.0453 -0.1552  0.1429
  127OSM    H4F13603   5.205   3.522   7.118 -0.5055 -0.2701 -0.7062
  127OSM    H4G13604   5.070   3.637   7.128  0.1840  4.3037 -0.6035
  127OSM    C5F13605   5.249   3.688   7.244  0.2648 -0.2189 -0.2738
  127OSM    H5F13606   5.355   3.660   7.229  0.3384  0.6800 -1.5050
  127OSM    H5G13607   5.222   3.632   7.336 -1.3463  0.9805  0.0134
  127OSM    C6F13608   5.246   3.838   7.254 -0.3488  0.5382  0.4351
  127OSM    H6F13609   5.140   3.873   7.254 -0.0253  1.5434 -0.0472
  127OSM    H6G13610   5.276   3.881   7.157 -3.4847 -0.6820 -1.1433
  127OSM    C7F13611   5.318   3.896   7.374 -0.1556  0.2514 -0.1537
  127OSM    H7F13612   5.418   3.849   7.367 -0.5068 -0.4245 -0.7328
  127OSM    H7G13613   5.269   3.875   7.472 -3.4918  2.1172 -1.3508
  127OSM    C8F13614   5.337   4.051   7.359  0.1933  0.8924 -0.4022
  127OSM    H8F13615   5.241   4.106   7.351  0.1419  0.8178 -0.3023
  127OSM    H8G13616   5.378   4.061   7.256 -1.0498  3.1404 -0.7065
  127OSM    C9F13617   5.433   4.114   7.451  0.7863  0.7902  0.1851
  127OSM    H9F13618   5.516   4.165   7.400  1.2689 -0.6219 -0.4541
  127OSM   C10F13619   5.434   4.118   7.587 -0.4093 -0.2933  0.1577
  127OSM   H10F13620   5.523   4.160   7.636 -1.6005  3.4950 -0.7500
  127OSM   C11F13621   5.327   4.055   7.674 -0.6602 -0.5464  0.4682
  127OSM   H11F13622   5.361   3.959   7.718  0.5259 -0.0841  0.5745
  127OSM   H11G13623   5.235   4.034   7.615 -1.3225  3.2302  0.0097
  127OSM   C12F13624   5.277   4.134   7.794  0.0641  0.2604  0.0336
  127OSM   H12F13625   5.167   4.126   7.788  0.0306  1.1953 -0.7322
  127OSM   H12G13626   5.307   4.241   7.793  2.3608 -0.3455 -1.3091
  127OSM   C13F13627   5.317   4.076   7.929 -0.1354  0.3355  0.5382
  127OSM   H13F13628   5.421   4.110   7.945 -0.2476  1.2703 -0.6098
  127OSM   H13G13629   5.315   3.966   7.936  0.1641  0.0676 -2.6976
  127OSM   C14F13630   5.229   4.148   8.039  0.4227 -0.2146  0.9182
  127OSM   H14F13631   5.133   4.104   8.005  0.3701  1.4893 -1.2355
  127OSM   H14G13632   5.222   4.258   8.034  1.2454 -0.1562  0.8981
  127OSM   C15F13633   5.269   4.099   8.176  0.0499  0.2122  0.4287
  127OSM   H15F13634   5.267   3.988   8.179  2.9055  0.1360  0.7369
  127OSM   H15G13635   5.192   4.131   8.249 -0.1950 -0.8059  0.6235
  127OSM   C16F13636   5.405   4.160   8.215  0.3697 -0.4327 -0.1942
  127OSM   H16F13637   5.392   4.268   8.188 -1.2456 -0.3019  1.0768
  127OSM   H16G13638   5.490   4.122   8.154 -0.9397 -0.4154 -2.0575
  127OSM   C17F13639   5.435   4.145   8.362 -0.4864  1.0812 -0.0649
  127OSM   H17F13640   5.443   4.038   8.391 -2.3054  0.5380 -1.5069
  127OSM   H17G13641   5.354   4.183   8.427 -0.1733 -0.8854  1.5142
  127OSM   C18F13642   5.568   4.221   8.400  1.1893  0.4673 -0.7240
  127OSM   H18F13643   5.557   4.328   8.371 -1.7346 -0.5299 -3.5221
  127OSM   H18G13644   5.653   4.185   8.339  2.9974 -2.1716  3.1897
  127OSM   H18H13645   5.599   4.207   8.506  1.4021 -1.6564 -1.0615
  128OSM      N13646   4.694   0.048   5.737  0.2276 -0.4785  0.7118
  128OSM    C1513647   4.558  -0.004   5.785  0.5704 -0.1861 -0.0144
  128OSM   H15A13648   4.577  -0.052   5.880  1.6244  0.9343  0.3550
  128OSM   H15B13649   4.524  -0.083   5.720 -1.2902 -0.3820  1.1497
  128OSM   H15C13650   4.486   0.075   5.799  1.3786  0.2000  2.3097
  128OSM    C1413651   4.786  -0.067   5.756 -0.6670  0.2397 -0.3865
  128OSM   H14A13652   4.793  -0.106   5.856  0.6827  1.7827  0.1459
  128OSM   H14B13653   4.887  -0.037   5.732 -1.0449  1.4751 -0.4638
  128OSM   H14C13654   4.743  -0.144   5.694 -1.2451  1.2981 -1.3069
  128OSM    C1313655   4.682   0.088   5.590  0.4176  0.1227  0.0833
  128OSM   H13A13656   4.777   0.123   5.553  0.0286  0.4731 -0.5909
  128OSM   H13B13657   4.611   0.166   5.569  0.3566  0.2551  0.7577
  128OSM   H13C13658   4.648   0.010   5.524 -0.7015  0.0095  0.7680
  128OSM    C1213659   4.719   0.173   5.821 -0.1149  0.4661 -0.0051
  128OSM   H12A13660   4.643   0.245   5.796  0.1639  0.5654 -0.5663
  128OSM   H12B13661   4.812   0.218   5.787 -0.1315 -0.9749 -2.0107
  128OSM    C1113662   4.731   0.147   5.974 -1.1205  0.1951 -0.2799
  128OSM   H11A13663   4.646   0.098   6.027 -0.4204 -1.3597 -0.5623
  128OSM   H11B13664   4.741   0.245   6.024 -0.7434 -0.3937  0.8225
  128OSM      P13665   4.983   0.132   6.048  0.1108 -0.0248 -0.4098
  128OSM    O1313666   5.086   0.025   6.046 -0.1037 -0.2625  0.4007
  128OSM    O1413667   4.998   0.246   5.959 -0.1298  0.1574  0.2553
  128OSM    O1113668   4.959   0.190   6.199 -0.5509  0.1807 -0.1840
  128OSM    O1213669   4.847   0.069   6.011  0.5739  0.4051 -0.1061
  128OSM    C1S13670   4.910   0.104   6.299  0.1407  0.8241 -0.1855
  128OSM    H1S13671   4.971   0.012   6.300 -0.2581  0.5638  0.8103
  128OSM    H1T13672   4.806   0.073   6.274  0.6751  0.2089 -1.7214
  128OSM     NF13673   4.924   0.078   6.548  0.6236  0.3827  0.2607
  128OSM    HNF13674   4.836   0.064   6.594  1.1085  1.7605  1.6417
  128OSM    C2S13675   4.930   0.173   6.439 -0.6097  1.3042  0.1358
  128OSM    H2S13676   5.028   0.225   6.445 -0.0448  0.3232 -0.4740
  128OSM    C3S13677   4.821   0.277   6.456 -0.5274  0.6966 -0.5573
  128OSM    H3S13678   4.732   0.225   6.416  0.5819 -2.0540  0.4229
  128OSM     O313679   4.829   0.390   6.371  0.4257  0.4941 -0.2649
  128OSM    HO313680   4.895   0.351   6.312  1.2267  0.1326  0.8567
  128OSM    C4S13681   4.794   0.321   6.599  0.4784 -1.0660 -1.3567
  128OSM    H4S13682   4.699   0.284   6.642  0.5616  0.8861  0.5958
  128OSM    C5S13683   4.870   0.418   6.671 -0.5273 -0.0016  0.2631
  128OSM    H5S13684   4.959   0.462   6.624 -0.7826 -0.8313 -1.0351
  128OSM    C6S13685   4.820   0.465   6.808 -0.0070  0.0618 -0.8972
  128OSM    H6S13686   4.710   0.480   6.801 -0.3606 -0.8762  2.0749
  128OSM    H6T13687   4.869   0.561   6.834 -1.0899  0.5497 -0.6556
  128OSM    C7S13688   4.863   0.366   6.907 -0.1090  0.3027 -0.6285
  128OSM    H7S13689   4.973   0.351   6.904 -0.1189  0.4094 -3.1490
  128OSM    H7T13690   4.816   0.266   6.890 -0.1514  0.0726  0.8245
  128OSM    C8S13691   4.828   0.406   7.049 -0.3525  0.0246  0.2900
  128OSM    H8S13692   4.726   0.447   7.061 -0.7227 -1.3769  2.3459
  128OSM    H8T13693   4.897   0.490   7.076  0.3205 -0.7246  0.9309
  128OSM    C9S13694   4.861   0.304   7.156  0.6423 -0.1006  0.3045
  128OSM    H9S13695   4.965   0.267   7.145  0.1058 -1.4791 -0.2202
  128OSM    H9T13696   4.804   0.214   7.125 -2.2000  1.3178  1.2508
  128OSM   C10S13697   4.838   0.347   7.300  0.3447 -1.2153 -0.2197
  128OSM   H10S13698   4.730   0.358   7.321  0.5379 -1.1633  0.7585
  128OSM   H10T13699   4.905   0.434   7.321  0.7235 -1.8801  1.3365
  128OSM   C11S13700   4.882   0.243   7.407  0.3109 -0.0533  0.0080
  128OSM   H11S13701   4.992   0.237   7.390  0.7416 -0.6289  2.6604
  128OSM   H11T13702   4.832   0.145   7.389 -1.5359  0.2926  2.9229
  128OSM   C12S13703   4.853   0.301   7.544  1.3306  0.5910  0.6560
  128OSM   H12S13704   4.745   0.327   7.540  0.9062 -1.1538  0.5995
  128OSM   H12T13705   4.907   0.395   7.567  0.5594  1.1480  0.2211
  128OSM   C13S13706   4.872   0.194   7.651 -0.5106 -0.1140  1.0336
  128OSM   H13S13707   4.978   0.163   7.659 -0.4236  0.4526  2.2437
  128OSM   H13T13708   4.816   0.105   7.617 -2.3505  1.1557  0.6322
  128OSM   C14S13709   4.840   0.242   7.798  0.6588  0.4626  0.0684
  128OSM   H14S13710   4.729   0.251   7.802  0.3689 -2.3390 -0.6195
  128OSM   H14T13711   4.890   0.340   7.807  1.7132  0.0184 -0.8637
  128OSM   C15S13712   4.886   0.140   7.909 -0.2153  0.7082  0.3308
  128OSM   H15S13713   4.995   0.121   7.907 -0.2524  0.4376  0.6876
  128OSM   H15T13714   4.833   0.043   7.896  1.5172 -0.1397 -0.5158
  128OSM   C16S13715   4.850   0.195   8.051 -0.9823  0.4594  0.0967
  128OSM   H16S13716   4.873   0.304   8.055 -1.7402  0.6338 -0.0705
  128OSM   H16T13717   4.932   0.155   8.114 -2.6361 -0.7097  1.5433
  128OSM   C17S13718   4.710   0.168   8.110  0.4268  0.3512 -0.6475
  128OSM   H17S13719   4.633   0.198   8.036 -0.4173 -1.4225 -0.5201
  128OSM   H17T13720   4.697   0.241   8.193  0.5216 -1.3608  0.9118
  128OSM   C18S13721   4.687   0.026   8.175  1.2016 -0.0938 -0.0051
  128OSM   H18S13722   4.757   0.009   8.259  1.8432 -1.8357 -0.8572
  128OSM   H18T13723   4.721  -0.050   8.101  2.0373 -0.7084  1.0111
  128OSM   H18U13724   4.579   0.012   8.196  1.1475  3.3489  2.4486
  128OSM    C1F13725   5.016  -0.012   6.573 -0.6112  0.2703  0.6098
  128OSM     OF13726   5.113  -0.015   6.502  0.1647 -0.2313  0.1365
  128OSM    C2F13727   5.004  -0.104   6.686  0.7797  0.2761 -0.1631
  128OSM    H2F13728   5.090  -0.174   6.673 -0.5817 -1.4907  0.1127
  128OSM    H2G13729   4.910  -0.163   6.690  1.2184 -0.5924 -1.9900
  128OSM    C3F13730   5.027  -0.013   6.816  0.1182 -0.4817 -0.3420
  128OSM    H3F13731   4.933   0.046   6.825  0.8420  0.4799  1.0577
  128OSM    H3G13732   5.104   0.064   6.797  0.6057  0.1242  3.6950
  128OSM    C4F13733   5.078  -0.098   6.928  0.6321 -0.5109 -0.0468
  128OSM    H4F13734   5.185  -0.119   6.904  0.6012 -0.9392  0.2066
  128OSM    H4G13735   5.035  -0.199   6.941 -0.0739 -0.6253 -2.9870
  128OSM    C5F13736   5.065  -0.026   7.058 -0.0900 -0.1495 -0.1054
  128OSM    H5F13737   4.962   0.009   7.079  0.7472  1.2346  1.8467
  128OSM    H5G13738   5.119   0.070   7.044 -2.3304  0.9740 -1.4625
  128OSM    C6F13739   5.115  -0.097   7.187 -0.3935  0.3879  0.4384
  128OSM    H6F13740   5.215  -0.144   7.170 -1.2392 -1.8903  1.5394
  128OSM    H6G13741   5.052  -0.188   7.196  0.1771 -0.0731 -0.2318
  128OSM    C7F13742   5.124  -0.017   7.317  0.2648  0.4227  0.3973
  128OSM    H7F13743   5.032  -0.012   7.379 -1.3280 -0.3379 -1.8508
  128OSM    H7G13744   5.174   0.080   7.298  1.3894 -0.4738 -1.3826
  128OSM    C8F13745   5.225  -0.100   7.406 -0.2881  0.6539 -0.2927
  128OSM    H8F13746   5.276  -0.031   7.476 -1.7479 -0.0093  1.4538
  128OSM    H8G13747   5.308  -0.156   7.357 -0.3425  0.7341 -0.4767
  128OSM    C9F13748   5.152  -0.204   7.490  0.0956 -0.5254 -0.0668
  128OSM    H9F13749   5.122  -0.295   7.435  0.6241 -1.9407  1.9203
  128OSM   C10F13750   5.107  -0.197   7.612 -0.0714 -0.0039 -1.0188
  128OSM   H10F13751   5.060  -0.287   7.654  1.7990 -1.4168 -1.8831
  128OSM   C11F13752   5.123  -0.083   7.707 -0.4773 -0.0546  0.0784
  128OSM   H11F13753   5.032  -0.032   7.745  0.0483  0.6138  0.4482
  128OSM   H11G13754   5.184   0.002   7.671  0.1521 -0.3033  0.5467
  128OSM   C12F13755   5.202  -0.127   7.837 -0.1844 -0.0066 -0.2381
  128OSM   H12F13756   5.249  -0.044   7.895  0.3908  0.0349 -0.7570
  128OSM   H12G13757   5.300  -0.170   7.805 -0.6058 -2.5127  1.6364
  128OSM   C13F13758   5.138  -0.231   7.923  0.2144 -0.4176  0.2777
  128OSM   H13F13759   5.127  -0.318   7.855  1.5553 -0.1825 -0.2507
  128OSM   H13G13760   5.039  -0.188   7.951  0.6913 -0.1235  1.5445
  128OSM   C14F13761   5.213  -0.261   8.054 -0.4799  0.4230  0.7233
  128OSM   H14F13762   5.322  -0.282   8.041 -0.9784 -1.0766 -1.2466
  128OSM   H14G13763   5.181  -0.355   8.103  1.0167 -0.4182  0.1368
  128OSM   C15F13764   5.195  -0.143   8.163  0.0548  0.4696  0.5462
  128OSM   H15F13765   5.115  -0.072   8.134 -1.5402 -0.8221  1.6774
  128OSM   H15G13766   5.290  -0.086   8.165  0.0326  0.4849  2.3629
  128OSM   C16F13767   5.165  -0.202   8.304 -0.6597 -0.4844  0.5374
  128OSM   H16F13768   5.200  -0.121   8.371 -3.8919  2.6157 -1.2722
  128OSM   H16G13769   5.226  -0.293   8.321  0.8310  0.0890 -1.5341
  128OSM   C17F13770   5.020  -0.225   8.332 -0.4486  0.6310 -0.1320
  128OSM   H17F13771   4.965  -0.295   8.266  0.1082  0.7785 -0.7528
  128OSM   H17G13772   4.967  -0.127   8.324  0.5196  1.4919  2.9960
  128OSM   C18F13773   5.002  -0.265   8.480 -0.0186 -0.0845 -0.0617
  128OSM   H18F13774   4.898  -0.240   8.509  0.0909  1.7404 -1.1962
  128OSM   H18G13775   5.057  -0.200   8.551  0.1603  0.4050 -0.6471
  128OSM   H18H13776   5.027  -0.372   8.500  1.3132  0.1757 -0.3105
  129OSM      N13777   3.033   3.053   5.880  0.0502  0.3053  0.0551
  129OSM    C1513778   3.095   3.143   5.778  0.2382 -0.4012  0.4680
  129OSM   H15A13779   3.037   3.147   5.687  0.3012  0.3523  0.4610
  129OSM   H15B13780   3.197   3.113   5.761  0.7395  0.1653  2.3166
  129OSM   H15C13781   3.104   3.245   5.811 -2.1739 -0.5903  1.8418
  129OSM    C1413782   2.886   3.089   5.889 -0.1576 -0.3099  0.2770
  129OSM   H14A13783   2.858   3.190   5.915 -1.3988 -1.0386  1.8441
  129OSM   H14B13784   2.833   3.035   5.966 -3.7248 -1.2691 -2.7326
  129OSM   H14C13785   2.834   3.065   5.798 -1.2625  1.4365  0.4344
  129OSM    C1313786   3.044   2.912   5.833  0.2004  0.2062  0.3595
  129OSM   H13A13787   2.978   2.894   5.749  1.3802  0.4487 -0.6264
  129OSM   H13B13788   3.041   2.841   5.914 -0.2809  0.8559  0.9208
  129OSM   H13C13789   3.145   2.912   5.793 -0.2634 -0.3927 -0.8486
  129OSM    C1213790   3.102   3.080   6.013 -0.5826  0.1480 -0.1681
  129OSM   H12A13791   3.091   3.184   6.041  1.0153  0.5858 -1.0510
  129OSM   H12B13792   3.208   3.060   6.002 -0.9350 -1.5579 -0.6449
  129OSM    C1113793   3.069   2.987   6.132 -0.4982 -0.1324 -0.0051
  129OSM   H11A13794   2.960   2.991   6.151 -0.5597 -0.8196 -0.2033
  129OSM   H11B13795   3.118   3.026   6.223 -0.3434 -1.3220  0.4355
  129OSM      P13796   3.224   2.763   6.166  0.0501 -0.5572 -0.1373
  129OSM    O1313797   3.228   2.622   6.125 -0.1398  0.3160  0.2137
  129OSM    O1413798   3.352   2.841   6.182 -0.3449 -0.4516 -0.4356
  129OSM    O1113799   3.164   2.757   6.313  0.2239 -0.0024 -0.0672
  129OSM    O1213800   3.112   2.850   6.101 -0.4966  0.0684 -0.1223
  129OSM    C1S13801   3.092   2.641   6.370  0.8212  0.6823 -0.5379
  129OSM    H1S13802   3.144   2.548   6.337  0.6712  1.2719 -2.4878
  129OSM    H1T13803   2.989   2.626   6.332  1.4517 -1.4810 -1.4672
  129OSM     NF13804   3.027   2.518   6.580  0.1972  0.3894 -0.3386
  129OSM    HNF13805   2.930   2.499   6.594  0.2622 -0.0870 -0.5251
  129OSM    C2S13806   3.067   2.646   6.520  0.2650  0.0733  0.0424
  129OSM    H2S13807   3.166   2.670   6.564  1.0269 -2.8473  0.0782
  129OSM    C3S13808   2.971   2.770   6.546  0.4343  0.0064  0.0500
  129OSM    H3S13809   2.875   2.750   6.494  1.1218 -2.6690 -0.2665
  129OSM     O313810   3.007   2.891   6.478 -0.4643 -0.3385 -0.0743
  129OSM    HO313811   3.081   2.873   6.420  0.7637  2.1393  0.6323
  129OSM    C4S13812   2.953   2.798   6.689 -0.4630 -0.1974  0.3230
  129OSM    H4S13813   3.045   2.838   6.736  0.3930 -3.8747  1.9273
  129OSM    C5S13814   2.841   2.789   6.768  0.4741  0.0185 -0.1609
  129OSM    H5S13815   2.749   2.746   6.725  2.1315 -1.2301 -2.5763
  129OSM    C6S13816   2.833   2.831   6.906 -0.3234 -0.7560 -0.4616
  129OSM    H6S13817   2.724   2.843   6.924 -0.2809 -1.2105  0.1235
  129OSM    H6T13818   2.875   2.933   6.918 -2.4488  0.4433 -2.6493
  129OSM    C7S13819   2.891   2.728   7.003 -0.2204 -0.2430  0.1218
  129OSM    H7S13820   3.001   2.737   7.005 -0.3628  1.6324  0.0603
  129OSM    H7T13821   2.863   2.623   6.979  0.8207 -0.5828  0.3997
  129OSM    C8S13822   2.854   2.760   7.143  0.9125 -0.2332  0.6017
  129OSM    H8S13823   2.751   2.723   7.162  0.0431  1.4066 -0.8286
  129OSM    H8T13824   2.874   2.865   7.172 -1.1037  0.3311  0.0668
  129OSM    C9S13825   2.934   2.677   7.251 -0.2021  0.0248 -0.6714
  129OSM    H9S13826   3.044   2.677   7.232 -0.1984 -2.2108 -0.8436
  129OSM    H9T13827   2.895   2.573   7.256 -4.2606  1.3749 -2.5113
  129OSM   C10S13828   2.921   2.749   7.377 -0.3269 -0.0111  0.0236
  129OSM   H10S13829   2.812   2.751   7.400 -0.2459 -1.4873  0.5820
  129OSM   H10T13830   2.943   2.857   7.368  0.7836 -0.1758  0.6663
  129OSM   C11S13831   3.010   2.697   7.489 -0.1043  0.0609  0.3000
  129OSM   H11S13832   3.110   2.670   7.449 -0.2546 -0.0709  0.0139
  129OSM   H11T13833   2.958   2.604   7.522 -1.3528  0.1416 -1.4122
  129OSM   C12S13834   3.018   2.790   7.609  0.4709 -0.0285  0.2632
  129OSM   H12S13835   2.920   2.835   7.636  0.7170 -0.0394  1.2068
  129OSM   H12T13836   3.090   2.871   7.586  1.5198 -1.3002 -0.9971
  129OSM   C13S13837   3.077   2.726   7.740 -0.1128 -0.2748 -0.3150
  129OSM   H13S13838   3.164   2.661   7.717 -0.2185  0.1555 -1.9986
  129OSM   H13T13839   3.005   2.655   7.787  0.9922 -1.6359 -0.6348
  129OSM   C14S13840   3.123   2.830   7.839  0.3727  0.0128 -0.3273
  129OSM   H14S13841   3.030   2.876   7.878 -1.1632 -0.8306 -2.8309
  129OSM   H14T13842   3.201   2.894   7.793  1.0493 -0.8146 -0.3503
  129OSM   C15S13843   3.188   2.767   7.965  0.6511  0.1313 -0.3506
  129OSM   H15S13844   3.259   2.694   7.921 -0.0733 -0.7979  0.0093
  129OSM   H15T13845   3.110   2.712   8.022 -1.7041  1.8921 -1.7831
  129OSM   C16S13846   3.269   2.867   8.045 -0.0085  0.8772 -1.0730
  129OSM   H16S13847   3.299   2.831   8.146 -1.2718 -0.9851 -1.3372
  129OSM   H16T13848   3.215   2.963   8.059 -0.1391  0.6665 -0.1114
  129OSM   C17S13849   3.408   2.900   7.983  0.2943 -0.1298 -0.6757
  129OSM   H17S13850   3.392   2.940   7.880 -0.5665  1.1651 -0.0553
  129OSM   H17T13851   3.460   2.802   7.986 -3.7695 -2.3777  0.2223
  129OSM   C18S13852   3.499   3.004   8.069  0.8566 -0.2284  0.1686
  129OSM   H18S13853   3.600   3.009   8.024  0.7857 -0.1936  0.0159
  129OSM   H18T13854   3.505   2.972   8.176  1.3983 -0.0250  0.1984
  129OSM   H18U13855   3.451   3.104   8.063  1.1731 -0.1133 -0.5074
  129OSM    C1F13856   3.116   2.420   6.590 -1.2409 -0.8196  0.1645
  129OSM     OF13857   3.236   2.444   6.568  0.1708  0.1950 -0.0225
  129OSM    C2F13858   3.075   2.283   6.637  0.2839 -0.4214  0.4093
  129OSM    H2F13859   3.088   2.217   6.549  0.7234 -0.3552  0.4233
  129OSM    H2G13860   2.966   2.288   6.655  0.0238 -0.5362 -1.1242
  129OSM    C3F13861   3.155   2.233   6.759 -0.0745 -0.6220 -0.4912
  129OSM    H3F13862   3.262   2.259   6.753 -0.6353  3.0560  3.1545
  129OSM    H3G13863   3.139   2.124   6.742  1.6199 -1.2991  1.9958
  129OSM    C4F13864   3.092   2.279   6.888  0.0384  0.8239  0.0842
  129OSM    H4F13865   2.986   2.247   6.879  0.0739 -1.5719  5.7740
  129OSM    H4G13866   3.102   2.389   6.873 -0.2972  0.9193  0.5576
  129OSM    C5F13867   3.159   2.224   7.013 -0.2555  0.3268  0.2998
  129OSM    H5F13868   3.268   2.229   6.992 -0.7531  0.4662 -2.4475
  129OSM    H5G13869   3.137   2.116   7.027  1.5830 -0.0979  0.0328
  129OSM    C6F13870   3.134   2.314   7.140 -0.2950  0.6359 -0.6059
  129OSM    H6F13871   3.028   2.299   7.167 -0.5203  0.1552 -1.7193
  129OSM    H6G13872   3.155   2.423   7.130  0.5399  0.6583  1.1150
  129OSM    C7F13873   3.215   2.255   7.258  0.7999  0.2499  1.3251
  129OSM    H7F13874   3.319   2.271   7.224  0.8092  0.8068  1.6130
  129OSM    H7G13875   3.195   2.146   7.271  0.1506  0.1211 -0.5586
  129OSM    C8F13876   3.216   2.331   7.393  0.2403 -0.3845  0.2681
  129OSM    H8F13877   3.242   2.435   7.363  0.9109 -0.9266 -1.0819
  129OSM    H8G13878   3.297   2.288   7.455 -1.0512 -2.8046  0.3058
  129OSM    C9F13879   3.075   2.323   7.457 -0.5401 -0.9145 -0.7228
  129OSM    H9F13880   2.982   2.342   7.402  0.1238  0.6726 -1.3470
  129OSM   C10F13881   3.069   2.288   7.591 -0.2750 -0.4738  0.2945
  129OSM   H10F13882   2.964   2.289   7.626 -1.1557 -1.8046 -2.1574
  129OSM   C11F13883   3.174   2.267   7.694  0.6111 -0.3314 -0.1546
  129OSM   H11F13884   3.267   2.320   7.663  0.9254  0.1794  1.6211
  129OSM   H11G13885   3.198   2.159   7.709  0.9690 -0.3794 -1.0585
  129OSM   C12F13886   3.131   2.327   7.826 -0.2948  0.5076 -0.4873
  129OSM   H12F13887   3.037   2.279   7.860 -1.4059  1.6424 -1.8904
  129OSM   H12G13888   3.107   2.435   7.819  0.1182  0.5512 -1.2552
  129OSM   C13F13889   3.234   2.305   7.934 -0.1979  0.1113 -0.7662
  129OSM   H13F13890   3.199   2.345   8.031  2.7704  0.8541  0.0459
  129OSM   H13G13891   3.326   2.363   7.915 -0.5449  1.1527  0.6508
  129OSM   C14F13892   3.283   2.157   7.950  0.1600  0.6045 -0.0797
  129OSM   H14F13893   3.335   2.122   7.859  0.2512 -1.0640  0.5886
  129OSM   H14G13894   3.193   2.099   7.979 -2.1370  4.3240  0.5039
  129OSM   C15F13895   3.394   2.144   8.060 -0.5428  0.4793  0.3055
  129OSM   H15F13896   3.488   2.198   8.032  0.5688 -2.1558 -1.1701
  129OSM   H15G13897   3.423   2.037   8.068  0.0937  0.4786 -1.6912
  129OSM   C16F13898   3.355   2.195   8.196 -0.4175 -0.9832  0.4444
  129OSM   H16F13899   3.251   2.167   8.225 -1.9723  2.1007 -1.9327
  129OSM   H16G13900   3.354   2.306   8.191  0.5774 -0.8858  1.9887
  129OSM   C17F13901   3.447   2.170   8.316  0.1241 -0.0552  0.2578
  129OSM   H17F13902   3.554   2.188   8.293  0.6750 -1.6333  1.5339
  129OSM   H17G13903   3.440   2.061   8.336 -2.4521  0.1543  0.7077
  129OSM   C18F13904   3.399   2.255   8.434 -0.1736 -0.3212  0.0519
  129OSM   H18F13905   3.360   2.355   8.408  1.3377  0.2553 -0.0456
  129OSM   H18G13906   3.474   2.265   8.515 -0.2386 -0.0798  0.0799
  129OSM   H18H13907   3.320   2.192   8.480 -0.2534 -1.2345 -1.2797
  130OSM      N13908   3.139   5.934   5.869  0.3082  0.3642  1.0164
  130OSM    C1513909   3.201   6.062   5.838 -0.7816  0.0366 -0.1505
  130OSM   H15A13910   3.217   6.117   5.930  0.6570 -1.4265  0.5093
  130OSM   H15B13911   3.145   6.133   5.779 -2.6076  0.4305  1.9468
  130OSM   H15C13912   3.301   6.053   5.800 -1.4726  2.1842 -2.6337
  130OSM    C1413913   2.993   5.967   5.885  0.5228  0.0384  0.8101
  130OSM   H14A13914   2.976   6.033   5.968 -0.7171 -0.9173  1.3257
  130OSM   H14B13915   2.926   5.883   5.896 -1.2942  1.3197 -0.3507
  130OSM   H14C13916   2.961   6.004   5.789 -0.5179 -1.8738  0.3881
  130OSM    C1313917   3.151   5.841   5.758  0.0834  0.0957 -0.2199
  130OSM   H13A13918   3.102   5.748   5.781  0.2869  0.0674  0.1134
  130OSM   H13B13919   3.254   5.813   5.743  0.4959  1.5380 -0.1730
  130OSM   H13C13920   3.116   5.884   5.666 -1.1641  3.3094  1.6565
  130OSM    C1213921   3.194   5.872   6.000  0.2482  0.3264 -0.3326
  130OSM   H12A13922   3.301   5.860   5.991 -0.0458 -1.1402 -2.2614
  130OSM   H12B13923   3.154   5.772   6.012 -1.8697  1.0396 -1.1832
  130OSM    C1113924   3.153   5.936   6.132  0.5409  0.4475 -0.5861
  130OSM   H11A13925   3.213   5.873   6.201 -0.0167  0.9920  0.4083
  130OSM   H11B13926   3.044   5.934   6.155  0.2545  0.5646 -1.8844
  130OSM      P13927   3.350   6.109   6.171 -0.3395  0.4463 -0.2028
  130OSM    O1313928   3.426   5.989   6.220  0.1443  0.2021  0.4325
  130OSM    O1413929   3.408   6.192   6.060 -0.7595  0.1386  0.0154
  130OSM    O1113930   3.315   6.204   6.294 -0.0068 -0.0095  0.5810
  130OSM    O1213931   3.196   6.076   6.135 -0.8864  0.0873  0.4982
  130OSM    C1S13932   3.252   6.155   6.415 -0.2603 -0.0561  0.2900
  130OSM    H1S13933   3.201   6.057   6.403  0.0846 -0.2543  0.4179
  130OSM    H1T13934   3.187   6.232   6.462  1.2373  1.2910  0.2025
  130OSM     NF13935   3.286   6.108   6.649  0.5578  0.2379  0.2317
  130OSM    HNF13936   3.294   6.181   6.717 -0.0930 -1.4460  2.1761
  130OSM    C2S13937   3.357   6.131   6.527  0.0329  0.2042 -0.6857
  130OSM    H2S13938   3.411   6.040   6.493 -1.0298 -1.2552  1.4417
  130OSM    C3S13939   3.457   6.247   6.542  0.0385 -0.4009  0.0324
  130OSM    H3S13940   3.404   6.345   6.550 -0.7408 -0.9383  1.5160
  130OSM     O313941   3.537   6.257   6.423 -0.1367 -0.4691  0.1291
  130OSM    HO313942   3.472   6.226   6.359  1.5847 -0.0604 -1.8908
  130OSM    C4S13943   3.553   6.241   6.662  0.2808  0.0443  0.5802
  130OSM    H4S13944   3.516   6.296   6.749 -0.3002  0.8550 -0.1640
  130OSM    C5S13945   3.678   6.191   6.659 -0.9690 -0.3377  0.3878
  130OSM    H5S13946   3.720   6.147   6.567 -0.5924 -2.0452  1.3605
  130OSM    C6S13947   3.778   6.181   6.766  0.5426 -0.1331 -0.1824
  130OSM    H6S13948   3.865   6.248   6.752  0.3491  0.0668 -0.4434
  130OSM    H6T13949   3.821   6.079   6.781  2.2230  0.5597 -0.2644
  130OSM    C7S13950   3.736   6.206   6.910  0.2405 -0.2644  0.3546
  130OSM    H7S13951   3.666   6.126   6.943 -0.1122 -0.1566 -0.1267
  130OSM    H7T13952   3.671   6.296   6.909 -1.3706 -1.4034 -1.6268
  130OSM    C8S13953   3.846   6.236   7.005  0.6027  0.2018  0.1805
  130OSM    H8S13954   3.912   6.315   6.962  0.0617  0.9385  0.6877
  130OSM    H8T13955   3.910   6.148   7.029 -0.5723 -0.4632  0.9124
  130OSM    C9S13956   3.787   6.284   7.142 -0.5500  0.4954  0.7822
  130OSM    H9S13957   3.732   6.377   7.118  0.8280  1.0540 -0.3252
  130OSM    H9T13958   3.876   6.306   7.204  0.1129 -2.4292  0.9555
  130OSM   C10S13959   3.702   6.176   7.213  0.3072 -0.1793 -0.0115
  130OSM   H10S13960   3.756   6.080   7.219 -0.2628 -0.6267 -1.7164
  130OSM   H10T13961   3.609   6.172   7.152 -0.2587  0.9835  0.7583
  130OSM   C11S13962   3.663   6.217   7.356  0.5764  0.3736  0.1704
  130OSM   H11S13963   3.567   6.166   7.378  0.8276  0.4628  1.5130
  130OSM   H11T13964   3.639   6.325   7.368  3.8152  1.0524  0.9677
  130OSM   C12S13965   3.762   6.163   7.460  0.0276 -0.6436  0.5027
  130OSM   H12S13966   3.868   6.183   7.435 -0.0212 -0.2927  0.5776
  130OSM   H12T13967   3.763   6.052   7.464 -2.9266 -0.7086  0.9147
  130OSM   C13S13968   3.734   6.205   7.611  0.6397  0.5869 -0.2678
  130OSM   H13S13969   3.631   6.170   7.632  0.5885  0.1589 -1.1974
  130OSM   H13T13970   3.737   6.314   7.629  1.2965  0.8388 -1.8440
  130OSM   C14S13971   3.819   6.126   7.719 -0.0457 -0.5562 -0.0051
  130OSM   H14S13972   3.847   6.194   7.803 -2.0952 -1.9873  1.9223
  130OSM   H14T13973   3.910   6.095   7.663 -0.1657  1.1406 -1.1621
  130OSM   C15S13974   3.737   6.007   7.768 -0.0087  0.1003 -0.8039
  130OSM   H15S13975   3.709   5.943   7.682 -0.5674 -0.0525 -0.5145
  130OSM   H15T13976   3.640   6.038   7.813  0.7590  0.6164  0.5426
  130OSM   C16S13977   3.808   5.923   7.877  0.3274 -0.4456 -0.0528
  130OSM   H16S13978   3.903   5.896   7.826 -0.6651 -2.4302 -0.9267
  130OSM   H16T13979   3.744   5.832   7.873 -1.2001  0.5632  0.8908
  130OSM   C17S13980   3.827   5.961   8.021 -0.6350 -0.2804 -0.1634
  130OSM   H17S13981   3.729   6.006   8.047 -0.0741  1.5175 -1.0754
  130OSM   H17T13982   3.899   6.046   8.022  0.6253 -1.2851 -2.1837
  130OSM   C18S13983   3.852   5.860   8.136 -0.0133 -0.3027  0.5940
  130OSM   H18S13984   3.874   5.906   8.235  2.4483  0.2893 -0.2117
  130OSM   H18T13985   3.943   5.797   8.120  0.3668  0.1017  1.1411
  130OSM   H18U13986   3.759   5.799   8.144  0.5831 -1.2513  0.4172
  130OSM    C1F13987   3.211   6.002   6.670 -0.0868 -0.6881 -0.1764
  130OSM     OF13988   3.200   5.921   6.575 -0.0631 -0.1149 -0.1162
  130OSM    C2F13989   3.141   5.974   6.798 -0.2211 -0.3509 -0.0996
  130OSM    H2F13990   3.185   6.044   6.872  1.0024 -0.7138 -0.4735
  130OSM    H2G13991   3.164   5.872   6.834  0.5239 -0.0460  0.3134
  130OSM    C3F13992   2.986   5.995   6.778  0.8143  0.4086 -0.1124
  130OSM    H3F13993   2.961   5.923   6.697  0.6066 -0.1629  0.4578
  130OSM    H3G13994   2.970   6.100   6.747  1.7994  0.9384  1.1095
  130OSM    C4F13995   2.893   5.958   6.891  0.4998  0.0044 -0.0087
  130OSM    H4F13996   2.928   5.854   6.906  0.3476  0.0354  0.5547
  130OSM    H4G13997   2.784   5.953   6.870  0.4623  1.9266 -0.3780
  130OSM    C5F13998   2.902   6.046   7.019  0.4949 -0.1688  0.2929
  130OSM    H5F13999   2.879   6.152   6.997 -1.5919 -0.9465 -1.4380
  130OSM    H5G14000   2.999   6.030   7.070 -0.9725 -0.0610  3.2063
  130OSM    C6F14001   2.794   6.011   7.117  0.1572 -0.2940 -0.0437
  130OSM    H6F14002   2.783   5.902   7.136 -0.2492 -0.8512 -3.1768
  130OSM    H6G14003   2.691   6.030   7.078 -0.1533 -0.2769  0.7688
  130OSM    C7F14004   2.821   6.079   7.258  0.1453  0.1069 -0.1143
  130OSM    H7F14005   2.724   6.106   7.305  0.3329 -1.3902  1.1973
  130OSM    H7G14006   2.877   6.173   7.240  1.3189 -0.6629 -0.5518
  130OSM    C8F14007   2.865   5.982   7.380  0.1971  0.0187  0.5153
  130OSM    H8F14008   2.963   5.935   7.359 -0.1603 -0.2016 -0.6733
  130OSM    H8G14009   2.798   5.894   7.389  0.6351 -0.4664 -0.9608
  130OSM    C9F14010   2.868   6.048   7.518  0.3345 -0.3143 -0.2772
  130OSM    H9F14011   2.943   6.127   7.532  0.9454 -0.8362 -0.5719
  130OSM   C10F14012   2.823   6.009   7.634 -0.0322  0.1704 -0.1510
  130OSM   H10F14013   2.844   6.071   7.722 -0.4353 -1.2390  0.9599
  130OSM   C11F14014   2.762   5.866   7.654  0.8393 -0.2154  0.0478
  130OSM   H11F14015   2.854   5.804   7.660  2.4594  2.0770 -0.1874
  130OSM   H11G14016   2.700   5.835   7.567  0.7770  1.5371 -0.5670
  130OSM   C12F14017   2.674   5.847   7.777 -0.4404  0.1765 -0.7151
  130OSM   H12F14018   2.625   5.748   7.773 -0.3129  0.0230  1.1041
  130OSM   H12G14019   2.595   5.925   7.777 -0.5397  0.0837  0.6132
  130OSM   C13F14020   2.758   5.863   7.910  0.7225 -0.1974 -0.6135
  130OSM   H13F14021   2.690   5.868   7.998 -0.2900  0.6660 -1.4366
  130OSM   H13G14022   2.811   5.961   7.913 -1.3826  0.9706 -0.7899
  130OSM   C14F14023   2.854   5.743   7.948  0.2349  0.0982  0.0647
  130OSM   H14F14024   2.926   5.778   8.025  0.9826  1.7263 -1.3433
  130OSM   H14G14025   2.912   5.717   7.856  1.4340 -0.9719  1.1085
  130OSM   C15F14026   2.785   5.617   8.001 -0.5513 -0.1440 -0.4717
  130OSM   H15F14027   2.855   5.531   7.994 -0.3010  0.0872 -0.8490
  130OSM   H15G14028   2.697   5.597   7.937 -0.6102  0.2302 -0.5074
  130OSM   C16F14029   2.735   5.636   8.148  0.0381 -0.2723  0.0437
  130OSM   H16F14030   2.674   5.729   8.158  2.3287  1.0520  2.2640
  130OSM   H16G14031   2.831   5.651   8.202  0.1579 -1.4856  0.1828
  130OSM   C17F14032   2.668   5.509   8.205  0.3202  0.7341 -0.2881
  130OSM   H17F14033   2.719   5.425   8.154 -0.1460  0.9289 -1.0913
  130OSM   H17G14034   2.559   5.499   8.184  0.2014 -1.3659  1.2390
  130OSM   C18F14035   2.684   5.510   8.356  0.0173  0.9049 -0.2385
  130OSM   H18F14036   2.605   5.569   8.407 -1.3228 -0.6917 -0.4385
  130OSM   H18G14037   2.791   5.529   8.379  0.7282 -0.5263 -2.1849
  130OSM   H18H14038   2.659   5.407   8.387 -1.2233  0.4107 -2.7252
  131OSM      N14039   4.680   3.271   6.033  0.6870 -0.0290  0.4290
  131OSM    C1514040   4.796   3.281   5.952  0.4710 -0.1221  0.8179
  131OSM   H15A14041   4.877   3.325   6.010  0.2696  1.1148  0.1754
  131OSM   H15B14042   4.796   3.330   5.856  1.0649  0.2041  0.9828
  131OSM   H15C14043   4.834   3.182   5.934 -1.1085 -0.3906 -1.1790
  131OSM    C1414044   4.722   3.197   6.156  0.0694 -0.7021 -0.5356
  131OSM   H14A14045   4.767   3.100   6.141  2.0835  0.1607 -0.2877
  131OSM   H14B14046   4.635   3.188   6.219 -1.5080  1.4819 -2.3415
  131OSM   H14C14047   4.801   3.252   6.204 -1.2407 -0.8504  1.8678
  131OSM    C1314048   4.634   3.416   6.063  0.4082  0.9730 -0.3613
  131OSM   H13A14049   4.575   3.412   6.154 -0.5482 -0.5574 -1.0165
  131OSM   H13B14050   4.571   3.453   5.983 -0.9924 -0.7197 -0.0848
  131OSM   H13C14051   4.723   3.475   6.077 -0.4729  1.9001  1.6104
  131OSM    C1214052   4.570   3.194   5.962  0.7879  0.0313  0.2950
  131OSM   H12A14053   4.602   3.108   5.904 -0.4131  0.0653 -0.4400
  131OSM   H12B14054   4.540   3.268   5.888 -1.6551 -0.4163  0.7905
  131OSM    C1114055   4.434   3.164   6.032 -0.2451 -0.3922 -0.4816
  131OSM   H11A14056   4.445   3.107   6.126 -1.1701  0.0994 -0.0734
  131OSM   H11B14057   4.387   3.091   5.962 -0.4175  0.5308 -1.3472
  131OSM      P14058   4.280   3.341   6.166  0.1582 -0.3769  0.1294
  131OSM    O1314059   4.321   3.476   6.207 -0.4111  0.2668  0.2847
  131OSM    O1414060   4.138   3.314   6.136  0.0661  0.0708 -0.0699
  131OSM    O1114061   4.327   3.249   6.284  0.6982 -0.5548 -0.1585
  131OSM    O1214062   4.362   3.286   6.044 -0.2704 -1.3656 -0.3242
  131OSM    C1S14063   4.403   3.282   6.400 -0.2183  0.1693 -0.0093
  131OSM    H1S14064   4.489   3.347   6.375  0.5089 -1.0183 -0.6228
  131OSM    H1T14065   4.438   3.187   6.446  0.9328 -0.1826 -1.5900
  131OSM     NF14066   4.434   3.373   6.629 -0.0498  0.1266 -0.1750
  131OSM    HNF14067   4.433   3.303   6.700 -1.2821  1.2107  0.8863
  131OSM    C2S14068   4.336   3.359   6.527  0.6601 -0.1233  1.0313
  131OSM    H2S14069   4.305   3.460   6.493 -3.6405 -1.7546 -0.1983
  131OSM    C3S14070   4.200   3.296   6.569  0.8839  0.3645 -1.4099
  131OSM    H3S14071   4.210   3.195   6.614  0.2284  1.1768  0.6324
  131OSM     O314072   4.101   3.287   6.463  0.1456 -0.3803  0.5747
  131OSM    HO314073   4.151   3.324   6.390  0.5300 -0.7593  0.6401
  131OSM    C4S14074   4.151   3.366   6.692  0.1144 -0.5580  0.3138
  131OSM    H4S14075   4.144   3.307   6.785  1.2069 -0.6540  0.3386
  131OSM    C5S14076   4.114   3.499   6.702 -0.0080 -0.2775 -0.2562
  131OSM    H5S14077   4.113   3.554   6.607  0.5348 -1.3120 -0.8639
  131OSM    C6S14078   4.062   3.567   6.824 -0.4047  0.8782  0.2791
  131OSM    H6S14079   3.952   3.580   6.826 -0.7792 -1.8850  0.1573
  131OSM    H6T14080   4.115   3.664   6.826 -1.8217  1.7006 -0.9218
  131OSM    C7S14081   4.116   3.497   6.952  0.3787  0.1824  0.6694
  131OSM    H7S14082   4.125   3.573   7.033  0.2713 -0.0307  0.8796
  131OSM    H7T14083   4.220   3.459   6.946  0.8457  1.6043 -0.4725
  131OSM    C8S14084   4.027   3.376   7.004 -0.2276 -0.2513 -0.2874
  131OSM    H8S14085   4.032   3.292   6.931 -1.2502  1.5728 -2.4988
  131OSM    H8T14086   3.924   3.412   6.985  0.0336  0.3248 -0.6127
  131OSM    C9S14087   4.049   3.324   7.140  0.5849  0.4412 -0.1018
  131OSM    H9S14088   4.147   3.272   7.131 -0.4573 -1.5110 -0.5396
  131OSM    H9T14089   3.980   3.240   7.164 -1.1830  1.6957 -0.6810
  131OSM   C10S14090   4.047   3.430   7.252 -0.2838  0.0223 -0.2196
  131OSM   H10S14091   3.947   3.474   7.232 -0.1153  0.1242 -0.8671
  131OSM   H10T14092   4.126   3.506   7.236 -1.1675  0.7860 -1.0495
  131OSM   C11S14093   4.061   3.380   7.399  0.3564  0.4920  0.1207
  131OSM   H11S14094   4.165   3.340   7.404  0.3771  0.2046 -2.2579
  131OSM   H11T14095   3.986   3.298   7.406  1.2605 -0.2357  1.5199
  131OSM   C12S14096   4.038   3.478   7.516 -0.0174  0.1170 -0.0161
  131OSM   H12S14097   3.931   3.508   7.524  0.4318  2.5804 -2.4179
  131OSM   H12T14098   4.108   3.563   7.510  0.2158 -0.0873 -0.1709
  131OSM   C13S14099   4.065   3.399   7.649 -0.1370  0.1371 -0.4224
  131OSM   H13S14100   4.147   3.327   7.628 -0.2665  0.0865 -0.7542
  131OSM   H13T14101   3.975   3.345   7.687 -0.1777  1.8565  2.0158
  131OSM   C14S14102   4.114   3.493   7.761  0.4751  0.3998 -0.4785
  131OSM   H14S14103   4.031   3.554   7.803  1.1182  1.2975 -0.5010
  131OSM   H14T14104   4.189   3.563   7.717  1.9832 -0.9905 -0.1695
  131OSM   C15S14105   4.161   3.406   7.877  0.1907  0.7334 -0.2741
  131OSM   H15S14106   4.235   3.327   7.852  0.2740  0.3595  1.1134
  131OSM   H15T14107   4.071   3.349   7.909  1.0514  0.9665  2.7532
  131OSM   C16S14108   4.209   3.493   8.001 -0.3712  0.2249  0.7065
  131OSM   H16S14109   4.159   3.592   8.006 -0.2833  0.3342 -0.4077
  131OSM   H16T14110   4.309   3.532   7.971 -0.5235  0.1837  0.1311
  131OSM   C17S14111   4.212   3.414   8.131  0.8972 -0.4383 -0.2140
  131OSM   H17S14112   4.279   3.327   8.113  0.9810 -0.4190  0.0105
  131OSM   H17T14113   4.110   3.372   8.139 -0.0734  2.1403  1.3236
  131OSM   C18S14114   4.266   3.478   8.262 -0.3005  0.4145 -0.1430
  131OSM   H18S14115   4.189   3.553   8.289  0.0394  1.6890 -2.6312
  131OSM   H18T14116   4.366   3.519   8.236 -1.1648  0.7121 -3.0982
  131OSM   H18U14117   4.267   3.397   8.338 -0.9404 -0.7272 -1.3342
  131OSM    C1F14118   4.542   3.449   6.629 -0.0484 -0.7700 -0.3080
  131OSM     OF14119   4.590   3.486   6.525  0.3774  0.4301 -0.2596
  131OSM    C2F14120   4.606   3.478   6.766  0.3506  0.4373  0.2230
  131OSM    H2F14121   4.704   3.530   6.758  0.6461  0.0129  0.9685
  131OSM    H2G14122   4.636   3.386   6.822 -0.1345  2.0616  3.2181
  131OSM    C3F14123   4.502   3.557   6.860  0.2898 -0.0325  0.4731
  131OSM    H3F14124   4.436   3.477   6.901  1.8223 -1.2497  0.6339
  131OSM    H3G14125   4.447   3.635   6.803  0.3016  0.1042  0.6517
  131OSM    C4F14126   4.568   3.619   6.985  0.7708  0.0085 -0.1918
  131OSM    H4F14127   4.516   3.709   7.021  0.8586 -0.4970  1.2229
  131OSM    H4G14128   4.668   3.653   6.948  1.5613 -1.7078  0.2992
  131OSM    C5F14129   4.600   3.524   7.100 -0.4879 -0.7028  0.0305
  131OSM    H5F14130   4.656   3.445   7.046 -1.8010 -2.0262  0.5665
  131OSM    H5G14131   4.510   3.476   7.144 -0.7176  0.3354  0.7243
  131OSM    C6F14132   4.689   3.595   7.203  0.3074  0.3203 -0.6690
  131OSM    H6F14133   4.621   3.648   7.272  0.4603 -0.0845 -0.2020
  131OSM    H6G14134   4.759   3.671   7.163  1.8771  0.2113  1.7396
  131OSM    C7F14135   4.772   3.495   7.293 -0.0870  0.3558  0.2565
  131OSM    H7F14136   4.847   3.455   7.222 -0.7053  0.4028 -0.4343
  131OSM    H7G14137   4.702   3.416   7.328 -0.5270  0.2761 -0.8064
  131OSM    C8F14138   4.847   3.571   7.402 -0.4130 -0.6662 -0.1221
  131OSM    H8F14139   4.783   3.631   7.470 -0.2260 -0.4442 -0.1452
  131OSM    H8G14140   4.912   3.651   7.361 -0.2836 -0.2340  0.9234
  131OSM    C9F14141   4.925   3.467   7.476  0.7933  0.1511  0.8955
  131OSM    H9F14142   5.010   3.426   7.420 -2.1929 -1.3212 -2.7914
  131OSM   C10F14143   4.920   3.444   7.607  0.3211 -0.2986  0.1649
  131OSM   H10F14144   4.980   3.357   7.637 -1.1200 -2.2055 -2.2467
  131OSM   C11F14145   4.831   3.509   7.715 -0.1406 -0.1981 -0.0710
  131OSM   H11F14146   4.750   3.572   7.672 -1.8202 -2.1998  0.0835
  131OSM   H11G14147   4.889   3.595   7.755  0.0268 -1.4242  2.4038
  131OSM   C12F14148   4.782   3.426   7.834 -0.0357  0.4238  0.5581
  131OSM   H12F14149   4.870   3.407   7.899 -0.5510 -2.2992  0.5085
  131OSM   H12G14150   4.744   3.326   7.803  1.8645 -0.1229 -0.0924
  131OSM   C13F14151   4.682   3.483   7.930 -0.1353 -0.1805 -0.4314
  131OSM   H13F14152   4.593   3.526   7.880 -0.8367 -2.5343 -1.2307
  131OSM   H13G14153   4.726   3.568   7.987 -0.7588  0.2780 -0.6349
  131OSM   C14F14154   4.638   3.388   8.034  0.0933 -0.5488  0.1361
  131OSM   H14F14155   4.624   3.294   7.977 -2.3303 -0.1992  0.1086
  131OSM   H14G14156   4.552   3.427   8.093  2.7856  0.3730  3.5819
  131OSM   C15F14157   4.742   3.359   8.145 -0.2064 -0.2256 -0.5951
  131OSM   H15F14158   4.743   3.439   8.222 -1.5210  0.7814 -1.5920
  131OSM   H15G14159   4.842   3.343   8.101 -0.1479  1.5787 -1.1265
  131OSM   C16F14160   4.706   3.228   8.219 -0.0041  0.2835 -0.0032
  131OSM   H16F14161   4.703   3.140   8.151  2.3491 -0.1806  0.4440
  131OSM   H16G14162   4.610   3.244   8.272 -1.2745 -1.8221 -1.5988
  131OSM   C17F14163   4.820   3.198   8.315  0.1110  0.4436  0.1346
  131OSM   H17F14164   4.782   3.144   8.404 -1.1475 -1.5197 -1.5465
  131OSM   H17G14165   4.848   3.293   8.366  1.1217 -1.0269  2.4029
  131OSM   C18F14166   4.938   3.129   8.250  0.3214  0.2341  0.1679
  131OSM   H18F14167   4.903   3.058   8.173 -0.7984 -1.8790  2.5589
  131OSM   H18G14168   4.999   3.078   8.327 -0.2418 -0.0992  0.4008
  131OSM   H18H14169   5.000   3.205   8.197  1.9160 -1.1826 -0.0088
  132OSM      N14170   6.419   0.573   6.338 -0.4919 -0.0257 -0.1964
  132OSM    C1514171   6.534   0.623   6.418 -0.0360 -0.4231 -0.3409
  132OSM   H15A14172   6.555   0.550   6.495 -0.7198 -1.1079 -0.8017
  132OSM   H15B14173   6.501   0.712   6.470  1.4011  0.0814 -0.2967
  132OSM   H15C14174   6.621   0.660   6.366 -0.3749  1.4019  0.3352
  132OSM    C1414175   6.460   0.441   6.282 -0.1533 -0.1951  0.1696
  132OSM   H14A14176   6.551   0.453   6.224  1.4951 -2.2859  2.2273
  132OSM   H14B14177   6.387   0.395   6.217 -1.0980  0.1312  0.9875
  132OSM   H14C14178   6.484   0.365   6.355 -3.1228 -1.6759 -0.3217
  132OSM    C1314179   6.301   0.545   6.426 -0.5700 -0.6621  0.3630
  132OSM   H13A14180   6.231   0.482   6.373 -0.9176  0.2868 -0.3271
  132OSM   H13B14181   6.255   0.641   6.443  1.7413  0.7326 -0.9872
  132OSM   H13C14182   6.330   0.506   6.523  0.5314  0.1091  0.3550
  132OSM    C1214183   6.381   0.674   6.226  0.4384 -0.0186 -0.5020
  132OSM   H12A14184   6.313   0.623   6.159 -0.8648 -1.0863  1.5819
  132OSM   H12B14185   6.468   0.694   6.165 -1.0679  0.8860 -2.4018
  132OSM    C1114186   6.318   0.806   6.276 -0.4144  0.2051 -0.1679
  132OSM   H11A14187   6.309   0.877   6.192  2.4975  3.1313  1.8631
  132OSM   H11B14188   6.387   0.857   6.347  1.2339 -0.1686 -1.4782
  132OSM      P14189   6.069   0.770   6.236 -0.1525  0.5565 -0.4739
  132OSM    O1314190   6.079   0.864   6.126  0.3423 -0.4560 -0.3393
  132OSM    O1414191   6.066   0.627   6.200 -0.1046  0.6668  0.1796
  132OSM    O1114192   5.941   0.814   6.309  0.3339 -0.2476 -0.0204
  132OSM    O1214193   6.186   0.799   6.338 -0.3848  0.0933 -0.1511
  132OSM    C1S14194   5.899   0.755   6.436 -0.2142 -0.2120  0.6676
  132OSM    H1S14195   5.929   0.649   6.442 -0.4617 -0.3112  0.1715
  132OSM    H1T14196   5.789   0.773   6.445 -0.0170  1.7721 -0.5775
  132OSM     NF14197   5.943   0.757   6.680  0.2626  0.4868  0.4340
  132OSM    HNF14198   5.884   0.806   6.744 -0.2818 -1.6846  1.6503
  132OSM    C2S14199   5.957   0.835   6.557  1.1243 -0.1084 -0.1619
  132OSM    H2S14200   6.066   0.852   6.541  0.8134  0.3189 -1.8819
  132OSM    C3S14201   5.896   0.975   6.561  0.1934  0.1365 -0.0805
  132OSM    H3S14202   5.786   0.959   6.562  0.4771 -2.0049 -0.9738
  132OSM     O314203   5.920   1.050   6.444  0.6621  0.0829 -0.1413
  132OSM    HO314204   5.973   0.987   6.393 -1.3016 -1.9936  0.3298
  132OSM    C4S14205   5.932   1.048   6.682  0.3950 -0.1927 -0.2091
  132OSM    H4S14206   5.859   1.038   6.763  1.7041  1.4376  1.2114
  132OSM    C5S14207   6.056   1.097   6.718  0.0166  0.5017  0.2890
  132OSM    H5S14208   6.143   1.095   6.650 -0.4289  2.1124 -0.3637
  132OSM    C6S14209   6.097   1.152   6.847 -0.1964  0.4770  0.1720
  132OSM    H6S14210   6.139   1.254   6.835  3.2024 -0.6233  1.9586
  132OSM    H6T14211   6.179   1.091   6.891  0.0388  0.0870 -0.7813
  132OSM    C7S14212   5.981   1.160   6.940 -0.0956  0.6797 -0.5374
  132OSM    H7S14213   5.954   1.058   6.974  0.4957  1.1266  1.3397
  132OSM    H7T14214   5.890   1.210   6.899 -1.0863  0.6136  1.4763
  132OSM    C8S14215   6.024   1.235   7.066 -0.2466 -0.1223 -0.1124
  132OSM    H8S14216   6.039   1.338   7.028 -1.4174  0.1609  0.1705
  132OSM    H8T14217   6.107   1.182   7.117  0.1646  0.2418 -0.4151
  132OSM    C9S14218   5.900   1.228   7.165  0.2458  0.1369 -0.2533
  132OSM    H9S14219   5.900   1.121   7.194  0.5152  0.1199 -0.3147
  132OSM    H9T14220   5.808   1.240   7.104 -0.9574 -1.7230  1.1218
  132OSM   C10S14221   5.906   1.310   7.296 -0.0481  0.0163  0.3488
  132OSM   H10S14222   5.799   1.313   7.327 -0.7790  3.0641 -2.1628
  132OSM   H10T14223   5.931   1.413   7.262  0.3681 -0.1272  0.2177
  132OSM   C11S14224   5.995   1.247   7.401  0.4767  0.2109 -0.2041
  132OSM   H11S14225   6.095   1.232   7.355  0.0322  0.6496 -1.3409
  132OSM   H11T14226   5.954   1.148   7.428 -0.5119  0.7764  0.3969
  132OSM   C12S14227   6.001   1.333   7.527  1.1541 -0.1475 -0.5174
  132OSM   H12S14228   5.904   1.346   7.579  1.8970  2.0082  0.3889
  132OSM   H12T14229   6.033   1.435   7.498 -0.8043  0.7877  0.5388
  132OSM   C13S14230   6.097   1.268   7.638 -0.5793  0.4591 -0.5201
  132OSM   H13S14231   6.196   1.234   7.600 -0.8506 -0.4265 -0.4436
  132OSM   H13T14232   6.042   1.178   7.671 -3.0874  1.7812 -0.9225
  132OSM   C14S14233   6.120   1.352   7.759 -0.4102  0.3774 -0.2359
  132OSM   H14S14234   6.062   1.446   7.744  0.7489  0.9424 -1.2836
  132OSM   H14T14235   6.225   1.386   7.766 -0.6066  1.1169 -0.8283
  132OSM   C15S14236   6.065   1.296   7.891  0.2024 -0.5882 -0.3408
  132OSM   H15S14237   6.121   1.207   7.926 -1.2755 -0.5519  2.2451
  132OSM   H15T14238   5.960   1.261   7.881  0.3389 -0.5217 -2.3447
  132OSM   C16S14239   6.068   1.387   8.009  0.1574  0.5461 -0.3406
  132OSM   H16S14240   5.999   1.474   8.003  0.6518  0.9178 -0.7382
  132OSM   H16T14241   6.157   1.449   8.032 -1.3327  2.6720 -0.1736
  132OSM   C17S14242   6.040   1.304   8.133  0.3246  0.5078 -0.2358
  132OSM   H17S14243   6.127   1.237   8.148 -0.6258 -0.3936  1.4079
  132OSM   H17T14244   5.947   1.245   8.127  0.5432 -0.1008  1.7410
  132OSM   C18S14245   6.036   1.391   8.259 -0.2132  0.2388 -0.3712
  132OSM   H18S14246   6.102   1.348   8.337  0.1176 -2.0849 -1.8640
  132OSM   H18T14247   5.934   1.398   8.301  0.9554  0.2151  2.5993
  132OSM   H18U14248   6.074   1.492   8.232  0.3422  0.0920 -0.1566
  132OSM    C1F14249   6.026   0.659   6.718  0.4664  0.1780 -0.1375
  132OSM     OF14250   6.099   0.614   6.630  0.8376  0.2482  0.3377
  132OSM    C2F14251   6.046   0.609   6.861 -0.6964 -0.1276 -0.8131
  132OSM    H2F14252   5.950   0.619   6.915 -1.1966 -3.4618 -0.9696
  132OSM    H2G14253   6.119   0.676   6.912 -1.3654  1.6665 -2.1775
  132OSM    C3F14254   6.097   0.460   6.865  0.5404 -0.9587 -0.2928
  132OSM    H3F14255   6.186   0.454   6.798  1.3546  2.1080  0.4157
  132OSM    H3G14256   6.023   0.392   6.820  0.8575 -2.1374  0.9484
  132OSM    C4F14257   6.130   0.408   7.005  0.1242 -0.3682  0.1760
  132OSM    H4F14258   6.237   0.430   7.027 -0.2306 -1.3407  3.0214
  132OSM    H4G14259   6.112   0.299   7.012  1.1002 -0.5268  0.1913
  132OSM    C5F14260   6.055   0.463   7.130 -0.3217 -0.4583  0.0288
  132OSM    H5F14261   5.946   0.447   7.112 -0.3424 -1.1868  0.7988
  132OSM    H5G14262   6.067   0.574   7.135 -1.6511 -0.3745  2.2183
  132OSM    C6F14263   6.097   0.399   7.263 -0.1449  0.0925 -0.2532
  132OSM    H6F14264   6.206   0.412   7.274 -0.3125 -0.2652  2.2299
  132OSM    H6G14265   6.059   0.295   7.271  1.6214 -0.4748  1.0806
  132OSM    C7F14266   6.044   0.481   7.378 -0.7158 -0.6627 -0.3259
  132OSM    H7F14267   5.934   0.493   7.367 -0.6853  2.0866  1.7243
  132OSM    H7G14268   6.095   0.580   7.380 -1.1711 -0.4263 -0.3492
  132OSM    C8F14269   6.082   0.415   7.514  0.7313 -0.2960 -0.8469
  132OSM    H8F14270   6.192   0.398   7.521  1.0153  1.8157  0.2772
  132OSM    H8G14271   6.030   0.317   7.526  0.1348 -0.0341 -1.2842
  132OSM    C9F14272   6.053   0.510   7.625  0.9439  0.3318  0.4535
  132OSM    H9F14273   6.107   0.606   7.621  1.8826 -0.1977  0.1582
  132OSM   C10F14274   5.981   0.484   7.732  0.5159 -0.2641  0.0764
  132OSM   H10F14275   5.969   0.566   7.804 -1.1167  0.2445 -0.7444
  132OSM   C11F14276   5.915   0.358   7.757 -0.6843 -0.2158 -0.4340
  132OSM   H11F14277   5.846   0.346   7.671 -0.5564  1.8824 -0.8720
  132OSM   H11G14278   5.851   0.385   7.844  1.8562  3.0571  0.5032
  132OSM   C12F14279   6.006   0.239   7.798  0.8796  0.0926 -0.2252
  132OSM   H12F14280   6.085   0.226   7.721 -0.0154 -2.5786 -0.7761
  132OSM   H12G14281   5.945   0.149   7.773 -1.9093  2.1776 -1.1732
  132OSM   C13F14282   6.055   0.249   7.941 -0.6182 -1.0066  0.5763
  132OSM   H13F14283   5.984   0.300   8.009  0.3010  2.7619 -1.1601
  132OSM   H13G14284   6.147   0.311   7.938 -3.2852  3.1345 -0.7159
  132OSM   C14F14285   6.089   0.111   7.991 -0.0539  0.4981  0.1518
  132OSM   H14F14286   6.157   0.051   7.927 -2.4409 -3.0673  0.8208
  132OSM   H14G14287   5.994   0.054   7.994 -1.3850  2.5953 -0.5784
  132OSM   C15F14288   6.158   0.107   8.129 -0.2238  0.0820  0.2320
  132OSM   H15F14289   6.247   0.172   8.142 -0.5938  0.0472  3.2653
  132OSM   H15G14290   6.196   0.005   8.151 -2.0077 -1.2148 -2.5003
  132OSM   C16F14291   6.060   0.144   8.233 -0.4451 -0.1559 -0.1224
  132OSM   H16F14292   5.971   0.086   8.203  0.4322 -2.7096  2.0486
  132OSM   H16G14293   6.016   0.245   8.247  1.6374  0.6567  0.9215
  132OSM   C17F14294   6.095   0.082   8.372 -0.8381  0.5872  0.4065
  132OSM   H17F14295   6.188   0.120   8.418 -0.8073  3.8764 -2.2194
  132OSM   H17G14296   6.113  -0.025   8.346  2.2213  0.5018  2.6028
  132OSM   C18F14297   5.984   0.092   8.477  0.0742 -0.4834 -0.1007
  132OSM   H18F14298   6.010   0.063   8.581 -1.9272 -0.6445  0.3671
  132OSM   H18G14299   5.892   0.044   8.439 -1.5754  1.7364  0.9810
  132OSM   H18H14300   5.955   0.196   8.502  1.7245 -0.0031 -0.1501
  133SAPE     N14301   1.152   6.784  10.650 -0.3162  0.0189 -0.0595
  133SAPE   HN114302   1.135   6.823  10.555  1.0416  1.7770  0.3896
  133SAPE   HN214303   1.213   6.699  10.643  1.9268  1.7227 -2.1273
  133SAPE   HN314304   1.061   6.739  10.672 -1.3802  2.8833  1.5153
  133SAPE   C1214305   1.213   6.867  10.761  0.1040 -0.2141  0.9868
  133SAPE  H12A14306   1.131   6.932  10.798 -0.0088  0.0956  0.2096
  133SAPE  H12B14307   1.299   6.924  10.719 -0.5896 -0.4455 -0.8194
  133SAPE   C1114308   1.276   6.778  10.885  0.4194  0.4255  0.0676
  133SAPE  H11A14309   1.241   6.812  10.984  1.2141  0.6075  0.2904
  133SAPE  H11B14310   1.387   6.787  10.879  0.6704  0.1625  3.4246
  133SAPE     P14311   1.291   6.518  10.818  0.1909 -0.1911  0.0684
  133SAPE   O1314312   1.432   6.523  10.861  0.3241 -0.0436 -0.1124
  133SAPE   O1414313   1.207   6.396  10.850 -0.6165  0.0767  0.7805
  133SAPE   O1214314   1.218   6.644  10.869 -0.5677 -0.2585 -0.5018
  133SAPE   O1114315   1.268   6.551  10.671  0.3254  0.6364 -0.0047
  133SAPE    C114316   1.374   6.534  10.568  0.3649 -0.0557 -0.2592
  133SAPE    HA14317   1.476   6.563  10.599  0.3171  0.5537 -0.6739
  133SAPE    HB14318   1.379   6.426  10.539  1.2369 -0.3004  0.7922
  133SAPE    C214319   1.356   6.606  10.427  0.1158  0.1319 -0.4830
  133SAPE    HS14320   1.441   6.573  10.364  0.9170  0.5154  0.3875
  133SAPE   O2114321   1.354   6.752  10.445  0.2662 -0.1047 -0.2090
  133SAPE   C2114322   1.429   6.819  10.366  0.7681 -0.0671  0.7128
  133SAPE   O2214323   1.509   6.773  10.291 -0.8628  0.8203  0.4447
  133SAPE   C2214324   1.426   6.963  10.412  0.0472  0.2290 -0.0817
  133SAPE   H2R14325   1.333   6.987  10.468  0.0032 -0.9708  0.3861
  133SAPE   H2S14326   1.515   6.979  10.477 -0.3754 -1.5179  0.9770
  133SAPE    C314327   1.220   6.557  10.366  0.7652 -0.1495  0.1395
  133SAPE    HX14328   1.135   6.607  10.416 -0.1264 -0.5700 -0.9365
  133SAPE    HY14329   1.209   6.447  10.375 -3.1262  0.0603 -1.1791
  133SAPE   O3114330   1.208   6.599  10.229 -0.1746  0.5538 -0.2850
  133SAPE   C3114331   1.281   6.526  10.145 -0.0340 -0.3064 -0.6251
  133SAPE   O3214332   1.359   6.435  10.170 -0.0333 -0.4923  0.0631
  133SAPE   C3214333   1.249   6.591  10.013 -0.1884  0.4559  0.3033
  133SAPE   H2X14334   1.290   6.694  10.007  2.6465 -0.6812 -0.6796
  133SAPE   H2Y14335   1.138   6.601  10.003 -0.2481  0.0607  0.5641
  133SAPE   C2314336   1.441   7.057  10.294 -0.1598 -0.2208 -0.3519
  133SAPE   H3R14337   1.512   7.026  10.214  1.0689  2.9856 -0.5801
  133SAPE   H3S14338   1.477   7.157  10.329  0.0492 -0.4345  0.0455
  133SAPE   C2414339   1.299   7.094  10.223 -0.0191 -0.1219  0.6601
  133SAPE   H4R14340   1.319   7.179  10.154 -0.3085  1.4704  2.5049
  133SAPE   H4S14341   1.234   7.137  10.301 -0.4972  1.2569 -0.4804
  133SAPE   C2514342   1.223   6.983  10.164  0.2759 -0.8774  0.3793
  133SAPE   H5R14343   1.180   6.914  10.238 -1.3864 -0.5364 -0.2533
  133SAPE   C2614344   1.193   6.954  10.039  1.2813  0.0637 -0.1246
  133SAPE   H6R14345   1.141   6.862  10.009  1.3834  0.2529 -0.8949
  133SAPE   C2714346   1.239   7.025   9.911  0.4281 -0.2383 -0.2187
  133SAPE   H7R14347   1.215   7.133   9.919 -0.0768 -0.2365 -1.5713
  133SAPE   H7S14348   1.185   6.995   9.818  1.2240 -1.9465 -0.1481
  133SAPE   C2814349   1.386   7.006   9.889 -0.1672 -0.0452 -0.0447
  133SAPE   H8R14350   1.448   6.981   9.976 -1.9911 -0.4844  1.1592
  133SAPE   C2914351   1.449   7.034   9.774  0.3252 -0.3503 -0.1515
  133SAPE   H9R14352   1.552   7.002   9.756  0.6866  1.0609 -0.6545
  133SAPE  C21014353   1.378   7.092   9.659 -0.3272 -0.4989 -0.7358
  133SAPE  H10R14354   1.310   7.178   9.681  0.5316  0.4957 -1.8779
  133SAPE  H10S14355   1.307   7.018   9.616  0.0533 -0.9072 -0.6599
  133SAPE  C21114356   1.464   7.132   9.538 -0.3316 -0.2081  0.3353
  133SAPE  H11R14357   1.564   7.088   9.552 -0.3754 -0.8334 -1.3147
  133SAPE  C21214358   1.425   7.192   9.421  0.1427  0.2006  0.4841
  133SAPE  H12R14359   1.504   7.216   9.349  0.8147  1.7526  1.6851
  133SAPE  C21314360   1.280   7.236   9.395 -0.0915  0.7561 -0.3797
  133SAPE  H13R14361   1.237   7.263   9.494 -2.4771 -2.1304 -0.5538
  133SAPE  H13S14362   1.221   7.145   9.371  1.6343 -1.1729  2.3986
  133SAPE  C21414363   1.271   7.333   9.289  0.2869  0.0108  0.0406
  133SAPE  H14R14364   1.257   7.284   9.191  3.2061  1.3389 -1.1018
  133SAPE  C21514365   1.273   7.470   9.294 -0.3534 -0.6273 -0.5013
  133SAPE  H15R14366   1.281   7.524   9.199  4.9416  0.8336  0.6241
  133SAPE  C21614367   1.293   7.546   9.423 -0.0446  0.3728 -0.3139
  133SAPE  H16R14368   1.398   7.581   9.424  0.4630 -1.0870 -0.3169
  133SAPE  H16S14369   1.295   7.488   9.518 -0.0836  0.1861 -0.4246
  133SAPE  C21714370   1.202   7.667   9.434 -0.0334  0.8601  0.0999
  133SAPE  H17R14371   1.100   7.624   9.437 -0.3347  1.5570 -0.0573
  133SAPE  H17S14372   1.210   7.742   9.353 -2.9045 -0.5970 -1.5922
  133SAPE  C21814373   1.223   7.739   9.565  0.4443 -0.3302  0.2055
  133SAPE  H18R14374   1.330   7.769   9.568  1.2370 -2.9531  0.1173
  133SAPE  H18S14375   1.202   7.687   9.661  1.0465 -2.3444 -0.7266
  133SAPE  C21914376   1.131   7.864   9.574 -0.2717 -0.2709 -0.2871
  133SAPE  H19R14377   1.147   7.904   9.472  3.0742 -1.8892 -0.4787
  133SAPE  H19S14378   1.181   7.936   9.642  1.0062 -1.0961 -0.3430
  133SAPE  C22014379   0.991   7.837   9.594  0.3906 -0.0124 -0.1396
  133SAPE  H20R14380   0.958   7.811   9.697  0.0340 -1.1567 -0.5335
  133SAPE  H20S14381   0.957   7.743   9.544 -1.2292 -0.5318  1.8811
  133SAPE  H20T14382   0.935   7.928   9.566  1.6513  1.8221  3.0793
  133SAPE   C3314383   1.286   6.511   9.884 -0.8392  0.2335 -0.3540
  133SAPE   H3X14384   1.222   6.421   9.893 -0.7563  0.2442  0.3433
  133SAPE   H3Y14385   1.393   6.481   9.896 -1.4209 -1.8392 -0.0575
  133SAPE   C3414386   1.268   6.596   9.759  0.5720 -0.0809 -0.2799
  133SAPE   H4X14387   1.333   6.686   9.769 -0.1879  0.4249  0.1395
  133SAPE   H4Y14388   1.161   6.624   9.745  1.1584  0.8088 -3.4375
  133SAPE   C3514389   1.309   6.524   9.633 -0.0787  0.4676  0.7173
  133SAPE   H5X14390   1.266   6.422   9.637  2.6697 -0.7764 -0.2520
  133SAPE   H5Y14391   1.419   6.515   9.618 -0.3946 -1.6020 -0.5722
  133SAPE   C3614392   1.247   6.582   9.507  0.3232  1.1186  0.1653
  133SAPE   H6X14393   1.257   6.692   9.495  0.1778  1.2601  1.3379
  133SAPE   H6Y14394   1.136   6.578   9.519  0.4379  0.3913  1.0299
  133SAPE   C3714395   1.290   6.510   9.377 -0.2902 -0.0498  0.2794
  133SAPE   H7X14396   1.277   6.399   9.374  1.0002 -0.2022 -0.1379
  133SAPE   H7Y14397   1.400   6.527   9.372 -0.3786  1.3379  2.5342
  133SAPE   C3814398   1.221   6.565   9.247 -0.1139  0.3489 -0.5379
  133SAPE   H8X14399   1.253   6.670   9.232  0.6157  0.2992  0.5877
  133SAPE   H8Y14400   1.110   6.565   9.247 -0.1440  0.1616  2.0398
  133SAPE   C3914401   1.245   6.475   9.122 -0.0397 -0.6762 -0.7961
  133SAPE   H9X14402   1.173   6.391   9.109 -0.7269 -0.4350  1.2026
  133SAPE   H9Y14403   1.345   6.428   9.124  0.2699  0.0156  0.2127
  133SAPE  C31014404   1.230   6.559   8.993  0.0953  0.1558  0.0942
  133SAPE  H10X14405   1.270   6.662   9.003  0.2296  0.4129 -2.6940
  133SAPE  H10Y14406   1.121   6.571   8.977 -0.2860  0.0301  2.5034
  133SAPE  C31114407   1.293   6.489   8.878  0.2113 -0.1071  0.5611
  133SAPE  H11X14408   1.263   6.382   8.877 -2.6553  0.6401 -0.4106
  133SAPE  H11Y14409   1.403   6.491   8.892  0.7920 -1.2085 -3.2635
  133SAPE  C31214410   1.257   6.550   8.739 -0.4592 -0.6353  1.0994
  133SAPE  H12X14411   1.245   6.660   8.754 -1.5512 -0.3644 -1.4372
  133SAPE  H12Y14412   1.160   6.512   8.699 -0.8325  1.6093 -0.2373
  133SAPE  C31314413   1.375   6.518   8.650  0.6113  0.5105 -0.4496
  133SAPE  H13X14414   1.356   6.410   8.637 -2.7630  0.8539  0.9456
  133SAPE  H13Y14415   1.471   6.530   8.704 -0.5479 -1.0813  2.0258
  133SAPE  C31414416   1.378   6.569   8.498 -0.0933 -0.0530 -0.3793
  133SAPE  H14X14417   1.432   6.666   8.504 -0.5699  0.0963  2.3122
  133SAPE  H14Y14418   1.275   6.580   8.460  1.1139  0.4648 -3.6353
  133SAPE  C31514419   1.446   6.480   8.395 -0.1514 -0.5320  0.1337
  133SAPE  H15X14420   1.389   6.395   8.353 -1.6749  2.4748 -4.2580
  133SAPE  H15Y14421   1.541   6.442   8.436  0.3902 -0.3408 -0.9188
  133SAPE  C31614422   1.494   6.565   8.270  0.0047 -0.3215 -0.1041
  133SAPE  H16X14423   1.529   6.663   8.311  0.2256 -0.8568  0.9920
  133SAPE  H16Y14424   1.405   6.590   8.208 -1.2454 -0.9008  1.4450
  133SAPE  C31714425   1.601   6.499   8.178 -0.6117  0.0063 -0.1720
  133SAPE  H17X14426   1.615   6.559   8.085  0.0785 -1.2622 -0.8972
  133SAPE  H17Y14427   1.565   6.401   8.140  0.9652  0.1620 -2.1878
  133SAPE  C31814428   1.740   6.481   8.232  0.7072  0.0585 -0.0033
  133SAPE  H18X14429   1.809   6.429   8.162 -0.3722  1.5387 -2.2389
  133SAPE  H18Y14430   1.734   6.432   8.332  1.5110  2.6347  1.3738
  133SAPE  H18Z14431   1.786   6.580   8.252  2.0057 -0.3498 -0.9286
  134SAPE     N14432   4.156   0.026  10.835 -0.1223  0.4471  0.2937
  134SAPE   HN114433   4.060   0.032  10.794  0.3980 -0.8059 -1.1308
  134SAPE   HN214434   4.142   0.080  10.923 -1.0996 -0.1054  0.4918
  134SAPE   HN314435   4.222   0.074  10.770 -0.9780 -1.3766 -2.0144
  134SAPE   C1214436   4.179  -0.116  10.860  0.6370  1.2809 -0.1270
  134SAPE  H12A14437   4.101  -0.168  10.919  3.5487 -0.4777  2.3062
  134SAPE  H12B14438   4.271  -0.123  10.922 -0.5540  1.1154  1.6576
  134SAPE   C1114439   4.198  -0.190  10.720  0.0509 -0.1408 -0.4074
  134SAPE  H11A14440   4.292  -0.157  10.672  0.8541 -0.0852  1.1505
  134SAPE  H11B14441   4.114  -0.168  10.651 -0.5856 -2.0925 -0.2920
  134SAPE     P14442   4.079  -0.422  10.770 -0.0801 -0.4056 -0.2218
  134SAPE   O1314443   4.111  -0.566  10.766 -0.2372  0.1010  0.4957
  134SAPE   O1414444   3.996  -0.380  10.887  0.6901 -0.2169 -0.0252
  134SAPE   O1214445   4.209  -0.332  10.756  0.1268  0.5185  0.4677
  134SAPE   O1114446   3.985  -0.380  10.640  0.9333 -0.3112  0.4154
  134SAPE    C114447   4.025  -0.390  10.505 -0.3851  0.6167  0.0710
  134SAPE    HA14448   4.020  -0.292  10.453 -1.6167 -0.4968 -1.9707
  134SAPE    HB14449   4.133  -0.415  10.495 -0.6762  0.3068 -2.7797
  134SAPE    C214450   3.937  -0.490  10.430 -0.1855  0.0644 -0.5078
  134SAPE    HS14451   3.986  -0.511  10.332 -0.0619  0.0453 -0.4410
  134SAPE   O2114452   3.803  -0.440  10.422  0.2322 -0.3575  0.6947
  134SAPE   C2114453   3.775  -0.393  10.297 -0.5092 -0.0156 -0.0334
  134SAPE   O2214454   3.858  -0.369  10.211  0.1074  0.0502  0.0884
  134SAPE   C2214455   3.625  -0.383  10.291 -0.3753 -0.0517  0.0733
  134SAPE   H2R14456   3.584  -0.482  10.262  1.9260 -1.6978  2.2223
  134SAPE   H2S14457   3.583  -0.357  10.390  0.4283  0.7731  0.2093
  134SAPE    C314458   3.927  -0.623  10.507 -0.6620  0.1139  0.6717
  134SAPE    HX14459   3.839  -0.611  10.574 -0.3694  0.9318  0.9139
  134SAPE    HY14460   4.025  -0.635  10.558  0.5572  2.1990 -1.1108
  134SAPE   O3114461   3.904  -0.731  10.415 -0.3248  0.0482 -0.2322
  134SAPE   C3114462   4.008  -0.772  10.348 -0.6883  0.6517 -0.5706
  134SAPE   O3214463   4.125  -0.741  10.366  0.3702  0.1013 -0.1018
  134SAPE   C3214464   3.959  -0.878  10.241 -0.1690  0.6648 -0.0113
  134SAPE   H2X14465   3.853  -0.850  10.221 -0.5257  0.3570  1.4298
  134SAPE   H2Y14466   3.949  -0.977  10.291 -0.6410  0.0611 -1.2807
  134SAPE   C2314467   3.581  -0.269  10.194  0.1164 -0.1349  0.1117
  134SAPE   H3R14468   3.650  -0.291  10.109  1.1618 -0.1733  0.9655
  134SAPE   H3S14469   3.628  -0.179  10.240 -0.3639 -0.2730  0.8736
  134SAPE   C2414470   3.445  -0.233  10.137 -0.2968 -0.6797  0.3296
  134SAPE   H4R14471   3.451  -0.133  10.089 -0.8799 -0.7525  0.1003
  134SAPE   H4S14472   3.380  -0.228  10.227 -0.9088 -0.1526 -0.1408
  134SAPE   C2514473   3.365  -0.332  10.047 -0.1621 -0.6084  0.1425
  134SAPE   H5R14474   3.334  -0.423  10.101 -1.3459 -0.2624  0.0387
  134SAPE   C2614475   3.350  -0.326   9.916  0.1355 -0.6208 -0.4420
  134SAPE   H6R14476   3.279  -0.395   9.868 -1.2071  0.9568 -0.7884
  134SAPE   C2714477   3.408  -0.219   9.823 -0.2364  0.3116  0.4454
  134SAPE   H7R14478   3.427  -0.120   9.868  0.0690  0.2142  0.5302
  134SAPE   H7S14479   3.331  -0.183   9.751  0.5090  2.2791  0.6184
  134SAPE   C2814480   3.532  -0.266   9.751  0.3659  0.4032 -0.0566
  134SAPE   H8R14481   3.619  -0.263   9.820  1.7972 -0.7816 -1.7701
  134SAPE   C2914482   3.546  -0.292   9.624 -0.3225  0.3567 -0.3446
  134SAPE   H9R14483   3.645  -0.322   9.589 -0.8609 -0.6087 -1.0715
  134SAPE  C21014484   3.450  -0.282   9.509  0.6474  0.1906 -0.3031
  134SAPE  H10R14485   3.352  -0.249   9.550 -0.3097 -0.0813 -2.2811
  134SAPE  H10S14486   3.436  -0.384   9.468 -0.0930 -0.5977  1.8727
  134SAPE  C21114487   3.497  -0.175   9.408 -0.8844  0.7403  0.2262
  134SAPE  H11R14488   3.513  -0.077   9.455  0.5121  1.6055 -2.0135
  134SAPE  C21214489   3.496  -0.184   9.269  0.3708  0.3197  0.8205
  134SAPE  H12R14490   3.519  -0.101   9.200 -0.4369  0.6947  0.9987
  134SAPE  C21314491   3.453  -0.316   9.206 -0.2643 -0.6526  0.4013
  134SAPE  H13R14492   3.373  -0.366   9.265 -2.1758  2.4522  0.5601
  134SAPE  H13S14493   3.546  -0.377   9.210  0.7930  0.8351 -1.0047
  134SAPE  C21414494   3.410  -0.298   9.067 -0.3125 -0.3257 -0.9057
  134SAPE  H14R14495   3.334  -0.219   9.068 -2.4726 -2.3300  3.2828
  134SAPE  C21514496   3.454  -0.356   8.960 -0.0563  0.6464  0.1724
  134SAPE  H15R14497   3.412  -0.331   8.861 -1.5047 -3.7260 -0.4013
  134SAPE  C21614498   3.561  -0.459   8.946 -0.3468  0.1569  0.2066
  134SAPE  H16R14499   3.530  -0.535   8.872 -0.0651 -0.3702  0.6281
  134SAPE  H16S14500   3.590  -0.512   9.039  2.7644  0.5211 -0.4797
  134SAPE  C21714501   3.698  -0.414   8.903  0.0252 -0.1710 -0.2809
  134SAPE  H17R14502   3.720  -0.335   8.978  1.7153 -0.4709 -0.4387
  134SAPE  H17S14503   3.702  -0.371   8.800 -1.9053  1.1994  0.1917
  134SAPE  C21814504   3.814  -0.519   8.922  0.3839  0.2996  0.6271
  134SAPE  H18R14505   3.795  -0.591   8.840  1.0026  0.1350  0.6240
  134SAPE  H18S14506   3.799  -0.555   9.026 -0.8379 -0.2612  0.2613
  134SAPE  C21914507   3.962  -0.466   8.905  0.8378 -0.1917 -0.0904
  134SAPE  H19R14508   3.997  -0.401   8.989 -1.6005 -0.2038  0.9840
  134SAPE  H19S14509   3.963  -0.408   8.811  1.3692 -0.7164 -0.4077
  134SAPE  C22014510   4.059  -0.583   8.893 -0.0360 -0.4525  0.4746
  134SAPE  H20R14511   4.072  -0.643   8.986  0.6284 -0.5803  0.3029
  134SAPE  H20S14512   4.161  -0.554   8.860  0.7106 -0.6363  2.5357
  134SAPE  H20T14513   4.022  -0.664   8.827  0.5990 -1.4893  1.3810
  134SAPE   C3314514   4.032  -0.869  10.100 -0.0461 -0.2311 -0.3566
  134SAPE   H3X14515   4.046  -0.765  10.065 -0.3271  0.0569  0.3622
  134SAPE   H3Y14516   3.966  -0.921  10.028  0.4142  1.0564 -1.7176
  134SAPE   C3414517   4.166  -0.951  10.094 -0.2348 -0.1153 -0.2508
  134SAPE   H4X14518   4.151  -1.054  10.134  0.8485 -0.5866 -1.0106
  134SAPE   H4Y14519   4.232  -0.907  10.172  0.1471  1.3695 -1.3966
  134SAPE   C3514520   4.236  -0.950   9.959  0.2659  0.4147 -0.4147
  134SAPE   H5X14521   4.324  -1.018   9.956 -0.5412 -0.6345 -0.8449
  134SAPE   H5Y14522   4.271  -0.849   9.929 -1.6661  1.5105  0.9179
  134SAPE   C3614523   4.146  -1.001   9.840 -0.5336  0.1338  0.2641
  134SAPE   H6X14524   4.057  -0.934   9.839 -0.2523  0.5277  1.0371
  134SAPE   H6Y14525   4.116  -1.103   9.872 -0.6833  0.0648 -0.0972
  134SAPE   C3714526   4.218  -0.985   9.706 -0.1160 -0.2106 -0.1742
  134SAPE   H7X14527   4.312  -1.045   9.711  1.0460  1.1632 -3.6284
  134SAPE   H7Y14528   4.254  -0.880   9.694 -0.6217  0.3915  3.2551
  134SAPE   C3814529   4.147  -1.033   9.583  0.2711 -0.1603 -0.3544
  134SAPE   H8X14530   4.058  -0.970   9.560  0.6798  1.4451  2.2039
  134SAPE   H8Y14531   4.119  -1.138   9.605  1.5062 -1.1746 -3.3340
  134SAPE   C3914532   4.247  -1.037   9.462 -0.4122  0.0830  0.7386
  134SAPE   H9X14533   4.340  -1.095   9.478  0.5995  1.6568  0.6488
  134SAPE   H9Y14534   4.291  -0.937   9.444  1.0216 -0.5540  0.6370
  134SAPE  C31014535   4.174  -1.082   9.341  0.3410  0.6319 -0.1288
  134SAPE  H10X14536   4.085  -1.015   9.337  0.6466  0.9589 -1.6318
  134SAPE  H10Y14537   4.147  -1.189   9.348 -1.3678  1.0262 -0.4823
  134SAPE  C31114538   4.248  -1.060   9.216 -0.3990  0.2459  0.0717
  134SAPE  H11X14539   4.337  -1.127   9.217 -0.1810  0.5387  3.0711
  134SAPE  H11Y14540   4.276  -0.955   9.194  3.9204 -0.7675  0.3762
  134SAPE  C31214541   4.159  -1.099   9.096 -0.4109 -0.0880 -0.2679
  134SAPE  H12X14542   4.076  -1.026   9.082  1.8432  2.6557  0.2922
  134SAPE  H12Y14543   4.125  -1.203   9.113  0.6624 -0.4156 -0.1060
  134SAPE  C31314544   4.232  -1.106   8.960 -0.0638 -0.5892 -1.3907
  134SAPE  H13X14545   4.299  -1.195   8.953 -1.4509 -1.6691 -1.0615
  134SAPE  H13Y14546   4.293  -1.014   8.949 -3.0347  2.0896  3.2799
  134SAPE  C31414547   4.141  -1.117   8.835  0.4883 -0.0782  0.0265
  134SAPE  H14X14548   4.087  -1.021   8.845  0.7754  0.1582 -0.6792
  134SAPE  H14Y14549   4.064  -1.197   8.848  0.3522  0.1775  0.7952
  134SAPE  C31514550   4.213  -1.152   8.708  0.0028 -0.4289  0.5549
  134SAPE  H15X14551   4.144  -1.173   8.623 -0.3486  0.4477  0.6224
  134SAPE  H15Y14552   4.269  -1.245   8.732  1.0794 -0.7185 -2.7309
  134SAPE  C31614553   4.315  -1.043   8.670  0.8747  0.8767 -0.5189
  134SAPE  H16X14554   4.374  -1.085   8.585 -2.5569 -2.8665 -1.2089
  134SAPE  H16Y14555   4.378  -1.021   8.759  1.3261  2.4567 -1.2132
  134SAPE  C31714556   4.251  -0.916   8.626  0.1165  0.3075 -0.3518
  134SAPE  H17X14557   4.153  -0.892   8.672  0.7557  2.3542 -0.0086
  134SAPE  H17Y14558   4.230  -0.917   8.517 -2.0317 -0.0572  0.0496
  134SAPE  C31814559   4.341  -0.795   8.657 -0.6960 -0.3389 -0.1936
  134SAPE  H18X14560   4.296  -0.700   8.621  1.0676  0.8064  0.5613
  134SAPE  H18Y14561   4.435  -0.814   8.601  0.2882 -0.0068  1.3254
  134SAPE  H18Z14562   4.369  -0.789   8.764  0.1070 -0.9702 -0.3659
  135SAPE     N14563   2.936   4.654  10.926  0.4437 -0.1386 -0.3975
  135SAPE   HN114564   2.850   4.611  10.967 -0.0313  0.5170 -0.6818
  135SAPE   HN214565   2.972   4.713  11.004  2.7540 -0.8580 -0.9023
  135SAPE   HN314566   2.911   4.723  10.852  4.4049  0.6703 -1.0608
  135SAPE   C1214567   3.040   4.556  10.902  0.1318 -0.4418 -0.2381
  135SAPE  H12A14568   3.041   4.478  10.982 -0.2781 -0.7665 -0.5510
  135SAPE  H12B14569   3.142   4.601  10.910 -0.2992  1.4096 -4.3994
  135SAPE   C1114570   3.022   4.496  10.767 -0.4006 -0.4507 -0.0491
  135SAPE  H11A14571   2.935   4.427  10.773 -0.5923 -0.0287  2.1578
  135SAPE  H11B14572   3.109   4.430  10.745  0.5359  0.5695  0.5113
  135SAPE     P14573   3.112   4.626  10.566 -0.1435 -0.3962  0.0243
  135SAPE   O1314574   3.048   4.698  10.454 -0.0301 -0.2527 -0.6269
  135SAPE   O1414575   3.224   4.692  10.643  0.2258  0.2561 -0.2634
  135SAPE   O1214576   2.999   4.596  10.669 -0.1346 -0.6519  0.0503
  135SAPE   O1114577   3.160   4.487  10.505 -0.2855 -0.1255 -0.0628
  135SAPE    C114578   3.078   4.403  10.421  0.3739 -0.0727 -0.2601
  135SAPE    HA14579   3.032   4.319  10.477  0.9190 -0.4671 -0.3966
  135SAPE    HB14580   2.995   4.459  10.372 -0.1827  0.3409  1.1495
  135SAPE    C214581   3.170   4.335  10.312 -0.4249 -0.2086 -0.1185
  135SAPE    HS14582   3.109   4.252  10.269 -1.8676  0.8503 -0.1430
  135SAPE   O2114583   3.289   4.280  10.377  0.3748  0.1116  0.0857
  135SAPE   C2114584   3.265   4.185  10.462  0.3809 -0.3338  0.4219
  135SAPE   O2214585   3.163   4.123  10.478 -0.4264  0.2444  0.1907
  135SAPE   C2214586   3.403   4.168  10.524  0.3256 -0.4685  1.0141
  135SAPE   H2R14587   3.482   4.214  10.461 -1.8639 -0.3780 -1.7076
  135SAPE   H2S14588   3.407   4.220  10.623  0.6715  0.8389  0.3186
  135SAPE    C314589   3.200   4.423  10.199  0.1919 -0.0140  0.0204
  135SAPE    HX14590   3.269   4.371  10.130  0.0201  0.5026 -0.5384
  135SAPE    HY14591   3.253   4.511  10.242  1.0616 -0.6923  0.3623
  135SAPE   O3114592   3.073   4.444  10.127  0.0850 -0.3302 -0.3077
  135SAPE   C3114593   3.036   4.562  10.078 -0.2043 -0.1265  0.3829
  135SAPE   O3214594   3.102   4.663  10.087  0.3907 -0.8523 -0.5161
  135SAPE   C3214595   2.891   4.559  10.021 -0.2128 -0.3287 -0.9284
  135SAPE   H2X14596   2.855   4.663  10.005  0.0390 -0.1430 -0.2991
  135SAPE   H2Y14597   2.817   4.513  10.090  1.2442 -0.4764  0.5538
  135SAPE   C2314598   3.443   4.021  10.559  0.3179  0.2643 -0.1853
  135SAPE   H3R14599   3.377   3.982  10.639  0.6955 -0.4261 -0.2071
  135SAPE   H3S14600   3.546   4.012  10.600 -0.4505 -2.6987  1.2413
  135SAPE   C2414601   3.439   3.921  10.445  0.0626  0.9076  0.3995
  135SAPE   H4R14602   3.332   3.915  10.416  0.4898 -3.1941 -0.6857
  135SAPE   H4S14603   3.448   3.814  10.474 -0.0059  0.6833 -0.4003
  135SAPE   C2514604   3.535   3.968  10.336  0.4348  0.3395  0.5062
  135SAPE   H5R14605   3.640   3.975  10.367  0.5581 -1.5191  0.5619
  135SAPE   C2614606   3.492   3.993  10.208 -0.3870 -0.0286 -0.4282
  135SAPE   H6R14607   3.568   4.014  10.131  1.9238 -0.2957  1.7034
  135SAPE   C2714608   3.356   3.971  10.158  0.8044 -0.3156 -0.0621
  135SAPE   H7R14609   3.301   4.067  10.166  0.1382 -0.6233 -0.8578
  135SAPE   H7S14610   3.293   3.910  10.225 -0.1547 -1.7271 -2.1822
  135SAPE   C2814611   3.340   3.921  10.017 -0.2384 -0.0400  0.9430
  135SAPE   H8R14612   3.338   3.811  10.012  0.3800 -0.0226  0.2205
  135SAPE   C2914613   3.340   3.993   9.911  0.2045 -0.6722  0.2353
  135SAPE   H9R14614   3.324   3.944   9.814  1.0936  0.0674 -0.2960
  135SAPE  C21014615   3.351   4.141   9.890  0.8305 -0.1112 -0.4995
  135SAPE  H10R14616   3.436   4.163   9.822  2.3981  0.7456  1.6820
  135SAPE  H10S14617   3.391   4.189   9.981  1.5082  1.0336 -1.3908
  135SAPE  C21114618   3.222   4.201   9.836 -0.5191  0.3277 -0.4485
  135SAPE  H11R14619   3.168   4.268   9.905 -1.0354  1.4034 -1.8921
  135SAPE  C21214620   3.176   4.191   9.715  0.2281  1.0368  0.2610
  135SAPE  H12R14621   3.073   4.223   9.695 -0.1297 -1.1797 -1.7572
  135SAPE  C21314622   3.230   4.119   9.592 -0.7686 -0.4098  0.1795
  135SAPE  H13R14623   3.333   4.083   9.613 -1.1875 -1.6215  0.2114
  135SAPE  H13S14624   3.252   4.192   9.511  0.8921 -0.9806  0.0968
  135SAPE  C21414625   3.147   3.998   9.543  0.2044 -0.2083 -0.2558
  135SAPE  H14R14626   3.071   3.954   9.610  0.5131  0.3182  0.4443
  135SAPE  C21514627   3.174   3.930   9.436 -0.2836 -0.0501  0.4663
  135SAPE  H15R14628   3.123   3.835   9.416 -0.4886  0.4194 -1.3734
  135SAPE  C21614629   3.281   3.954   9.336  0.2366 -0.2993 -0.0815
  135SAPE  H16R14630   3.344   4.040   9.368  0.6825 -0.1937 -1.2113
  135SAPE  H16S14631   3.233   3.965   9.236 -2.2769  2.2804  1.3587
  135SAPE  C21714632   3.390   3.849   9.326 -0.1078 -0.8404 -0.6808
  135SAPE  H17R14633   3.435   3.845   9.427  0.4570  1.8825 -0.7940
  135SAPE  H17S14634   3.468   3.890   9.258 -0.8347 -0.6497 -1.4054
  135SAPE  C21814635   3.355   3.704   9.274 -0.6110 -0.1613  0.7704
  135SAPE  H18R14636   3.290   3.708   9.184  0.6711  2.0644 -0.0877
  135SAPE  H18S14637   3.311   3.650   9.361  2.2688  4.0408  5.0546
  135SAPE  C21914638   3.487   3.638   9.232 -0.7530 -0.1130  0.2618
  135SAPE  H19R14639   3.565   3.653   9.309  0.7067 -0.5187 -1.1035
  135SAPE  H19S14640   3.529   3.686   9.141 -1.7026 -0.0363 -0.1442
  135SAPE  C22014641   3.478   3.488   9.206  0.2449 -0.2632  0.2103
  135SAPE  H20R14642   3.402   3.465   9.129  2.5126  2.6040 -3.0288
  135SAPE  H20S14643   3.441   3.451   9.304 -0.4477  0.1965  0.1307
  135SAPE  H20T14644   3.576   3.441   9.186  0.0217 -0.8651  0.5222
  135SAPE   C3314645   2.887   4.482   9.891 -0.1216 -0.0163 -0.0898
  135SAPE   H3X14646   2.778   4.465   9.877  0.1589 -0.5705 -1.7336
  135SAPE   H3Y14647   2.909   4.374   9.905 -2.0074  0.0457  4.3207
  135SAPE   C3414648   2.953   4.545   9.769  0.0598 -0.3167  0.3219
  135SAPE   H4X14649   3.063   4.553   9.780  0.3310 -0.8613 -1.8417
  135SAPE   H4Y14650   2.909   4.647   9.763  3.3945  1.1982  0.3688
  135SAPE   C3514651   2.928   4.472   9.639  0.0738  0.3662 -0.4788
  135SAPE   H5X14652   2.825   4.497   9.607 -0.3536 -1.2272 -0.4042
  135SAPE   H5Y14653   2.912   4.363   9.654 -2.5184  0.4350 -2.5146
  135SAPE   C3614654   3.041   4.489   9.537 -0.0945 -0.0554 -0.1836
  135SAPE   H6X14655   3.139   4.451   9.574 -0.5549 -1.0638  0.0068
  135SAPE   H6Y14656   3.039   4.594   9.499 -1.7614 -0.4757 -1.2648
  135SAPE   C3714657   3.022   4.404   9.416 -0.3635 -0.2920 -0.0696
  135SAPE   H7X14658   2.928   4.428   9.362 -0.3258 -0.3856 -0.1767
  135SAPE   H7Y14659   3.015   4.295   9.439  1.5819 -0.2106  0.9507
  135SAPE   C3814660   3.142   4.408   9.317  0.0232 -0.2032 -0.2308
  135SAPE   H8X14661   3.235   4.392   9.375  0.9763  0.9385 -1.4124
  135SAPE   H8Y14662   3.151   4.505   9.264 -0.2036  0.1415  0.3536
  135SAPE   C3914663   3.121   4.299   9.205  0.2740  0.1404 -0.0820
  135SAPE   H9X14664   3.036   4.345   9.150 -0.0652 -0.4168 -0.0315
  135SAPE   H9Y14665   3.091   4.204   9.254 -0.0238  0.5655  0.5743
  135SAPE  C31014666   3.246   4.291   9.123 -0.0463 -0.6139  0.5421
  135SAPE  H10X14667   3.308   4.220   9.182  0.3409 -1.8652 -1.3365
  135SAPE  H10Y14668   3.295   4.390   9.108 -1.0483 -0.1755  0.0851
  135SAPE  C31114669   3.221   4.241   8.974  0.0219  0.3051 -1.3118
  135SAPE  H11X14670   3.304   4.282   8.912  0.5687  0.9774 -0.1366
  135SAPE  H11Y14671   3.121   4.274   8.938 -0.4987  0.7829  0.5377
  135SAPE  C31214672   3.230   4.091   8.965  0.3875 -0.3363 -0.4404
  135SAPE  H12X14673   3.194   4.051   8.867  0.6343 -0.5979 -0.4272
  135SAPE  H12Y14674   3.167   4.033   9.035  0.8370  1.3613  1.4102
  135SAPE  C31314675   3.365   4.035   8.980  0.0779  0.3418  0.0860
  135SAPE  H13X14676   3.385   4.020   9.088 -2.8430 -0.4263  0.5659
  135SAPE  H13Y14677   3.445   4.092   8.928  1.6032  0.1038  2.1310
  135SAPE  C31414678   3.359   3.894   8.907 -0.2133  0.3594 -0.2122
  135SAPE  H14X14679   3.324   3.916   8.804  2.7510  1.9322 -0.9480
  135SAPE  H14Y14680   3.287   3.826   8.956  0.5186 -1.9233 -2.2034
  135SAPE  C31514681   3.492   3.819   8.897 -0.1140  0.3887  0.7190
  135SAPE  H15X14682   3.543   3.821   8.995  2.8263 -0.2328 -0.7540
  135SAPE  H15Y14683   3.554   3.875   8.824  1.0425  1.3048  2.3640
  135SAPE  C31614684   3.470   3.671   8.863 -0.0487 -0.0863  0.0330
  135SAPE  H16X14685   3.394   3.633   8.935 -0.4011  0.1344 -0.2241
  135SAPE  H16Y14686   3.561   3.613   8.887  0.0597  1.0048  2.4249
  135SAPE  C31714687   3.438   3.649   8.710  0.3574  1.1000  1.1362
  135SAPE  H17X14688   3.525   3.684   8.651  0.3866  1.3775  1.3448
  135SAPE  H17Y14689   3.349   3.708   8.679  0.6944  0.1665 -1.8184
  135SAPE  C31814690   3.403   3.501   8.687  0.2825 -0.4301 -0.0095
  135SAPE  H18X14691   3.313   3.479   8.749  1.4995 -0.3533  1.8271
  135SAPE  H18Y14692   3.476   3.432   8.736 -0.4138 -0.2203  1.3471
  135SAPE  H18Z14693   3.381   3.470   8.583  0.9645 -0.9519 -0.0024
  136SAPE     N14694   6.499   5.633  10.626  0.2012  0.0112 -0.4114
  136SAPE   HN114695   6.556   5.565  10.680 -0.9741 -0.3161  0.4406
  136SAPE   HN214696   6.562   5.680  10.558 -0.3380  2.2052  0.5534
  136SAPE   HN314697   6.460   5.713  10.680  1.7458  0.9451 -0.6549
  136SAPE   C1214698   6.386   5.554  10.565  0.7689  0.4355  0.5265
  136SAPE  H12A14699   6.430   5.456  10.538  0.2314  0.3395 -0.0247
  136SAPE  H12B14700   6.354   5.606  10.473 -1.0039 -0.2315  0.7324
  136SAPE   C1114701   6.262   5.536  10.650  0.3585 -0.3238 -1.2829
  136SAPE  H11A14702   6.191   5.485  10.582 -0.0142  2.4676 -3.0413
  136SAPE  H11B14703   6.216   5.633  10.678 -2.0559 -0.8719 -3.1742
  136SAPE     P14704   6.201   5.379  10.854 -0.0930  0.2102  0.0081
  136SAPE   O1314705   6.277   5.313  10.961 -0.5732  0.5944  0.4201
  136SAPE   O1414706   6.093   5.472  10.905 -0.3111 -0.0239  0.3617
  136SAPE   O1214707   6.301   5.459  10.769  0.1191  0.4640  0.1547
  136SAPE   O1114708   6.134   5.283  10.745  0.3272  0.0582 -0.8840
  136SAPE    C114709   6.188   5.143  10.740 -0.1260 -0.4373  0.6231
  136SAPE    HA14710   6.245   5.111  10.830 -1.9068 -1.8241  1.2980
  136SAPE    HB14711   6.097   5.080  10.733 -1.8510  2.2769 -3.2191
  136SAPE    C214712   6.272   5.120  10.615  0.5006  0.1408 -0.0926
  136SAPE    HS14713   6.372   5.161  10.641 -0.6499  0.4097  4.2306
  136SAPE   O2114714   6.197   5.189  10.505  0.1691 -0.2950 -0.0066
  136SAPE   C2114715   6.260   5.207  10.393 -1.3659  0.5433  0.5049
  136SAPE   O2214716   6.382   5.192  10.385  0.9956 -0.3776  0.0487
  136SAPE   C2214717   6.161   5.214  10.282 -0.7978  0.6868  0.5887
  136SAPE   H2R14718   6.077   5.144  10.301 -0.0597 -0.3199  0.2139
  136SAPE   H2S14719   6.130   5.319  10.263  1.4789  1.4568  1.0044
  136SAPE    C314720   6.293   4.966  10.585 -0.7126  0.9346 -0.3087
  136SAPE    HX14721   6.329   4.921  10.680 -3.1779  2.1102  1.2351
  136SAPE    HY14722   6.376   4.957  10.512 -0.3712  1.0323  0.0611
  136SAPE   O3114723   6.167   4.892  10.560 -0.1350  0.1741  0.0678
  136SAPE   C3114724   6.140   4.873  10.436 -1.2649  0.6664 -0.3640
  136SAPE   O3214725   6.215   4.891  10.342 -0.0336  0.7102 -0.4350
  136SAPE   C3214726   6.000   4.813  10.419  0.2427  0.6242 -0.0565
  136SAPE   H2X14727   5.917   4.887  10.432 -0.4162 -0.1680  0.3023
  136SAPE   H2Y14728   5.975   4.747  10.505 -0.4695  0.3242 -0.4864
  136SAPE   C2314729   6.210   5.164  10.137  0.1676  0.3790 -0.5987
  136SAPE   H3R14730   6.247   5.060  10.139 -1.1172 -0.0802  2.5786
  136SAPE   H3S14731   6.299   5.226  10.113  0.0083  0.2771 -1.4697
  136SAPE   C2414732   6.098   5.200  10.025  0.1052  0.8340  0.1197
  136SAPE   H4R14733   6.145   5.228   9.928  1.8787 -1.1885  0.3729
  136SAPE   H4S14734   6.044   5.295  10.044 -1.3486  0.2202 -0.8921
  136SAPE   C2514735   6.012   5.076  10.006  0.4218  0.2899  0.4654
  136SAPE   H5R14736   5.936   5.058  10.083 -0.4417  0.2674 -0.3669
  136SAPE   C2614737   6.017   4.987   9.910  0.1064 -0.4481 -0.5228
  136SAPE   H6R14738   5.951   4.899   9.919 -1.0871  0.4561 -0.3556
  136SAPE   C2714739   6.125   4.996   9.797 -1.0946  0.3118 -0.7005
  136SAPE   H7R14740   6.224   5.021   9.841 -1.3770  0.9350 -0.3999
  136SAPE   H7S14741   6.113   5.068   9.714  1.2090 -0.1278 -1.4421
  136SAPE   C2814742   6.121   4.856   9.736  0.2159  0.0893 -0.2663
  136SAPE   H8R14743   6.142   4.775   9.806  1.5948  0.3670 -0.3498
  136SAPE   C2914744   6.096   4.811   9.609  0.7340 -0.8883 -0.4640
  136SAPE   H9R14745   6.107   4.704   9.589  2.7044 -0.5604 -1.1762
  136SAPE  C21014746   6.059   4.885   9.482  0.0296  0.7180  0.2345
  136SAPE  H10R14747   5.984   4.964   9.504 -0.1310  0.5934  0.1353
  136SAPE  H10S14748   6.006   4.814   9.414 -0.4973  1.8257 -0.5287
  136SAPE  C21114749   6.177   4.963   9.424  0.5946 -0.1994 -0.6333
  136SAPE  H11R14750   6.232   5.028   9.494  1.8033  1.0003 -2.6384
  136SAPE  C21214751   6.207   4.969   9.291  0.2618  0.0657  1.2806
  136SAPE  H12R14752   6.305   5.011   9.266  1.7503 -3.3908  1.0151
  136SAPE  C21314753   6.126   4.893   9.182 -0.4948  0.1289 -0.2514
  136SAPE  H13R14754   6.127   4.962   9.095  1.0981  0.9530  0.3893
  136SAPE  H13S14755   6.022   4.881   9.219 -1.1999  1.5153 -1.7310
  136SAPE  C21414756   6.190   4.760   9.167  0.1969 -0.1420  0.0539
  136SAPE  H14R14757   6.255   4.732   9.252 -1.0493 -0.4655  0.9166
  136SAPE  C21514758   6.154   4.665   9.080  0.2510  0.4720  1.2929
  136SAPE  H15R14759   6.208   4.570   9.084  0.2789  0.3697 -0.8781
  136SAPE  C21614760   6.040   4.677   8.980  0.8166  0.2079 -0.3588
  136SAPE  H16R14761   6.005   4.782   8.971  1.2744  0.3660 -0.3113
  136SAPE  H16S14762   5.953   4.624   9.025 -0.8061  2.3894 -0.7922
  136SAPE  C21714763   6.074   4.610   8.845 -0.4688 -0.7525  0.0535
  136SAPE  H17R14764   5.982   4.621   8.783 -1.5439  0.3049  1.7916
  136SAPE  H17S14765   6.088   4.502   8.866  0.6063 -0.9736 -1.7555
  136SAPE  C21814766   6.209   4.657   8.777  0.2122  0.3191 -0.6444
  136SAPE  H18R14767   6.288   4.589   8.816 -1.8321 -1.3981  0.5465
  136SAPE  H18S14768   6.234   4.764   8.793 -0.4733  0.4855 -0.6747
  136SAPE  C21914769   6.208   4.640   8.626  0.0656  0.3451 -0.4589
  136SAPE  H19R14770   6.292   4.701   8.585  0.5271  0.2669  0.3563
  136SAPE  H19S14771   6.107   4.670   8.591  0.0448  2.4306  1.2627
  136SAPE  C22014772   6.232   4.497   8.578  0.1938 -0.0314 -0.0606
  136SAPE  H20R14773   6.215   4.493   8.468 -1.6724 -0.5218  0.2229
  136SAPE  H20S14774   6.165   4.426   8.633 -1.2945 -0.8486 -2.7991
  136SAPE  H20T14775   6.328   4.445   8.599  0.5303 -0.5158 -2.6001
  136SAPE   C3314776   5.966   4.740  10.282 -0.7484 -0.5589  1.0895
  136SAPE   H3X14777   6.056   4.675  10.272 -0.3722 -0.0266  0.9886
  136SAPE   H3Y14778   5.964   4.830  10.216 -0.3570 -0.7521  0.8140
  136SAPE   C3414779   5.830   4.687  10.279 -0.0045 -0.3313  0.3109
  136SAPE   H4X14780   5.758   4.755  10.329 -1.3068  0.0147 -1.9578
  136SAPE   H4Y14781   5.826   4.591  10.335  0.5040 -1.3589 -1.3585
  136SAPE   C3514782   5.763   4.664  10.138  0.1561 -0.6944  0.2517
  136SAPE   H5X14783   5.770   4.754  10.073  2.2967  1.4429  3.3482
  136SAPE   H5Y14784   5.654   4.639  10.146 -0.1211  0.3854 -0.1193
  136SAPE   C3614785   5.826   4.552  10.047  0.9877 -0.0729  0.0750
  136SAPE   H6X14786   5.791   4.452  10.078 -2.4199  1.1601  0.4331
  136SAPE   H6Y14787   5.934   4.580  10.044  0.6637  1.1496 -0.5344
  136SAPE   C3714788   5.788   4.562   9.901  0.8235 -1.1921 -0.4558
  136SAPE   H7X14789   5.814   4.666   9.874 -1.8258  0.0693  1.6666
  136SAPE   H7Y14790   5.678   4.559   9.889  0.6102  1.1513  0.8090
  136SAPE   C3814791   5.860   4.462   9.813  0.7020  0.2627 -0.3142
  136SAPE   H8X14792   5.818   4.364   9.843  1.8989 -0.1677 -0.0248
  136SAPE   H8Y14793   5.969   4.474   9.831  0.2841  2.9113  0.8483
  136SAPE   C3914794   5.822   4.495   9.675 -0.3446 -0.0874  0.4573
  136SAPE   H9X14795   5.863   4.597   9.659  0.5744 -0.0108  2.9548
  136SAPE   H9Y14796   5.712   4.494   9.662 -0.0938  0.4293 -1.8442
  136SAPE  C31014797   5.895   4.405   9.574 -0.1309 -0.3035  0.5651
  136SAPE  H10X14798   5.864   4.301   9.594 -0.5798 -0.5213 -1.1327
  136SAPE  H10Y14799   6.005   4.410   9.590 -0.1531 -1.0396  0.9462
  136SAPE  C31114800   5.862   4.438   9.434  0.4423  0.7208  0.1006
  136SAPE  H11X14801   5.901   4.535   9.399 -0.0331  1.0287  0.4161
  136SAPE  H11Y14802   5.754   4.462   9.439  0.5942  1.1323  1.5029
  136SAPE  C31214803   5.884   4.322   9.331  1.1728 -0.4362  0.0086
  136SAPE  H12X14804   5.831   4.231   9.367  0.9417 -0.0102  0.7623
  136SAPE  H12Y14805   5.989   4.284   9.333  1.1507 -0.4405  1.4723
  136SAPE  C31314806   5.841   4.357   9.192  0.1423  0.0946  0.1318
  136SAPE  H13X14807   5.915   4.434   9.161  1.4294 -1.0170  0.3560
  136SAPE  H13Y14808   5.736   4.392   9.196  0.0469 -0.1982  0.2273
  136SAPE  C31414809   5.872   4.249   9.080 -0.7957 -0.3127 -0.6644
  136SAPE  H14X14810   5.812   4.157   9.095  0.4564 -1.1693 -0.8568
  136SAPE  H14Y14811   5.978   4.217   9.088 -0.1801  2.1358  2.4805
  136SAPE  C31514812   5.838   4.315   8.941  0.0576 -0.1548 -0.4878
  136SAPE  H15X14813   5.892   4.410   8.923 -0.4016 -0.4679 -3.8353
  136SAPE  H15Y14814   5.731   4.343   8.948 -0.4908 -2.4237  0.7799
  136SAPE  C31614815   5.858   4.219   8.824  0.4010 -0.1410  0.4943
  136SAPE  H16X14816   5.963   4.190   8.804  0.4691  0.2041  0.3440
  136SAPE  H16Y14817   5.821   4.264   8.729  0.1391 -4.0607 -1.3804
  136SAPE  C31714818   5.771   4.094   8.836  0.5550  0.0060 -0.3262
  136SAPE  H17X14819   5.809   4.024   8.913 -0.9193 -1.3361 -0.7855
  136SAPE  H17Y14820   5.775   4.035   8.742 -1.0102 -0.0647 -0.3665
  136SAPE  C31814821   5.618   4.121   8.862  0.2167 -0.3802 -0.4077
  136SAPE  H18X14822   5.606   4.151   8.968  3.9611  2.2180 -0.6276
  136SAPE  H18Y14823   5.554   4.033   8.838 -3.0512  1.2043  2.1468
  136SAPE  H18Z14824   5.589   4.211   8.804  0.7054  0.7565  1.0844
  137SAPE     N14825   4.208   0.497  11.121 -0.3594 -0.1936 -0.1390
  137SAPE   HN114826   4.159   0.577  11.076 -0.4772 -1.2325 -1.8961
  137SAPE   HN214827   4.159   0.478  11.210  0.9519 -2.9795  0.0476
  137SAPE   HN314828   4.310   0.518  11.132 -0.3176 -0.3305 -0.2557
  137SAPE   C1214829   4.180   0.389  11.016  0.5332 -0.2566  0.3926
  137SAPE  H12A14830   4.208   0.292  11.062  0.2699 -0.8034 -0.5849
  137SAPE  H12B14831   4.242   0.418  10.929  0.3359 -0.3692  0.2162
  137SAPE   C1114832   4.037   0.391  10.968 -0.3380  0.9261  0.0936
  137SAPE  H11A14833   3.978   0.363  11.058 -1.7117  0.5689 -0.9051
  137SAPE  H11B14834   4.022   0.309  10.894 -1.3342  0.3242  0.9447
  137SAPE     P14835   3.886   0.531  10.810  0.6077 -0.0152  0.6961
  137SAPE   O1314836   3.770   0.448  10.861  0.6206 -0.7024  0.1739
  137SAPE   O1414837   3.853   0.677  10.803  0.2617  0.3023 -0.6214
  137SAPE   O1214838   4.010   0.516  10.902 -0.7258 -0.4041 -0.0239
  137SAPE   O1114839   3.943   0.478  10.673  0.4528  0.1111 -0.1611
  137SAPE    C114840   4.063   0.521  10.599 -0.2300  0.4313 -0.3700
  137SAPE    HA14841   4.101   0.617  10.640 -1.2961 -0.1030  1.9111
  137SAPE    HB14842   4.142   0.444  10.603 -1.4826 -0.7535  2.4300
  137SAPE    C214843   4.043   0.552  10.448  0.1692 -0.8553  0.6773
  137SAPE    HS14844   4.001   0.655  10.441  0.7577 -0.6354  0.3222
  137SAPE   O2114845   3.959   0.451  10.393 -0.0944  0.2659  0.0315
  137SAPE   C2114846   3.829   0.473  10.399 -0.0828  0.5532 -0.3172
  137SAPE   O2214847   3.775   0.571  10.447 -0.1743 -0.0164  0.2923
  137SAPE   C2214848   3.751   0.357  10.339  0.4646  0.2542 -0.0946
  137SAPE   H2R14849   3.725   0.288  10.423 -2.3083  3.3406  1.7065
  137SAPE   H2S14850   3.661   0.407  10.298  0.4751  1.1652  0.9650
  137SAPE    C314851   4.188   0.556  10.387  1.0684  0.1754  0.5079
  137SAPE    HX14852   4.246   0.469  10.423  2.6932  0.2738 -1.8064
  137SAPE    HY14853   4.229   0.657  10.412 -2.8437  2.6428 -2.3502
  137SAPE   O3114854   4.186   0.566  10.243  0.0832 -0.2972 -0.1545
  137SAPE   C3114855   4.237   0.467  10.177 -0.2422 -0.6560  0.3567
  137SAPE   O3214856   4.264   0.356  10.221 -0.3063 -0.0971  0.3238
  137SAPE   C3214857   4.272   0.516  10.038 -0.7988  0.2937  0.1901
  137SAPE   H2X14858   4.333   0.605  10.063 -0.2253 -0.4508  1.4419
  137SAPE   H2Y14859   4.178   0.540   9.983 -0.7072  0.5867  0.1585
  137SAPE   C2314860   3.833   0.286  10.225  0.4320  0.2968 -0.3303
  137SAPE   H3R14861   3.753   0.219  10.188 -0.9828  0.5877  2.0796
  137SAPE   H3S14862   3.914   0.219  10.262  0.9131  1.5008  0.8707
  137SAPE   C2414863   3.872   0.378  10.107  0.7877  0.0384 -0.1494
  137SAPE   H4R14864   3.931   0.315  10.037 -1.6918 -0.4900 -1.8110
  137SAPE   H4S14865   3.947   0.449  10.149 -0.5782 -0.1022  2.5985
  137SAPE   C2514866   3.773   0.471  10.055 -0.2633 -0.1416 -0.1849
  137SAPE   H5R14867   3.765   0.574  10.093 -0.3330 -0.5257  0.8500
  137SAPE   C2614868   3.672   0.437   9.977  0.1754 -0.0645  1.0262
  137SAPE   H6R14869   3.593   0.507   9.946 -1.4272 -2.1652  0.2305
  137SAPE   C2714870   3.650   0.296   9.920  0.1087  0.0514  0.4569
  137SAPE   H7R14871   3.612   0.228   9.999 -1.2846 -1.5291 -1.5272
  137SAPE   H7S14872   3.743   0.256   9.873  1.4061 -1.1353  3.8939
  137SAPE   C2814873   3.548   0.306   9.809  1.1757  0.6080  0.4295
  137SAPE   H8R14874   3.447   0.287   9.847  2.2759  0.3607  3.4153
  137SAPE   C2914875   3.557   0.337   9.680 -0.1254 -0.6223  0.0205
  137SAPE   H9R14876   3.466   0.347   9.620 -1.5238 -1.3154  1.9929
  137SAPE  C21014877   3.685   0.370   9.620 -0.0435  0.5165 -0.6080
  137SAPE  H10R14878   3.768   0.320   9.674  0.3275  0.8546 -0.8604
  137SAPE  H10S14879   3.698   0.480   9.629 -0.8185  0.5094  0.7658
  137SAPE  C21114880   3.702   0.339   9.477  0.7325 -0.2911 -0.1446
  137SAPE  H11R14881   3.744   0.237   9.471  1.2882 -0.1527  1.2054
  137SAPE  C21214882   3.681   0.410   9.363 -0.2319 -0.2636 -0.2834
  137SAPE  H12R14883   3.724   0.373   9.269 -2.2300 -2.7231 -0.2986
  137SAPE  C21314884   3.633   0.552   9.356 -0.2794  0.0557 -0.8733
  137SAPE  H13R14885   3.619   0.596   9.457 -0.7345 -1.1783 -0.3860
  137SAPE  H13S14886   3.533   0.554   9.306  0.7024  0.3423 -2.8560
  137SAPE  C21414887   3.714   0.659   9.285  0.1781 -0.3487 -0.4127
  137SAPE  H14R14888   3.779   0.723   9.347  0.1162 -1.3211  0.6637
  137SAPE  C21514889   3.702   0.688   9.148  0.3622  0.6221 -0.2972
  137SAPE  H15R14890   3.754   0.769   9.095 -1.9327  0.7943 -2.4082
  137SAPE  C21614891   3.610   0.613   9.055 -0.0760 -0.1432 -0.4127
  137SAPE  H16R14892   3.520   0.668   9.019 -0.6729 -0.1253  1.0647
  137SAPE  H16S14893   3.558   0.530   9.109 -2.3829  0.8063 -1.1015
  137SAPE  C21714894   3.671   0.559   8.933 -0.3935 -0.0734  0.1545
  137SAPE  H17R14895   3.775   0.531   8.960  0.3432  0.6550 -1.8533
  137SAPE  H17S14896   3.687   0.640   8.859  2.1106  1.0350  1.8238
  137SAPE  C21814897   3.597   0.444   8.871  1.0165 -0.1814  0.2017
  137SAPE  H18R14898   3.510   0.494   8.824  1.3497  1.3501  1.1840
  137SAPE  H18S14899   3.564   0.368   8.944  0.4318 -1.9991 -1.8921
  137SAPE  C21914900   3.677   0.365   8.762  0.0489  0.0428 -0.6547
  137SAPE  H19R14901   3.752   0.300   8.811 -1.3945 -1.3422 -0.2390
  137SAPE  H19S14902   3.732   0.448   8.713  1.5998 -0.9952 -0.7235
  137SAPE  C22014903   3.602   0.284   8.663  0.1433 -0.2903  0.2956
  137SAPE  H20R14904   3.509   0.239   8.705  0.8146 -0.2407  1.8445
  137SAPE  H20S14905   3.660   0.202   8.615  1.1912  1.9981 -2.4835
  137SAPE  H20T14906   3.571   0.351   8.580  0.0993 -1.0332 -0.2952
  137SAPE   C3314907   4.345   0.412   9.952  0.0003  0.1690 -0.5397
  137SAPE   H3X14908   4.428   0.367  10.010 -0.2801 -0.9215 -0.9708
  137SAPE   H3Y14909   4.394   0.456   9.862  1.5706 -3.6105 -1.6072
  137SAPE   C3414910   4.255   0.289   9.911  0.9331 -0.3887  0.5242
  137SAPE   H4X14911   4.160   0.291   9.968  0.9217 -0.4162  0.5043
  137SAPE   H4Y14912   4.310   0.193   9.922 -0.3112 -1.6563 -3.5179
  137SAPE   C3514913   4.215   0.290   9.763  0.7244 -0.3659 -0.4818
  137SAPE   H5X14914   4.136   0.214   9.744  0.4874 -0.7117  1.8027
  137SAPE   H5Y14915   4.302   0.280   9.694  1.0481 -4.6721  0.3542
  137SAPE   C3614916   4.147   0.419   9.718 -0.5851  0.4349 -0.5855
  137SAPE   H6X14917   4.221   0.502   9.723  1.0036 -0.8516 -1.6903
  137SAPE   H6Y14918   4.066   0.446   9.789 -0.9744 -0.0593 -0.8389
  137SAPE   C3714919   4.080   0.410   9.578 -0.4732 -0.2194  0.1166
  137SAPE   H7X14920   3.989   0.474   9.576 -1.0047 -0.9877 -0.1630
  137SAPE   H7Y14921   4.055   0.303   9.564 -2.8015  0.5106 -1.7568
  137SAPE   C3814922   4.174   0.474   9.466  0.7270  0.3016 -0.0819
  137SAPE   H8X14923   4.261   0.406   9.456  0.1258 -1.1345  3.5570
  137SAPE   H8Y14924   4.207   0.568   9.516 -0.8043 -0.2454  2.0591
  137SAPE   C3914925   4.107   0.475   9.332 -0.2666 -0.0253 -0.2447
  137SAPE   H9X14926   4.168   0.526   9.255  0.2881 -1.0338 -0.4902
  137SAPE   H9Y14927   4.012   0.532   9.335  0.2413  0.7800  0.5713
  137SAPE  C31014928   4.070   0.345   9.263 -0.3955  0.0558  0.0571
  137SAPE  H10X14929   3.997   0.292   9.328  0.0197 -2.3799 -1.4009
  137SAPE  H10Y14930   4.161   0.281   9.270  1.2398  2.4535  1.1439
  137SAPE  C31114931   4.022   0.356   9.114 -0.6367  0.0535 -0.0717
  137SAPE  H11X14932   4.015   0.460   9.073 -0.6546  0.0224 -0.1483
  137SAPE  H11Y14933   3.921   0.311   9.105 -1.1146  1.5006 -2.5919
  137SAPE  C31214934   4.105   0.273   9.023  0.0493  0.2693  0.3536
  137SAPE  H12X14935   4.103   0.163   9.034  0.2233 -0.0528 -2.5269
  137SAPE  H12Y14936   4.214   0.293   9.037  0.8871 -1.3703 -3.1640
  137SAPE  C31314937   4.098   0.303   8.877 -0.2484  0.1869  0.3822
  137SAPE  H13X14938   4.115   0.413   8.870  1.7889 -0.1854 -1.0046
  137SAPE  H13Y14939   3.994   0.285   8.842 -0.3759 -0.0603  0.8850
  137SAPE  C31414940   4.209   0.235   8.797 -1.0282  0.0887 -0.6447
  137SAPE  H14X14941   4.208   0.125   8.815 -1.8708 -0.1623 -2.2149
  137SAPE  H14Y14942   4.304   0.260   8.848 -0.0623 -2.0173 -1.3361
  137SAPE  C31514943   4.205   0.296   8.657  0.3468  0.4379 -0.9944
  137SAPE  H15X14944   4.204   0.407   8.651 -2.1609  0.5058 -0.1586
  137SAPE  H15Y14945   4.116   0.261   8.599  0.2142 -0.8348 -0.0484
  137SAPE  C31614946   4.333   0.262   8.584 -0.2416 -0.0717  1.1104
  137SAPE  H16X14947   4.359   0.155   8.571  1.9758  0.4975  0.6548
  137SAPE  H16Y14948   4.424   0.296   8.638  0.2962  0.3191 -0.0121
  137SAPE  C31714949   4.342   0.323   8.446 -0.3005 -0.0766 -0.1265
  137SAPE  H17X14950   4.348   0.433   8.453 -0.1396 -0.1293  0.6790
  137SAPE  H17Y14951   4.254   0.296   8.385 -1.0300  0.0392  0.8690
  137SAPE  C31814952   4.467   0.284   8.368 -0.0520  0.2547 -0.7610
  137SAPE  H18X14953   4.551   0.342   8.410  0.0179 -0.4475  0.0923
  137SAPE  H18Y14954   4.446   0.315   8.263  0.2276  1.4328 -0.4749
  137SAPE  H18Z14955   4.492   0.176   8.381  0.1019  0.4689  0.7193
  138SAPE     N14956   0.369   1.867  10.684  0.1508 -0.1059 -0.3540
  138SAPE   HN114957   0.309   1.932  10.630  1.5007  0.2420 -1.4723
  138SAPE   HN214958   0.348   1.769  10.655 -2.3814  0.2822  0.0917
  138SAPE   HN314959   0.339   1.881  10.782  1.2909 -0.6472  0.0891
  138SAPE   C1214960   0.516   1.904  10.663  0.4370  0.5626  0.1409
  138SAPE  H12A14961   0.571   1.820  10.618 -1.2460 -0.6489  0.2899
  138SAPE  H12B14962   0.547   1.919  10.769  0.4777  0.6945  0.1092
  138SAPE   C1114963   0.524   2.040  10.593 -0.3273  0.3350 -0.2774
  138SAPE  H11A14964   0.463   2.109  10.655 -0.8565 -1.3115  1.0350
  138SAPE  H11B14965   0.471   2.053  10.496 -0.1897  2.7054 -0.0798
  138SAPE     P14966   0.749   2.145  10.694  0.3559  0.1723 -0.2857
  138SAPE   O1314967   0.653   2.203  10.787  0.0290  0.5197  0.3202
  138SAPE   O1414968   0.830   2.030  10.745  0.2942  0.1729 -0.4740
  138SAPE   O1214969   0.658   2.096  10.572  0.0989 -0.1907 -0.5411
  138SAPE   O1114970   0.844   2.258  10.630 -0.0588  0.0645 -0.5290
  138SAPE    C114971   0.789   2.355  10.554  0.3704 -0.2686  0.2246
  138SAPE    HA14972   0.693   2.391  10.596  2.0093  0.8736  3.1408
  138SAPE    HB14973   0.856   2.444  10.552 -0.8677  0.6645 -0.3581
  138SAPE    C214974   0.757   2.329  10.402 -0.5190 -0.3458  0.5429
  138SAPE    HS14975   0.674   2.255  10.405  0.6790 -1.6837  0.9531
  138SAPE   O2114976   0.873   2.290  10.336  0.0028 -0.0259 -0.1110
  138SAPE   C2114977   0.857   2.213  10.230 -0.8563  0.3132  0.3775
  138SAPE   O2214978   0.751   2.158  10.190 -0.6399 -0.4421  0.2094
  138SAPE   C2214979   0.985   2.189  10.155  0.7090 -0.3041 -0.6888
  138SAPE   H2R14980   1.069   2.154  10.218  0.5242 -0.5499 -0.5744
  138SAPE   H2S14981   0.960   2.112  10.078 -2.7127 -0.0271  0.0409
  138SAPE    C314982   0.705   2.453  10.322  0.4044  0.2297 -0.4248
  138SAPE    HX14983   0.783   2.531  10.311 -0.1740  0.5633 -2.2849
  138SAPE    HY14984   0.618   2.503  10.371 -0.1397  0.1572 -1.3165
  138SAPE   O3114985   0.672   2.436  10.184  0.8151 -0.2317  0.0467
  138SAPE   C3114986   0.553   2.373  10.170  0.2966 -0.2304  0.4637
  138SAPE   O3214987   0.474   2.363  10.259  0.0247  0.7107  0.7313
  138SAPE   C3214988   0.531   2.321  10.031 -0.2684 -1.0431 -0.1948
  138SAPE   H2X14989   0.630   2.279  10.002 -0.4389 -1.7611  0.2401
  138SAPE   H2Y14990   0.525   2.410   9.965 -0.3696 -0.7992  0.1408
  138SAPE   C2314991   1.024   2.313  10.083 -0.1004 -0.2579 -0.5238
  138SAPE   H3R14992   1.126   2.296  10.041  0.6951  2.1446  0.3830
  138SAPE   H3S14993   1.015   2.397  10.154 -1.5109 -2.1644  1.6106
  138SAPE   C2414994   0.925   2.355   9.967 -0.7208  0.6962  0.6155
  138SAPE   H4R14995   0.957   2.451   9.922 -0.5201 -0.5672 -1.9863
  138SAPE   H4S14996   0.826   2.378  10.012 -0.5359  2.4311  0.1574
  138SAPE   C2514997   0.905   2.251   9.860  0.4140  0.1348 -0.2246
  138SAPE   H5R14998   0.832   2.172   9.882 -0.7235  1.0503 -0.6270
  138SAPE   C2614999   0.949   2.261   9.738 -0.4416  0.1736 -0.4838
  138SAPE   H6R15000   0.937   2.170   9.678 -0.3914  0.6482 -1.2322
  138SAPE   C2715001   1.033   2.372   9.675 -0.2184  0.6794  0.0330
  138SAPE   H7R15002   1.139   2.337   9.679 -0.1984  0.8227  0.8480
  138SAPE   H7S15003   1.029   2.466   9.734 -0.1467 -0.8423  2.5389
  138SAPE   C2815004   1.000   2.422   9.541 -0.1699  0.6229 -0.6739
  138SAPE   H8R15005   0.913   2.489   9.553 -0.6515 -0.2356  0.6933
  138SAPE   C2915006   1.063   2.407   9.423 -0.5357  0.8558  0.1723
  138SAPE   H9R15007   1.023   2.464   9.338 -2.1790 -1.1084 -0.4146
  138SAPE  C21015008   1.185   2.319   9.392 -0.0410  1.2131  0.4209
  138SAPE  H10R15009   1.210   2.249   9.474  0.8032 -0.2029 -1.0099
  138SAPE  H10S15010   1.268   2.392   9.379  1.1234 -0.1258  0.2429
  138SAPE  C21115011   1.169   2.249   9.258  0.6256 -0.3141  0.1541
  138SAPE  H11R15012   1.101   2.164   9.270  1.7660 -1.3755 -0.7730
  138SAPE  C21215013   1.231   2.275   9.139 -0.0381 -0.0804 -0.7097
  138SAPE  H12R15014   1.192   2.212   9.058 -1.1204  0.4311 -0.5890
  138SAPE  C21315015   1.332   2.379   9.108 -0.8190  0.1406 -0.0582
  138SAPE  H13R15016   1.340   2.457   9.187  1.7006  0.3730 -0.4958
  138SAPE  H13S15017   1.293   2.426   9.015 -0.3349 -0.0740 -0.3742
  138SAPE  C21415018   1.474   2.328   9.079  0.1355 -0.4827 -0.1137
  138SAPE  H14R15019   1.544   2.342   9.163  0.5111  1.5489 -0.7495
  138SAPE  C21515020   1.517   2.262   8.970 -0.0796  0.0979 -0.0145
  138SAPE  H15R15021   1.623   2.234   8.969 -0.3299 -0.9079  0.6588
  138SAPE  C21615022   1.445   2.212   8.842 -0.0252 -0.8699 -0.1141
  138SAPE  H16R15023   1.336   2.225   8.858 -0.2605 -0.8289 -1.7008
  138SAPE  H16S15024   1.465   2.104   8.823 -1.3925 -1.0392 -0.6892
  138SAPE  C21715025   1.492   2.286   8.720  0.1002  0.1919  0.2594
  138SAPE  H17R15026   1.431   2.237   8.641 -2.1981  1.5215  1.1853
  138SAPE  H17S15027   1.598   2.269   8.691  0.0139 -0.6955  0.4452
  138SAPE  C21815028   1.478   2.440   8.724  0.4312 -0.6257  0.2545
  138SAPE  H18R15029   1.568   2.494   8.686  0.3834 -1.6736 -1.3753
  138SAPE  H18S15030   1.472   2.474   8.830  1.3170  0.2248  0.0469
  138SAPE  C21915031   1.355   2.502   8.648 -0.1794  0.2758  0.6287
  138SAPE  H19R15032   1.256   2.459   8.672 -0.9840  0.8345 -1.6071
  138SAPE  H19S15033   1.371   2.480   8.541 -0.7085 -0.7526  0.7565
  138SAPE  C22015034   1.350   2.660   8.664 -0.5045  0.6942  0.2404
  138SAPE  H20R15035   1.449   2.709   8.652 -1.9287  4.0157  1.5772
  138SAPE  H20S15036   1.308   2.686   8.763  0.6363  1.8146  0.4387
  138SAPE  H20T15037   1.280   2.706   8.591  0.0621  1.0878 -0.0559
  138SAPE   C3315038   0.415   2.221  10.015  0.9289  0.4527 -0.0817
  138SAPE   H3X15039   0.324   2.283  10.001  1.4158  0.8459 -1.6276
  138SAPE   H3Y15040   0.391   2.159  10.103  1.2035  1.0827  0.4448
  138SAPE   C3415041   0.446   2.132   9.894  0.4882 -0.3977  0.3930
  138SAPE   H4X15042   0.356   2.067   9.897 -0.8152  1.2961 -0.9005
  138SAPE   H4Y15043   0.535   2.067   9.910 -0.5587 -2.4527 -1.8483
  138SAPE   C3515044   0.462   2.200   9.764 -0.3465  0.4515  0.5202
  138SAPE   H5X15045   0.543   2.276   9.770 -0.0233  0.0019  2.2172
  138SAPE   H5Y15046   0.367   2.251   9.741 -0.1481  0.7785  0.4158
  138SAPE   C3615047   0.490   2.105   9.642 -0.1851 -0.1353  0.2205
  138SAPE   H6X15048   0.415   2.025   9.626  0.4462 -0.8584  0.8381
  138SAPE   H6Y15049   0.593   2.063   9.650  0.9119  2.7169  1.6946
  138SAPE   C3715050   0.500   2.188   9.512  0.2912 -0.0997 -0.4601
  138SAPE   H7X15051   0.553   2.284   9.528 -1.2730  0.7150 -0.0261
  138SAPE   H7Y15052   0.399   2.215   9.475  0.3189 -1.7262 -1.7892
  138SAPE   C3815053   0.582   2.116   9.405  0.4789  0.3817 -0.1505
  138SAPE   H8X15054   0.523   2.026   9.376 -0.5415  1.1660 -0.5284
  138SAPE   H8Y15055   0.683   2.082   9.439 -1.1047 -3.1939  1.2054
  138SAPE   C3915056   0.604   2.200   9.279  0.1398 -0.3958 -0.3377
  138SAPE   H9X15057   0.509   2.252   9.253  0.4287  0.4245  0.2364
  138SAPE   H9Y15058   0.623   2.126   9.198  0.9515  1.1601 -1.6106
  138SAPE  C31015059   0.721   2.291   9.290 -0.0976  0.8368  0.1239
  138SAPE  H10X15060   0.815   2.232   9.286 -0.7523 -0.0638 -3.5212
  138SAPE  H10Y15061   0.726   2.350   9.384  2.9892  1.4322 -0.3473
  138SAPE  C31115062   0.728   2.402   9.183 -0.2143 -0.2575 -0.3101
  138SAPE  H11X15063   0.804   2.477   9.214  1.6597 -2.2087 -0.0718
  138SAPE  H11Y15064   0.636   2.461   9.203 -1.8247 -3.3826  2.0546
  138SAPE  C31215065   0.737   2.353   9.042  1.0210 -0.3263  0.1217
  138SAPE  H12X15066   0.745   2.430   8.963 -1.3590 -0.9186 -0.7263
  138SAPE  H12Y15067   0.661   2.276   9.015 -0.3463  1.4162 -1.0521
  138SAPE  C31315068   0.872   2.275   9.025 -0.6426  0.3658  0.2775
  138SAPE  H13X15069   0.883   2.190   9.096 -0.6786  0.5696  0.5266
  138SAPE  H13Y15070   0.963   2.333   9.054 -0.3018 -0.0795  0.1064
  138SAPE  C31415071   0.874   2.207   8.884 -0.4740 -0.1359 -0.4859
  138SAPE  H14X15072   0.838   2.277   8.806  0.3118  0.2300 -0.5191
  138SAPE  H14Y15073   0.800   2.125   8.873 -0.7625  0.3644 -2.4092
  138SAPE  C31515074   1.013   2.147   8.855 -0.2817 -0.5498 -0.3593
  138SAPE  H15X15075   1.035   2.077   8.938  1.0221  1.4095  1.0016
  138SAPE  H15Y15076   1.078   2.237   8.853  0.0220 -0.7217  1.1248
  138SAPE  C31615077   1.020   2.071   8.715 -0.6959 -0.3814  0.7923
  138SAPE  H16X15078   0.988   2.139   8.634 -0.1479 -1.2468 -0.1641
  138SAPE  H16Y15079   0.952   1.983   8.717 -1.9017  0.5401  0.3842
  138SAPE  C31715080   1.164   2.026   8.673  0.3447 -0.3616 -0.0261
  138SAPE  H17X15081   1.197   1.948   8.746 -1.1719 -0.5997  0.4156
  138SAPE  H17Y15082   1.251   2.094   8.687 -0.4225  0.2210  2.1268
  138SAPE  C31815083   1.174   1.953   8.539  0.5211  0.4616 -0.5858
  138SAPE  H18X15084   1.279   1.945   8.503  1.0541  0.3185  0.9637
  138SAPE  H18Y15085   1.115   2.013   8.466 -0.1541 -0.0312 -0.4490
  138SAPE  H18Z15086   1.130   1.853   8.559  1.8026 -0.5199 -2.5122
  139SAPE     N15087   0.708   6.427  10.936 -0.1106  0.2194  0.1648
  139SAPE   HN115088   0.672   6.333  10.914 -1.7417  0.2117  2.7004
  139SAPE   HN215089   0.812   6.421  10.935 -0.1791 -1.0761 -0.5513
  139SAPE   HN315090   0.689   6.444  11.036 -2.7219  2.5221 -0.6475
  139SAPE   C1215091   0.665   6.547  10.859  0.5589  0.4559 -0.0569
  139SAPE  H12A15092   0.742   6.627  10.862  0.0574  0.9042  1.3116
  139SAPE  H12B15093   0.574   6.585  10.909 -0.3263 -0.4191 -1.0037
  139SAPE   C1115094   0.637   6.507  10.715 -0.0116  0.1154  0.6909
  139SAPE  H11A15095   0.604   6.599  10.661  0.5665  0.6283  1.1980
  139SAPE  H11B15096   0.565   6.425  10.697 -0.4333  0.3792  1.1585
  139SAPE     P15097   0.857   6.567  10.587 -0.2256 -0.2841 -0.1427
  139SAPE   O1315098   0.925   6.660  10.681  0.3561  0.3269  0.1416
  139SAPE   O1415099   0.946   6.496  10.490  0.4326 -0.7357  0.3750
  139SAPE   O1215100   0.767   6.462  10.668  0.4716 -0.0072  0.2830
  139SAPE   O1115101   0.750   6.659  10.503  0.2308 -0.0443 -0.4309
  139SAPE    C115102   0.683   6.582  10.403  0.1930 -0.2481 -0.2572
  139SAPE    HA15103   0.675   6.473  10.420 -1.4828  0.0370  0.9299
  139SAPE    HB15104   0.579   6.619  10.415  0.9887  1.4615  1.5903
  139SAPE    C215105   0.716   6.617  10.263 -0.0734  0.1906  0.0666
  139SAPE    HS15106   0.827   6.625  10.261  0.0238 -0.8656  1.1985
  139SAPE   O2115107   0.652   6.747  10.236 -0.1594 -0.0483  0.0476
  139SAPE   C2115108   0.730   6.849  10.201  0.5698 -0.5683  0.2351
  139SAPE   O2215109   0.851   6.854  10.204 -0.4170  0.3779  0.1675
  139SAPE   C2215110   0.638   6.960  10.153  0.4525  0.3368 -0.2955
  139SAPE   H2R15111   0.561   6.909  10.091 -1.3790 -0.5107  2.5820
  139SAPE   H2S15112   0.588   7.005  10.241  1.0203 -0.9410  0.6998
  139SAPE    C315113   0.669   6.508  10.167 -0.4004  0.5866  0.0453
  139SAPE    HX15114   0.558   6.504  10.178 -0.4149  0.8414 -0.0125
  139SAPE    HY15115   0.698   6.408  10.205  1.0250  0.6916 -0.7390
  139SAPE   O3115116   0.691   6.521  10.026  0.2278  0.2432 -0.2379
  139SAPE   C3115117   0.811   6.491   9.973 -0.2991 -0.8439 -0.2742
  139SAPE   O3215118   0.902   6.444  10.038 -0.0117  0.1676 -0.1893
  139SAPE   C3215119   0.809   6.516   9.820 -0.4098 -0.0514  0.8130
  139SAPE   H2X15120   0.834   6.621   9.792  4.2817 -1.3961 -0.3760
  139SAPE   H2Y15121   0.705   6.500   9.782 -0.6412  1.3281  0.8347
  139SAPE   C2315122   0.711   7.077  10.083  0.2972  0.0422  0.4973
  139SAPE   H3R15123   0.800   7.101  10.145  0.4383  0.3262  0.1846
  139SAPE   H3S15124   0.636   7.158  10.074 -0.2918 -0.5290  0.2384
  139SAPE   C2415125   0.763   7.041   9.938 -0.0383 -0.5910 -0.4612
  139SAPE   H4R15126   0.845   6.970   9.960 -1.1656 -1.9552 -0.5372
  139SAPE   H4S15127   0.820   7.130   9.905 -2.3755  1.2819  0.4043
  139SAPE   C2515128   0.670   6.998   9.824  1.0467 -0.1155 -0.1069
  139SAPE   H5R15129   0.564   7.009   9.850  0.7874  2.3411 -1.9598
  139SAPE   C2615130   0.705   6.950   9.704  0.5108 -0.7127 -0.0333
  139SAPE   H6R15131   0.634   6.920   9.626 -0.5702  0.1608  0.6101
  139SAPE   C2715132   0.851   6.949   9.663  0.1704  0.6786  0.2115
  139SAPE   H7R15133   0.901   6.937   9.762  0.7686 -0.4482 -0.2224
  139SAPE   H7S15134   0.887   7.046   9.623  0.8206 -0.0468 -0.9686
  139SAPE   C2815135   0.872   6.831   9.566 -0.3322  0.2320  0.0455
  139SAPE   H8R15136   0.801   6.748   9.580 -1.1624  0.7166 -1.2313
  139SAPE   C2915137   0.952   6.829   9.458 -0.2715  1.1647  1.0720
  139SAPE   H9R15138   0.957   6.741   9.392 -1.8379  0.6350  1.6179
  139SAPE  C21015139   1.035   6.941   9.398 -0.6510 -0.7309  0.1431
  139SAPE  H10R15140   1.123   6.903   9.342 -0.2295  1.3340 -0.6376
  139SAPE  H10S15141   1.092   6.989   9.481  1.0787  1.3960 -2.2245
  139SAPE  C21115142   0.960   7.041   9.310  0.1724 -0.5645 -0.1595
  139SAPE  H11R15143   0.940   7.143   9.344 -1.7743 -1.3375  1.1683
  139SAPE  C21215144   0.909   7.007   9.189  0.1741  0.3370 -0.0410
  139SAPE  H12R15145   0.869   7.090   9.129  0.1795  1.2603  1.2109
  139SAPE  C21315146   0.924   6.873   9.121 -0.3563 -0.5057 -0.2861
  139SAPE  H13R15147   0.843   6.805   9.153  0.2967 -1.2152 -0.1199
  139SAPE  H13S15148   1.020   6.829   9.155  0.4441  3.2055  2.6236
  139SAPE  C21415149   0.923   6.885   8.970 -0.8976 -0.1619  0.3450
  139SAPE  H14R15150   0.820   6.881   8.935 -0.9269  0.1296  0.3984
  139SAPE  C21515151   1.025   6.893   8.880 -0.2167 -0.1401 -0.3210
  139SAPE  H15R15152   1.008   6.913   8.773 -0.1647  2.1519  0.0835
  139SAPE  C21615153   1.171   6.896   8.915 -0.0656 -0.9864  0.6448
  139SAPE  H16R15154   1.236   6.839   8.845  0.2208  0.8743 -0.6464
  139SAPE  H16S15155   1.194   6.850   9.013  0.7378 -0.1097  0.8685
  139SAPE  C21715156   1.227   7.041   8.923  0.6015 -0.4344 -0.8026
  139SAPE  H17R15157   1.168   7.091   9.003  1.8774  1.6253 -1.1364
  139SAPE  H17S15158   1.201   7.091   8.828 -1.8705 -1.5119 -0.7313
  139SAPE  C21815159   1.371   7.033   8.945  0.4298  0.3172  0.3552
  139SAPE  H18R15160   1.418   6.991   8.853  0.1915 -0.2929  0.5097
  139SAPE  H18S15161   1.398   6.981   9.040  0.1625 -0.3719  0.0553
  139SAPE  C21915162   1.434   7.177   8.956 -0.3421  0.6378  1.3950
  139SAPE  H19R15163   1.383   7.225   9.042 -0.3409  0.8359  1.2850
  139SAPE  H19S15164   1.394   7.231   8.868  0.0655  0.4869  1.1168
  139SAPE  C22015165   1.585   7.174   8.963 -0.1381  0.4681  0.0140
  139SAPE  H20R15166   1.626   7.277   8.972 -0.4527  0.7019 -1.1777
  139SAPE  H20S15167   1.625   7.118   8.876 -0.7025 -0.2319  0.2009
  139SAPE  H20T15168   1.609   7.107   9.049  1.7463  0.8915 -0.1541
  139SAPE   C3315169   0.899   6.418   9.743  0.1198  0.4098 -0.6940
  139SAPE   H3X15170   0.887   6.312   9.776 -1.0629  0.9195  0.5242
  139SAPE   H3Y15171   1.006   6.448   9.749  0.4270 -0.9759  1.3180
  139SAPE   C3415172   0.878   6.433   9.592 -0.0560  0.0565 -0.0072
  139SAPE   H4X15173   0.942   6.353   9.550  1.3224  2.3714 -2.4829
  139SAPE   H4Y15174   0.923   6.527   9.554  2.7402 -0.4938  1.7998
  139SAPE   C3515175   0.733   6.423   9.542  0.4637 -0.0285 -0.0940
  139SAPE   H5X15176   0.685   6.522   9.558 -2.2728 -1.4715  0.8510
  139SAPE   H5Y15177   0.680   6.352   9.609 -2.9781  0.9892 -1.6570
  139SAPE   C3615178   0.711   6.367   9.402  0.8180  0.7532 -0.1221
  139SAPE   H6X15179   0.606   6.388   9.374  0.6014  0.9558  0.8192
  139SAPE   H6Y15180   0.709   6.256   9.391  2.4289  0.7100 -0.0660
  139SAPE   C3715181   0.813   6.416   9.308 -0.0561 -0.2429 -0.2552
  139SAPE   H7X15182   0.908   6.359   9.318  1.5040  1.8622 -2.5316
  139SAPE   H7Y15183   0.847   6.520   9.326  0.9066 -0.2723 -1.8143
  139SAPE   C3815184   0.753   6.405   9.177  0.1510  0.0769  0.4640
  139SAPE   H8X15185   0.688   6.494   9.162  0.3826  0.4183  1.4485
  139SAPE   H8Y15186   0.692   6.311   9.184 -0.3927  0.2850 -1.2685
  139SAPE   C3915187   0.866   6.397   9.070 -0.2076  0.1192 -0.3773
  139SAPE   H9X15188   0.936   6.323   9.114 -0.3655 -0.0366 -0.3824
  139SAPE   H9Y15189   0.935   6.484   9.064  0.8287 -0.7304 -0.9793
  139SAPE  C31015190   0.813   6.350   8.936  0.0719  0.2639  0.8172
  139SAPE  H10X15191   0.729   6.408   8.893  0.0944  1.9713  2.9356
  139SAPE  H10Y15192   0.786   6.244   8.953  0.6815  0.2277  1.6361
  139SAPE  C31115193   0.923   6.335   8.828 -0.5823 -0.4562  0.0553
  139SAPE  H11X15194   0.998   6.258   8.855  0.0155 -0.5706 -1.8675
  139SAPE  H11Y15195   0.982   6.430   8.823  1.7987 -1.9547 -0.9605
  139SAPE  C31215196   0.870   6.309   8.684  0.6071  0.0735 -0.4710
  139SAPE  H12X15197   0.958   6.326   8.618  0.8454 -0.2484 -0.2371
  139SAPE  H12Y15198   0.795   6.384   8.652 -1.1081 -1.9621 -1.3452
  139SAPE  C31315199   0.802   6.173   8.663  0.1273 -0.3459 -0.3366
  139SAPE  H13X15200   0.709   6.180   8.723  0.4374  1.2287 -0.0220
  139SAPE  H13Y15201   0.857   6.086   8.703  1.1362  1.3291  2.0060
  139SAPE  C31415202   0.762   6.148   8.513 -0.7803  0.0015  0.3592
  139SAPE  H14X15203   0.858   6.105   8.475  0.0221  1.6813  0.4523
  139SAPE  H14Y15204   0.742   6.238   8.451 -2.5147  0.8261  2.0670
  139SAPE  C31515205   0.652   6.047   8.494  0.9521 -0.7310 -0.7597
  139SAPE  H15X15206   0.562   6.081   8.549  0.7252 -3.0747  0.3652
  139SAPE  H15Y15207   0.691   5.950   8.532  0.5702 -0.3195  0.7087
  139SAPE  C31615208   0.609   6.005   8.345  0.3015 -0.6230  0.1207
  139SAPE  H16X15209   0.704   5.976   8.294  0.6202  0.0535  0.3191
  139SAPE  H16Y15210   0.561   5.906   8.363  0.3901 -0.3995  1.6883
  139SAPE  C31715211   0.517   6.106   8.274  0.3512 -0.6482  0.3983
  139SAPE  H17X15212   0.497   6.057   8.176 -1.4733 -1.1621  1.0175
  139SAPE  H17Y15213   0.573   6.200   8.257  4.1529 -3.0550 -1.4097
  139SAPE  C31815214   0.382   6.148   8.332 -0.1584  0.2098  0.6163
  139SAPE  H18X15215   0.318   6.172   8.245  0.9244 -0.9971 -0.5529
  139SAPE  H18Y15216   0.394   6.221   8.415 -2.6745  0.7878  0.4894
  139SAPE  H18Z15217   0.335   6.059   8.380 -0.5033 -0.5429 -1.0820
  140SAPE     N15218   3.330   3.123  11.188  0.1116 -0.4028  0.6608
  140SAPE   HN115219   3.366   3.123  11.286  0.5027 -0.6062  0.5190
  140SAPE   HN215220   3.249   3.059  11.176 -0.0826  0.2627 -1.6777
  140SAPE   HN315221   3.408   3.111  11.120  0.1501  0.5624  0.5271
  140SAPE   C1215222   3.268   3.260  11.160 -0.4485 -0.2538  0.3840
  140SAPE  H12A15223   3.341   3.336  11.194 -0.4280 -0.2826  0.4045
  140SAPE  H12B15224   3.177   3.280  11.220  0.1066  1.2367  0.7582
  140SAPE   C1115225   3.240   3.278  11.011  0.7543 -0.1780 -0.0415
  140SAPE  H11A15226   3.335   3.294  10.957 -0.1895 -0.3587 -1.7892
  140SAPE  H11B15227   3.175   3.369  11.008  1.5007  0.3474 -0.4643
  140SAPE     P15228   3.050   3.146  10.875  0.3389 -0.1409 -0.0272
  140SAPE   O1315229   3.062   3.036  10.777 -0.0262  0.2286 -0.3045
  140SAPE   O1415230   2.931   3.137  10.962  0.4793 -0.7753  0.3037
  140SAPE   O1215231   3.185   3.154  10.955 -0.4073  0.6563 -0.1498
  140SAPE   O1115232   3.041   3.274  10.780  0.2966 -0.4955 -0.1205
  140SAPE    C115233   3.150   3.307  10.688 -0.9077 -0.0144 -0.0331
  140SAPE    HA15234   3.211   3.384  10.740 -0.8566  1.3439 -2.0451
  140SAPE    HB15235   3.210   3.218  10.659 -0.5467  0.1799  0.1133
  140SAPE    C215236   3.113   3.375  10.555 -0.1147 -0.7208  0.3743
  140SAPE    HS15237   3.068   3.300  10.486  0.7535  0.0495 -1.0664
  140SAPE   O2115238   3.228   3.449  10.512 -0.0193 -0.1103  0.8005
  140SAPE   C2115239   3.311   3.374  10.437 -0.1594  0.4298 -0.4533
  140SAPE   O2215240   3.300   3.258  10.415  0.1660  0.3959  0.0909
  140SAPE   C2215241   3.419   3.467  10.376 -0.0745  0.4858 -0.5543
  140SAPE   H2R15242   3.458   3.529  10.460  1.6312 -0.3053 -0.7441
  140SAPE   H2S15243   3.502   3.410  10.330  0.4993  2.6809 -2.3239
  140SAPE    C315244   3.016   3.500  10.579 -0.1322  0.0776  0.0419
  140SAPE    HX15245   3.062   3.576  10.646  0.7702 -1.4213  1.1574
  140SAPE    HY15246   2.929   3.461  10.636 -0.2662  0.2312 -0.0584
  140SAPE   O3115247   2.961   3.557  10.451 -0.1494  0.1719 -0.6001
  140SAPE   C3115248   3.006   3.676  10.430  0.1896  0.5952 -0.5323
  140SAPE   O3215249   3.082   3.739  10.503 -0.0392  0.3413  0.0102
  140SAPE   C3215250   2.946   3.731  10.303  0.1412  0.0533  0.5341
  140SAPE   H2X15251   2.972   3.837  10.283 -0.4284 -0.0361 -0.7261
  140SAPE   H2Y15252   2.836   3.730  10.312  0.1671 -1.2111  0.7753
  140SAPE   C2315253   3.362   3.569  10.269 -0.1615  0.1404  0.3525
  140SAPE   H3R15254   3.442   3.647  10.263 -0.0163 -0.2540 -4.0738
  140SAPE   H3S15255   3.272   3.616  10.315 -1.5837  1.6669 -3.7624
  140SAPE   C2415256   3.337   3.501  10.135 -0.1115  0.3503  0.1482
  140SAPE   H4R15257   3.292   3.577  10.068 -0.7702 -1.2721 -1.3045
  140SAPE   H4S15258   3.253   3.428  10.142  0.3374 -0.4116 -2.0355
  140SAPE   C2515259   3.448   3.422  10.065 -0.6439 -0.1867 -0.0943
  140SAPE   H5R15260   3.490   3.334  10.116  1.1430 -0.2541 -1.6317
  140SAPE   C2615261   3.508   3.458   9.950  0.3238 -0.1234 -0.3658
  140SAPE   H6R15262   3.584   3.392   9.906 -1.1231 -1.0867 -1.4383
  140SAPE   C2715263   3.487   3.577   9.861 -0.2900  0.7263 -0.3202
  140SAPE   H7R15264   3.587   3.605   9.820 -0.5479  1.8511 -0.2014
  140SAPE   H7S15265   3.439   3.657   9.921 -1.4122  0.8265 -1.3281
  140SAPE   C2815266   3.384   3.557   9.746  0.1009 -0.1466  0.4291
  140SAPE   H8R15267   3.286   3.603   9.768 -1.7339 -2.4792 -2.4683
  140SAPE   C2915268   3.412   3.488   9.632  0.1057 -0.0918 -0.3810
  140SAPE   H9R15269   3.329   3.475   9.560  0.2865  1.4324 -0.8904
  140SAPE  C21015270   3.540   3.414   9.588 -0.3180 -0.3371  0.0451
  140SAPE  H10R15271   3.619   3.449   9.658  1.6178  0.4603 -2.4557
  140SAPE  H10S15272   3.572   3.463   9.494 -0.7331 -1.8848 -0.9056
  140SAPE  C21115273   3.534   3.265   9.590  0.5537 -0.0417  0.4002
  140SAPE  H11R15274   3.487   3.231   9.683 -1.9724  1.3700 -0.3172
  140SAPE  C21215275   3.594   3.178   9.503  0.9598  0.0620  0.8972
  140SAPE  H12R15276   3.590   3.070   9.518  0.7825  0.0002  0.4087
  140SAPE  C21315277   3.677   3.223   9.390  0.0073 -0.2540 -0.7208
  140SAPE  H13R15278   3.748   3.299   9.430  2.4294 -2.0683 -1.4140
  140SAPE  H13S15279   3.614   3.265   9.309 -1.3464 -1.4430 -0.3039
  140SAPE  C21415280   3.766   3.109   9.332  0.9279  0.1895  0.1259
  140SAPE  H14R15281   3.806   3.039   9.408 -1.7129 -1.0229  0.4640
  140SAPE  C21515282   3.798   3.093   9.204 -0.5698  0.7364 -0.2365
  140SAPE  H15R15283   3.865   3.008   9.185 -0.7746  0.0014  2.1415
  140SAPE  C21615284   3.749   3.174   9.090  0.3197 -0.1050  0.6582
  140SAPE  H16R15285   3.842   3.233   9.071  2.3015 -3.4078 -0.2371
  140SAPE  H16S15286   3.671   3.252   9.107  0.4065  0.8431 -2.8660
  140SAPE  C21715287   3.717   3.096   8.957 -0.5110 -0.5056 -0.4034
  140SAPE  H17R15288   3.625   3.037   8.976 -0.5397  0.1371  1.5641
  140SAPE  H17S15289   3.804   3.034   8.928 -0.3420 -0.8977  0.9158
  140SAPE  C21815290   3.700   3.180   8.829 -0.2367  0.0769  0.0057
  140SAPE  H18R15291   3.610   3.242   8.846  0.7050  1.9543 -1.5838
  140SAPE  H18S15292   3.677   3.109   8.747 -0.3843 -1.8356  1.6659
  140SAPE  C21915293   3.822   3.264   8.779  0.1234 -0.9136 -0.3159
  140SAPE  H19R15294   3.903   3.193   8.753  2.2824  1.0447  0.7976
  140SAPE  H19S15295   3.866   3.328   8.859  2.3060 -1.3463 -1.1317
  140SAPE  C22015296   3.789   3.364   8.670 -0.5520  0.3075  0.3624
  140SAPE  H20R15297   3.752   3.305   8.583  1.9762 -0.7089 -0.0512
  140SAPE  H20S15298   3.887   3.409   8.647  0.5383 -1.5816  1.1391
  140SAPE  H20T15299   3.714   3.441   8.700  0.2278  0.7065  1.3267
  140SAPE   C3315300   2.983   3.665  10.169  0.5205 -0.8472 -0.6562
  140SAPE   H3X15301   2.942   3.562  10.168 -1.9973  0.1320 -0.9856
  140SAPE   H3Y15302   3.094   3.660  10.163  0.7580 -0.8995  2.6161
  140SAPE   C3415303   2.923   3.748  10.051  0.1456  0.2462 -0.2317
  140SAPE   H4X15304   2.958   3.853  10.066  1.2164  0.1757 -2.1819
  140SAPE   H4Y15305   2.813   3.742  10.052  0.1712 -0.4475 -1.5449
  140SAPE   C3515306   2.964   3.689   9.911 -0.5436  0.6023  0.7741
  140SAPE   H5X15307   3.054   3.623   9.907  0.6241  2.3102 -2.0714
  140SAPE   H5Y15308   3.001   3.778   9.856  0.2395 -0.6786 -0.8333
  140SAPE   C3615309   2.856   3.622   9.838 -0.3332  1.0297  0.3278
  140SAPE   H6X15310   2.780   3.693   9.801 -2.6698 -0.7128  1.6299
  140SAPE   H6Y15311   2.819   3.545   9.909 -0.4457  0.4259 -0.3798
  140SAPE   C3715312   2.911   3.546   9.717 -0.8370 -0.3974 -0.0266
  140SAPE   H7X15313   2.833   3.478   9.679 -0.3991 -0.8122 -0.1836
  140SAPE   H7Y15314   2.992   3.486   9.764 -0.3800 -0.4591 -0.8767
  140SAPE   C3815315   2.969   3.625   9.602 -0.2755 -0.3234  0.4746
  140SAPE   H8X15316   3.041   3.706   9.626 -0.9683  0.4417 -0.0265
  140SAPE   H8Y15317   2.880   3.686   9.576  0.2848  0.0284 -0.6482
  140SAPE   C3915318   3.030   3.549   9.484 -0.1199 -0.2724 -0.7508
  140SAPE   H9X15319   3.118   3.497   9.527 -0.5360  1.7674  2.6993
  140SAPE   H9Y15320   3.078   3.625   9.419 -0.6559 -1.2817 -2.3894
  140SAPE  C31015321   2.936   3.460   9.402 -0.4661 -0.2460 -0.0733
  140SAPE  H10X15322   2.844   3.515   9.373 -0.0867  0.6359  0.3542
  140SAPE  H10Y15323   2.907   3.374   9.467 -1.3559 -1.0599 -1.5318
  140SAPE  C31115324   3.000   3.386   9.293  0.3532  0.3716  0.5127
  140SAPE  H11X15325   2.952   3.286   9.285 -0.3385  0.6345  1.3417
  140SAPE  H11Y15326   3.107   3.380   9.322  0.6317  0.8961 -0.4091
  140SAPE  C31215327   2.991   3.464   9.157 -0.0741  0.7110  0.2655
  140SAPE  H12X15328   3.024   3.569   9.169 -1.9905  1.3280  0.3905
  140SAPE  H12Y15329   2.886   3.465   9.120  0.4038 -1.2494 -1.2025
  140SAPE  C31315330   3.091   3.405   9.051  0.3108 -0.3159 -0.3133
  140SAPE  H13X15331   3.196   3.433   9.069  0.2487  0.2790 -0.8770
  140SAPE  H13Y15332   3.055   3.436   8.951  1.0194  2.0642  0.1461
  140SAPE  C31415333   3.085   3.251   9.048 -0.0468  0.3143  0.1874
  140SAPE  H14X15334   2.981   3.217   9.029  0.4395 -1.6848  0.9868
  140SAPE  H14Y15335   3.127   3.207   9.141 -0.8138 -0.6001  0.1137
  140SAPE  C31515336   3.165   3.210   8.934 -0.1603 -0.2752 -0.2550
  140SAPE  H15X15337   3.272   3.233   8.948 -0.3224  0.3702 -0.0330
  140SAPE  H15Y15338   3.118   3.265   8.849 -3.0864  0.5585  1.8292
  140SAPE  C31615339   3.167   3.056   8.910 -0.6285 -0.5857  0.2843
  140SAPE  H16X15340   3.237   3.000   8.976 -2.0033 -1.3576  1.0859
  140SAPE  H16Y15341   3.209   3.042   8.808 -1.3818  1.4000 -0.3291
  140SAPE  C31715342   3.031   2.988   8.904  0.6177 -0.1560  0.2026
  140SAPE  H17X15343   2.956   3.045   8.845  2.7385  1.3219 -1.1544
  140SAPE  H17Y15344   2.988   2.994   9.006 -0.9605 -0.0469 -0.4465
  140SAPE  C31815345   3.030   2.839   8.850  0.0040 -0.1005 -0.2445
  140SAPE  H18X15346   3.024   2.843   8.739  1.4699 -1.4414 -0.3780
  140SAPE  H18Y15347   2.948   2.774   8.887  0.0625  0.7553  1.4785
  140SAPE  H18Z15348   3.125   2.786   8.869 -0.7385 -1.6860 -0.9053
  141SAPE     N15349   4.073   4.048  11.064 -0.5105 -0.0432  0.1106
  141SAPE   HN115350   4.078   4.144  11.026 -0.3509  0.0375  0.3329
  141SAPE   HN215351   4.165   4.033  11.111 -0.7430  2.2552  1.3606
  141SAPE   HN315352   4.057   3.993  10.977  0.5407 -2.7114  1.5353
  141SAPE   C1215353   3.954   4.028  11.165 -0.3060  0.4739 -0.0831
  141SAPE  H12A15354   3.943   4.121  11.224 -1.7749  0.4574 -0.2963
  141SAPE  H12B15355   3.996   3.952  11.234  0.8533  1.4606  0.3144
  141SAPE   C1115356   3.829   3.988  11.077  0.4120 -0.2478 -0.7023
  141SAPE  H11A15357   3.802   4.067  11.004 -0.2898  0.1882  0.0144
  141SAPE  H11B15358   3.744   3.977  11.148  1.6079  1.5691  1.0797
  141SAPE     P15359   3.772   3.733  11.016 -0.1406 -0.4302  0.0206
  141SAPE   O1315360   3.852   3.638  11.106  0.3060  0.4825 -0.4005
  141SAPE   O1415361   3.631   3.755  11.046  0.1624  0.5520 -0.6547
  141SAPE   O1215362   3.849   3.871  10.997  0.0708 -0.1739  0.0792
  141SAPE   O1115363   3.774   3.669  10.876  0.6350 -0.0019 -0.7324
  141SAPE    C115364   3.889   3.624  10.800  0.2642  0.2039 -0.5719
  141SAPE    HA15365   3.939   3.545  10.860  0.3705  0.7138  0.0141
  141SAPE    HB15366   3.855   3.568  10.711  0.0411  0.2007 -0.4854
  141SAPE    C215367   3.988   3.724  10.737  0.3619  0.3647  0.2829
  141SAPE    HS15368   4.058   3.757  10.816 -1.2680 -0.1294  1.9847
  141SAPE   O2115369   3.903   3.826  10.682 -0.8360  0.3214 -0.2020
  141SAPE   C2115370   3.916   3.941  10.740  0.0596  0.0734  0.6409
  141SAPE   O2215371   3.991   3.988  10.824  0.5432  0.1020  0.0217
  141SAPE   C2215372   3.792   4.019  10.697 -0.2000 -0.4360 -0.3132
  141SAPE   H2R15373   3.760   3.989  10.595 -0.2163 -0.5836 -0.2638
  141SAPE   H2S15374   3.702   3.991  10.756 -1.4560 -0.8111 -2.3523
  141SAPE    C315375   4.069   3.668  10.622 -0.2860 -1.2975 -0.2155
  141SAPE    HX15376   4.127   3.580  10.658  2.7962  0.1960 -1.3949
  141SAPE    HY15377   4.139   3.752  10.602 -1.0594 -0.7327 -0.5479
  141SAPE   O3115378   3.991   3.633  10.508 -0.1851  0.0052  0.1252
  141SAPE   C3115379   3.963   3.734  10.426  0.0557 -0.0291  0.1501
  141SAPE   O3215380   4.004   3.848  10.439 -0.2325  0.0838 -0.0841
  141SAPE   C3215381   3.863   3.678  10.329  0.2284  0.1436 -0.3122
  141SAPE   H2X15382   3.761   3.689  10.373 -0.4425 -0.1540 -1.7572
  141SAPE   H2Y15383   3.878   3.568  10.331 -0.7354 -0.0245 -1.3981
  141SAPE   C2315384   3.818   4.167  10.716 -0.2542 -0.7347  0.1356
  141SAPE   H3R15385   3.903   4.203  10.654  0.2593  2.0818  2.3919
  141SAPE   H3S15386   3.845   4.189  10.821 -2.5552 -1.2512  0.8781
  141SAPE   C2415387   3.701   4.255  10.673 -0.2866 -0.9447 -0.3898
  141SAPE   H4R15388   3.616   4.218  10.733  1.0803 -1.6622  1.1390
  141SAPE   H4S15389   3.691   4.235  10.564  1.1195  0.0520 -0.7212
  141SAPE   C2515390   3.720   4.405  10.695 -0.3240  0.0691 -0.6618
  141SAPE   H5R15391   3.761   4.441  10.791 -0.2706  0.0468 -0.6761
  141SAPE   C2615392   3.698   4.503  10.606  0.0740  0.2987  0.1491
  141SAPE   H6R15393   3.713   4.609  10.634  3.9458 -0.1555  0.1318
  141SAPE   C2715394   3.639   4.495  10.467 -0.1542  0.3634 -0.1588
  141SAPE   H7R15395   3.647   4.387  10.441  5.0966  0.2410  1.4416
  141SAPE   H7S15396   3.719   4.538  10.403 -0.3052  0.8521 -0.0246
  141SAPE   C2815397   3.509   4.568  10.447  0.6329 -0.0432  0.2561
  141SAPE   H8R15398   3.431   4.549  10.523  1.2998  0.3893  1.0672
  141SAPE   C2915399   3.481   4.649  10.343 -0.5115  0.0105  0.1110
  141SAPE   H9R15400   3.380   4.689  10.328 -1.1049 -1.5267 -0.1252
  141SAPE  C21015401   3.580   4.691  10.235 -0.4045 -0.2098 -0.3002
  141SAPE  H10R15402   3.679   4.714  10.279 -1.3403 -0.9332  2.2777
  141SAPE  H10S15403   3.545   4.790  10.198  3.4710  0.4687 -2.3825
  141SAPE  C21115404   3.602   4.591  10.130 -0.2549 -0.5294  0.3947
  141SAPE  H11R15405   3.699   4.538  10.131 -0.6451 -1.2389  0.6937
  141SAPE  C21215406   3.530   4.589  10.015 -0.3904 -0.7445  0.0525
  141SAPE  H12R15407   3.554   4.514   9.937 -1.3698  2.0763 -3.0996
  141SAPE  C21315408   3.413   4.674   9.979  0.1021  0.5291 -0.1970
  141SAPE  H13R15409   3.368   4.737  10.059  0.6034 -0.7818  1.1352
  141SAPE  H13S15410   3.327   4.608   9.951  0.0763  1.2934 -1.9789
  141SAPE  C21415411   3.445   4.765   9.855 -0.5171  0.4227  0.4545
  141SAPE  H14R15412   3.494   4.857   9.888  2.0064 -0.5614 -0.4454
  141SAPE  C21515413   3.427   4.731   9.726 -0.7455 -0.2718  0.2354
  141SAPE  H15R15414   3.467   4.793   9.644 -3.5482 -1.0274 -1.7599
  141SAPE  C21615415   3.383   4.592   9.681  0.0507 -0.0106 -1.1690
  141SAPE  H16R15416   3.284   4.601   9.631 -0.5139  1.6421  0.1992
  141SAPE  H16S15417   3.359   4.528   9.768  1.9896 -1.2173 -1.5037
  141SAPE  C21715418   3.492   4.509   9.615  0.6019 -0.1212 -0.4091
  141SAPE  H17R15419   3.472   4.400   9.613 -1.0579  0.1653  0.5221
  141SAPE  H17S15420   3.585   4.526   9.674  0.5139  1.7489 -0.7569
  141SAPE  C21815421   3.525   4.561   9.476 -0.3278  0.1909  0.0642
  141SAPE  H18R15422   3.455   4.635   9.433  1.2155  2.1304  0.8125
  141SAPE  H18S15423   3.513   4.471   9.412  1.3663 -0.8608  1.1628
  141SAPE  C21915424   3.672   4.606   9.453  0.2940 -0.2415 -0.4454
  141SAPE  H19R15425   3.736   4.530   9.502  0.7225  1.5448  1.8429
  141SAPE  H19S15426   3.680   4.709   9.495  2.2985  0.5867 -2.7147
  141SAPE  C22015427   3.698   4.619   9.303 -0.6528 -0.1966  0.6650
  141SAPE  H20R15428   3.677   4.529   9.242  2.1421 -1.0039  0.8318
  141SAPE  H20S15429   3.807   4.637   9.293 -0.7216 -0.2361 -0.1831
  141SAPE  H20T15430   3.649   4.707   9.256  0.0917 -0.2251 -0.1869
  141SAPE   C3315431   3.888   3.744  10.185  0.5415  0.0535  0.8435
  141SAPE   H3X15432   3.982   3.701  10.143  0.4055 -0.0058  0.6021
  141SAPE   H3Y15433   3.901   3.855  10.188  0.7046  0.1419 -2.1082
  141SAPE   C3415434   3.776   3.713  10.086  0.2956 -0.0851 -0.2588
  141SAPE   H4X15435   3.678   3.747  10.125 -0.5774  0.0286 -2.4494
  141SAPE   H4Y15436   3.746   3.609  10.065 -2.0087  0.1979  1.3920
  141SAPE   C3515437   3.794   3.780   9.949 -0.0238 -0.7037  0.0751
  141SAPE   H5X15438   3.836   3.883   9.957 -1.0430 -0.3551  1.1291
  141SAPE   H5Y15439   3.695   3.794   9.901  0.4422  2.0684 -0.1520
  141SAPE   C3615440   3.886   3.706   9.849  0.1388  0.1579 -0.0738
  141SAPE   H6X15441   3.832   3.610   9.839 -1.1837  0.8997 -0.0704
  141SAPE   H6Y15442   3.990   3.695   9.887  0.4280  2.7054 -0.0767
  141SAPE   C3715443   3.898   3.773   9.710 -0.4728  0.0356  0.0027
  141SAPE   H7X15444   3.980   3.715   9.663 -1.2875 -1.6846  0.6723
  141SAPE   H7Y15445   3.937   3.876   9.724 -0.4729 -0.0258  0.4606
  141SAPE   C3815446   3.780   3.752   9.616  0.2541 -0.2464 -0.3118
  141SAPE   H8X15447   3.693   3.783   9.678 -0.1332 -0.0589 -0.9412
  141SAPE   H8Y15448   3.770   3.641   9.618 -2.5674 -0.0260 -0.7386
  141SAPE   C3915449   3.802   3.817   9.473  0.4345 -0.6217 -0.3945
  141SAPE   H9X15450   3.824   3.925   9.488 -0.2762 -0.5692  0.3098
  141SAPE   H9Y15451   3.704   3.808   9.421  0.3118  3.3455 -1.0239
  141SAPE  C31015452   3.908   3.752   9.380 -0.0057 -0.2433 -0.0027
  141SAPE  H10X15453   3.863   3.661   9.334  2.4185 -0.5583 -1.8918
  141SAPE  H10Y15454   3.989   3.707   9.441  0.9597  2.3163  0.6685
  141SAPE  C31115455   3.962   3.829   9.261 -0.7314  0.3050  0.2884
  141SAPE  H11X15456   4.063   3.866   9.291 -0.6891  0.1941  0.2811
  141SAPE  H11Y15457   3.894   3.910   9.226  1.7203  0.8747 -3.5317
  141SAPE  C31215458   3.983   3.740   9.139  0.1297 -0.3909 -0.5945
  141SAPE  H12X15459   3.884   3.696   9.116 -0.1250  0.0143 -0.2675
  141SAPE  H12Y15460   4.052   3.663   9.181 -0.4161 -1.0439 -0.8894
  141SAPE  C31315461   4.045   3.816   9.025 -0.1563  0.3718 -0.7544
  141SAPE  H13X15462   4.117   3.752   8.969 -0.5487  0.2272 -1.1013
  141SAPE  H13Y15463   4.104   3.897   9.073  0.8457 -0.9213  0.2044
  141SAPE  C31415464   3.935   3.882   8.937  0.2622  0.2056 -0.1721
  141SAPE  H14X15465   3.875   3.944   9.007  0.5200  2.4226 -1.8580
  141SAPE  H14Y15466   3.878   3.797   8.893  1.7989  0.1272 -2.0804
  141SAPE  C31515467   3.980   3.962   8.819 -1.2322  0.2411 -0.2726
  141SAPE  H15X15468   4.035   4.048   8.862  0.9780 -1.9492  1.4301
  141SAPE  H15Y15469   3.900   4.004   8.755 -0.1650  0.1617 -1.6887
  141SAPE  C31615470   4.092   3.889   8.729 -0.2098 -0.1253 -0.4264
  141SAPE  H16X15471   4.176   3.860   8.796  0.1134 -0.7361 -1.0968
  141SAPE  H16Y15472   4.117   3.968   8.656  1.1273  1.9823  2.2447
  141SAPE  C31715473   4.046   3.761   8.657 -0.4311 -0.2551 -0.5904
  141SAPE  H17X15474   3.956   3.795   8.602 -0.1741 -0.7993 -1.3672
  141SAPE  H17Y15475   4.026   3.684   8.734 -1.1380 -0.3395 -0.8568
  141SAPE  C31815476   4.149   3.707   8.553  1.0383  0.0943  0.2532
  141SAPE  H18X15477   4.237   3.652   8.591 -1.2332 -3.2010  0.9952
  141SAPE  H18Y15478   4.189   3.785   8.485 -1.6864 -0.3420 -1.9744
  141SAPE  H18Z15479   4.095   3.631   8.492 -0.8803  2.3831 -1.0024
  142SAPE     N15480   4.871   3.583  11.028  0.5059  0.4571 -0.4311
  142SAPE   HN115481   4.882   3.653  11.104  1.5599  0.3037 -0.4349
  142SAPE   HN215482   4.898   3.487  11.056  0.1646  1.1825  2.5113
  142SAPE   HN315483   4.925   3.623  10.948  1.2907  1.5889  0.6330
  142SAPE   C1215484   4.724   3.584  11.002 -0.7969  0.1301  0.5157
  142SAPE  H12A15485   4.721   3.668  10.929 -3.5625 -0.0092  0.4187
  142SAPE  H12B15486   4.666   3.617  11.090 -0.4771  0.3745  0.6365
  142SAPE   C1115487   4.684   3.447  10.933 -0.4500  0.4375 -0.2730
  142SAPE  H11A15488   4.754   3.424  10.850 -1.5846 -1.4653 -0.7282
  142SAPE  H11B15489   4.576   3.450  10.904 -0.5351 -0.9006 -0.1338
  142SAPE     P15490   4.648   3.204  11.012  0.3777 -0.2197 -0.0602
  142SAPE   O1315491   4.731   3.111  11.097  0.0992  0.4106 -0.1772
  142SAPE   O1415492   4.504   3.219  11.037  0.2032  0.3939  0.4040
  142SAPE   O1215493   4.711   3.346  11.032 -0.3778 -0.4390 -0.1469
  142SAPE   O1115494   4.665   3.159  10.859 -0.2138  0.3535 -0.6178
  142SAPE    C115495   4.791   3.150  10.785 -0.0644  0.1402  0.2246
  142SAPE    HA15496   4.877   3.185  10.846 -0.6515 -1.1881  1.8311
  142SAPE    HB15497   4.805   3.044  10.756  1.2109  0.7817 -1.6233
  142SAPE    C215498   4.780   3.221  10.644  0.1799  0.0570  0.1125
  142SAPE    HS15499   4.780   3.332  10.650 -0.4421  0.1404 -1.3176
  142SAPE   O2115500   4.654   3.180  10.595 -0.4197  0.1227 -0.0049
  142SAPE   C2115501   4.554   3.261  10.594  0.5323  0.0674  0.1263
  142SAPE   O2215502   4.559   3.373  10.646 -0.1413  0.3606 -0.2936
  142SAPE   C2215503   4.445   3.203  10.508 -0.2135 -0.3843  0.0399
  142SAPE   H2R15504   4.420   3.101  10.544  1.0880 -2.0491 -3.4784
  142SAPE   H2S15505   4.357   3.271  10.512 -1.1166 -1.6261  1.7968
  142SAPE    C315506   4.880   3.172  10.538  0.1097  0.0765 -0.1224
  142SAPE    HX15507   4.857   3.204  10.434  0.8150 -0.6877 -0.5157
  142SAPE    HY15508   4.881   3.062  10.525  1.3328  0.2241 -1.3599
  142SAPE   O3115509   5.013   3.217  10.559 -0.5409  0.4662  0.1933
  142SAPE   C3115510   5.044   3.343  10.537  0.0876 -0.0879 -0.2147
  142SAPE   O3215511   4.961   3.430  10.514 -0.4378  0.3031  0.7403
  142SAPE   C3215512   5.191   3.374  10.545 -0.5670  0.3103 -0.0013
  142SAPE   H2X15513   5.226   3.346  10.646  1.4686 -0.2371 -0.8332
  142SAPE   H2Y15514   5.199   3.483  10.525 -1.5723  0.7064  1.6789
  142SAPE   C2315515   4.488   3.188  10.362 -0.1757 -0.7737  0.7045
  142SAPE   H3R15516   4.402   3.161  10.297 -0.4420 -0.6643  1.0092
  142SAPE   H3S15517   4.574   3.121  10.346 -1.2542 -1.3733 -3.0575
  142SAPE   C2415518   4.538   3.320  10.307  0.1992 -0.0566 -0.4218
  142SAPE   H4R15519   4.570   3.305  10.202  1.9226  0.3736  0.0270
  142SAPE   H4S15520   4.639   3.343  10.349 -1.0317  0.4516  2.3396
  142SAPE   C2515521   4.448   3.442  10.318 -0.4770  0.4947 -1.0828
  142SAPE   H5R15522   4.501   3.527  10.363  2.9550 -2.3315  0.4157
  142SAPE   C2615523   4.324   3.459  10.269 -0.2889 -0.1971  0.0114
  142SAPE   H6R15524   4.268   3.550  10.293 -0.9007 -0.4605 -0.4061
  142SAPE   C2715525   4.241   3.357  10.205 -0.2989 -0.4527  0.1940
  142SAPE   H7R15526   4.185   3.297  10.281 -2.1666  2.1030  0.8810
  142SAPE   H7S15527   4.307   3.285  10.151 -0.0512 -1.9363  2.3837
  142SAPE   C2815528   4.140   3.417  10.112 -0.4078 -0.3598 -0.2651
  142SAPE   H8R15529   4.046   3.435  10.166  0.3098 -0.7724  1.1538
  142SAPE   C2915530   4.147   3.443   9.979 -0.4458  0.0105  0.7672
  142SAPE   H9R15531   4.064   3.497   9.933 -0.7152  1.7087  3.1646
  142SAPE  C21015532   4.265   3.418   9.887  0.0736 -0.3190 -1.0895
  142SAPE  H10R15533   4.279   3.312   9.856 -2.8882 -1.1935  0.3612
  142SAPE  H10S15534   4.355   3.439   9.950 -0.3897 -0.4437 -0.3722
  142SAPE  C21115535   4.263   3.515   9.770  0.4866 -0.4067  0.4044
  142SAPE  H11R15536   4.302   3.617   9.787  1.9348 -1.2419  2.3084
  142SAPE  C21215537   4.215   3.490   9.646 -0.5141  0.7402 -0.6784
  142SAPE  H12R15538   4.232   3.561   9.563 -2.5392 -0.2852 -1.9941
  142SAPE  C21315539   4.156   3.360   9.590 -0.3418 -0.3947 -0.3638
  142SAPE  H13R15540   4.118   3.308   9.680  0.3562 -1.4396 -0.6605
  142SAPE  H13S15541   4.233   3.287   9.558  0.0278 -0.5663  0.8706
  142SAPE  C21415542   4.049   3.376   9.494  0.6489 -0.3701  0.6645
  142SAPE  H14R15543   3.948   3.397   9.533  0.8452 -1.4380  1.7649
  142SAPE  C21515544   4.045   3.369   9.361  0.6697 -0.2652  0.2004
  142SAPE  H15R15545   3.953   3.388   9.305 -0.6162 -0.1880  2.2950
  142SAPE  C21615546   4.164   3.338   9.270  0.6702 -0.5565  0.0372
  142SAPE  H16R15547   4.259   3.350   9.327 -0.1643  0.6510  1.2173
  142SAPE  H16S15548   4.167   3.413   9.189 -0.5405 -0.9557 -0.3822
  142SAPE  C21715549   4.152   3.203   9.203  0.2090 -0.1257  0.0347
  142SAPE  H17R15550   4.059   3.171   9.149 -0.1804 -1.0798  1.2488
  142SAPE  H17S15551   4.167   3.129   9.284 -1.0243  1.2457  1.5379
  142SAPE  C21815552   4.253   3.203   9.084 -0.3415 -0.3385 -0.1753
  142SAPE  H18R15553   4.243   3.281   9.006 -0.6064  0.0627  0.2585
  142SAPE  H18S15554   4.236   3.106   9.032 -1.5131 -0.4721  0.4452
  142SAPE  C21915555   4.400   3.230   9.122 -0.0174  0.0330  0.4278
  142SAPE  H19R15556   4.433   3.166   9.207  1.2705  1.9993  1.4166
  142SAPE  H19S15557   4.413   3.334   9.157  2.0842 -0.2638  0.5716
  142SAPE  C22015558   4.487   3.221   8.995  0.8356  0.1207  0.5618
  142SAPE  H20R15559   4.594   3.239   9.020  0.8755  2.0044 -0.8058
  142SAPE  H20S15560   4.454   3.301   8.925 -0.2877 -2.1138 -1.5583
  142SAPE  H20T15561   4.491   3.122   8.946  1.5572  0.6719 -0.5203
  142SAPE   C3315562   5.277   3.289  10.447 -0.2211 -0.2979  0.2556
  142SAPE   H3X15563   5.236   3.185  10.441  3.8692 -1.9523 -0.4300
  142SAPE   H3Y15564   5.383   3.284  10.480 -0.0492 -0.7868 -0.3488
  142SAPE   C3415565   5.270   3.345  10.301 -0.1744  0.0552  0.3224
  142SAPE   H4X15566   5.281   3.455  10.307 -0.2677  0.2169 -2.1359
  142SAPE   H4Y15567   5.165   3.331  10.266 -0.4331  0.0482  1.0935
  142SAPE   C3515568   5.366   3.281  10.205 -0.1336 -0.3171  0.3125
  142SAPE   H5X15569   5.467   3.284  10.251 -0.3833 -0.8382  0.9060
  142SAPE   H5Y15570   5.390   3.329  10.108  1.7677  2.1645  1.9563
  142SAPE   C3615571   5.340   3.128  10.170 -0.6874  0.2704 -0.1310
  142SAPE   H6X15572   5.350   3.074  10.267  0.3002  1.4568  0.4338
  142SAPE   H6Y15573   5.426   3.093  10.109  0.7045  0.7540  1.5267
  142SAPE   C3715574   5.204   3.102  10.102 -0.0325 -0.4938  0.1893
  142SAPE   H7X15575   5.204   3.145  10.000  1.7021 -0.2472  0.2628
  142SAPE   H7Y15576   5.127   3.154  10.163  0.6790  0.1842  0.5342
  142SAPE   C3815577   5.184   2.945  10.093  0.3850  0.0753 -0.3900
  142SAPE   H8X15578   5.137   2.906  10.186 -0.1531  1.4862 -0.0733
  142SAPE   H8Y15579   5.284   2.897  10.081  0.0141 -0.7225 -0.3341
  142SAPE   C3915580   5.097   2.899   9.969 -0.9167  0.4687  0.4662
  142SAPE   H9X15581   5.032   2.982   9.933 -0.5265 -0.1794 -1.7952
  142SAPE   H9Y15582   5.020   2.828  10.005 -0.3156 -1.5583 -2.1223
  142SAPE  C31015583   5.191   2.851   9.859 -0.2106  0.3168 -0.3486
  142SAPE  H10X15584   5.264   2.778   9.898 -0.2189 -0.0934 -1.0900
  142SAPE  H10Y15585   5.246   2.933   9.809  1.0436 -1.2466 -1.5910
  142SAPE  C31115586   5.110   2.794   9.737 -0.7745 -0.0948  0.7229
  142SAPE  H11X15587   5.018   2.856   9.734  0.3801  1.6928  1.6846
  142SAPE  H11Y15588   5.069   2.695   9.768 -1.5175 -0.3796 -1.1187
  142SAPE  C31215589   5.205   2.794   9.618 -0.4428  0.1684  0.5960
  142SAPE  H12X15590   5.270   2.708   9.644 -2.6277 -1.3271  1.2623
  142SAPE  H12Y15591   5.247   2.895   9.601  3.5989 -1.5084  0.0945
  142SAPE  C31315592   5.135   2.765   9.487  0.6134  0.0250  0.3969
  142SAPE  H13X15593   5.072   2.851   9.457  0.0901 -0.3587  0.3911
  142SAPE  H13Y15594   5.085   2.666   9.492 -1.8799  1.3134  1.9319
  142SAPE  C31415595   5.227   2.734   9.364  0.2925 -0.9908 -0.5612
  142SAPE  H14X15596   5.291   2.654   9.406 -0.2196 -1.7073 -1.1361
  142SAPE  H14Y15597   5.285   2.823   9.332  0.9699 -1.3586 -0.3632
  142SAPE  C31515598   5.163   2.670   9.241  0.7786 -0.5939  0.4067
  142SAPE  H15X15599   5.083   2.741   9.210  1.9779  0.2903 -0.7384
  142SAPE  H15Y15600   5.124   2.572   9.275 -0.0525 -0.5894 -0.4925
  142SAPE  C31615601   5.258   2.644   9.127  0.3829  0.0991  0.0561
  142SAPE  H16X15602   5.297   2.540   9.132  0.0606 -0.1083 -1.3674
  142SAPE  H16Y15603   5.340   2.718   9.130  0.6358 -0.2299  1.9836
  142SAPE  C31715604   5.185   2.668   8.995 -0.6768  0.2669 -1.0119
  142SAPE  H17X15605   5.254   2.713   8.920  0.0566  0.1600 -0.4093
  142SAPE  H17Y15606   5.110   2.746   9.019 -1.1451 -0.7860  1.0902
  142SAPE  C31815607   5.119   2.547   8.929 -0.1076  0.4571  0.2242
  142SAPE  H18X15608   5.053   2.562   8.842 -0.3626  0.2402  0.3801
  142SAPE  H18Y15609   5.081   2.472   9.002  0.3159 -1.1390 -1.1745
  142SAPE  H18Z15610   5.210   2.503   8.883 -1.9455  0.9747 -4.0757
  143SAPE     N15611   5.930   3.339  10.795 -0.0444  0.1840 -0.0018
  143SAPE   HN115612   5.871   3.319  10.878 -0.6402  1.1350 -0.1839
  143SAPE   HN215613   5.943   3.247  10.749  2.1101  0.3410  0.2342
  143SAPE   HN315614   6.023   3.373  10.827 -1.3091  3.4598  0.4764
  143SAPE   C1215615   5.886   3.440  10.693  0.3047  0.6355 -0.0715
  143SAPE  H12A15616   5.791   3.411  10.644  1.1871  0.4633 -1.7250
  143SAPE  H12B15617   5.964   3.454  10.614 -0.0675  0.3719 -0.4919
  143SAPE   C1115618   5.864   3.582  10.752  0.4287 -0.1243 -0.4391
  143SAPE  H11A15619   5.789   3.562  10.831  0.1600 -0.2737 -0.7317
  143SAPE  H11B15620   5.822   3.651  10.675  0.7371 -0.8205 -1.2295
  143SAPE     P15621   6.039   3.760  10.839  0.2361  0.3899  0.0661
  143SAPE   O1315622   5.995   3.799  10.973 -0.0243  0.2460 -0.0944
  143SAPE   O1415623   6.184   3.768  10.810 -0.3893 -0.2311  0.3898
  143SAPE   O1215624   5.989   3.610  10.808 -0.6791  0.8116 -0.1597
  143SAPE   O1115625   5.960   3.841  10.733  0.0589  0.9734 -0.2888
  143SAPE    C115626   5.969   3.981  10.724  0.2778 -0.2461 -0.4094
  143SAPE    HA15627   5.876   4.028  10.762  0.0712 -1.2575  0.3301
  143SAPE    HB15628   6.051   4.024  10.785  0.4514 -0.4368 -0.5099
  143SAPE    C215629   6.003   4.021  10.573  0.0373  0.3555 -0.4499
  143SAPE    HS15630   6.038   4.126  10.584 -4.1890  1.7253  0.7497
  143SAPE   O2115631   5.897   3.992  10.482  1.0036  0.1931 -0.4959
  143SAPE   C2115632   5.803   4.079  10.482  0.0147  0.1520 -0.2429
  143SAPE   O2215633   5.800   4.175  10.562  0.3077  0.6185 -0.1697
  143SAPE   C2215634   5.707   4.057  10.376  0.2679 -0.6457 -0.4815
  143SAPE   H2R15635   5.707   3.952  10.340 -0.6700 -0.5582 -0.7481
  143SAPE   H2S15636   5.603   4.076  10.412 -0.1061 -1.1521 -1.2676
  143SAPE    C315637   6.134   3.951  10.521  0.3817  0.0552  0.0469
  143SAPE    HX15638   6.117   3.842  10.524  0.5958 -0.0731 -2.3829
  143SAPE    HY15639   6.215   3.970  10.595  0.6514 -1.0640  0.0441
  143SAPE   O3115640   6.176   3.989  10.390 -0.3549 -0.3123  0.0941
  143SAPE   C3115641   6.229   3.898  10.313  0.0304  0.5738 -0.1288
  143SAPE   O3215642   6.254   3.783  10.348  0.6834 -0.1666  0.2142
  143SAPE   C3215643   6.248   3.952  10.175 -0.3387 -0.0934  0.1083
  143SAPE   H2X15644   6.319   4.038  10.182  0.4101 -0.9204  3.8347
  143SAPE   H2Y15645   6.146   3.975  10.135 -0.4530 -2.3192 -0.9233
  143SAPE   C2315646   5.739   4.145  10.250  0.3173 -0.2187 -0.4140
  143SAPE   H3R15647   5.749   4.251  10.282  0.6647 -0.6011  0.7980
  143SAPE   H3S15648   5.658   4.125  10.177  1.3146 -4.0939 -0.5967
  143SAPE   C2415649   5.866   4.092  10.177  0.3637 -0.9159 -0.3194
  143SAPE   H4R15650   5.889   3.986  10.200 -2.4461 -1.8728 -1.7493
  143SAPE   H4S15651   5.947   4.152  10.225  1.0289 -1.4330 -0.7815
  143SAPE   C2515652   5.877   4.127  10.032 -0.2308 -0.5874 -0.3492
  143SAPE   H5R15653   5.931   4.217  10.001  1.5374 -1.1403  1.0223
  143SAPE   C2615654   5.833   4.045   9.934  0.6243 -0.4488  0.1650
  143SAPE   H6R15655   5.840   4.081   9.830 -0.2110 -0.6760  0.0225
  143SAPE   C2715656   5.745   3.920   9.966 -0.0179 -0.6474 -0.2417
  143SAPE   H7R15657   5.773   3.878  10.065  0.7583  0.2452 -0.0635
  143SAPE   H7S15658   5.778   3.849   9.887  0.3346 -1.4156  0.5931
  143SAPE   C2815659   5.597   3.948   9.961 -0.1540 -0.5349  0.7060
  143SAPE   H8R15660   5.566   4.052   9.942 -2.8171 -1.2629  0.8002
  143SAPE   C2915661   5.500   3.852   9.966 -0.6676 -0.3319 -0.1065
  143SAPE   H9R15662   5.396   3.886   9.956 -1.1847 -2.0411 -0.6580
  143SAPE  C21015663   5.524   3.706   9.985 -0.2008  0.6790  0.3479
  143SAPE  H10R15664   5.459   3.668  10.067 -0.4042  0.4857  0.0970
  143SAPE  H10S15665   5.625   3.680  10.021  1.1697  2.2648 -2.1782
  143SAPE  C21115666   5.501   3.636   9.849  0.2994 -0.3235 -0.4073
  143SAPE  H11R15667   5.404   3.663   9.804 -0.1589  0.6090  1.1201
  143SAPE  C21215668   5.579   3.548   9.785 -0.1531 -0.0231 -0.4573
  143SAPE  H12R15669   5.540   3.491   9.700 -4.0752 -2.3281  2.6861
  143SAPE  C21315670   5.713   3.509   9.846  0.0320 -0.5495 -0.0616
  143SAPE  H13R15671   5.707   3.463   9.947  0.9961 -1.1374 -0.2668
  143SAPE  H13S15672   5.773   3.602   9.856 -0.6707  0.0291 -1.1887
  143SAPE  C21415673   5.789   3.429   9.742 -0.0134 -0.0552 -0.6358
  143SAPE  H14R15674   5.836   3.493   9.666  0.6180 -1.1076 -1.1430
  143SAPE  C21515675   5.816   3.293   9.739  0.4574  0.9274  0.3721
  143SAPE  H15R15676   5.878   3.262   9.653  0.8275  0.9698  0.6205
  143SAPE  C21615677   5.756   3.186   9.832 -0.7562 -0.0805  0.1355
  143SAPE  H16R15678   5.710   3.233   9.920 -1.6460 -1.0746  0.2125
  143SAPE  H16S15679   5.840   3.120   9.865  0.5980  0.5281 -1.9741
  143SAPE  C21715680   5.655   3.086   9.786 -0.7771  0.0253  0.1526
  143SAPE  H17R15681   5.567   3.143   9.751  1.6094  1.8043 -3.2839
  143SAPE  H17S15682   5.633   3.027   9.877  0.8372 -1.1972 -0.2228
  143SAPE  C21815683   5.698   2.992   9.672 -0.5692 -0.4909  0.0095
  143SAPE  H18R15684   5.788   2.940   9.711  1.0674  1.4519 -1.1357
  143SAPE  H18S15685   5.731   3.060   9.591 -0.6763  0.7109  0.9694
  143SAPE  C21915686   5.588   2.895   9.633 -0.0156  0.2972 -0.8905
  143SAPE  H19R15687   5.492   2.950   9.622 -0.2475  0.1246  0.2013
  143SAPE  H19S15688   5.578   2.832   9.724 -0.6743  0.8967 -0.5356
  143SAPE  C22015689   5.609   2.822   9.496 -0.3152 -0.5464  0.3700
  143SAPE  H20R15690   5.522   2.759   9.468  0.7536 -2.4698  1.2750
  143SAPE  H20S15691   5.705   2.767   9.491 -0.7206 -1.1995 -0.1943
  143SAPE  H20T15692   5.619   2.899   9.416  0.6939 -1.2042 -0.1375
  143SAPE   C3315693   6.315   3.850  10.076  0.4623 -0.3218 -0.4793
  143SAPE   H3X15694   6.234   3.777  10.052  0.2957 -0.0075 -0.8789
  143SAPE   H3Y15695   6.389   3.794  10.137 -1.3476 -0.8743  1.2804
  143SAPE   C3415696   6.374   3.906   9.949 -0.4628 -0.1486 -0.1410
  143SAPE   H4X15697   6.433   3.823   9.906  0.3074 -1.0521  2.5944
  143SAPE   H4Y15698   6.443   3.990   9.975  2.9768 -2.6653 -0.8189
  143SAPE   C3515699   6.276   3.957   9.838  0.8317  0.0247 -0.3486
  143SAPE   H5X15700   6.208   4.030   9.886  0.4099 -0.6391  0.0699
  143SAPE   H5Y15701   6.205   3.872   9.830  2.3685 -1.6333  2.5053
  143SAPE   C3615702   6.344   4.006   9.708  0.0866 -0.1514  0.6786
  143SAPE   H6X15703   6.396   3.923   9.655 -1.3099 -0.0557 -0.8601
  143SAPE   H6Y15704   6.424   4.079   9.734 -0.1864  0.5846 -0.4824
  143SAPE   C3715705   6.234   4.065   9.620 -0.6266  0.2906  0.2868
  143SAPE   H7X15706   6.279   4.117   9.533 -1.1138  1.8984  0.9792
  143SAPE   H7Y15707   6.194   4.147   9.682 -0.7626  1.1378 -0.9098
  143SAPE   C3815708   6.127   3.968   9.587 -0.0930 -0.3086 -0.1200
  143SAPE   H8X15709   6.064   3.934   9.672  2.4750  0.5180  2.1768
  143SAPE   H8Y15710   6.170   3.870   9.556 -0.3237 -0.2111 -0.7543
  143SAPE   C3915711   6.024   4.008   9.479 -0.0869 -0.3255  0.2629
  143SAPE   H9X15712   6.072   4.023   9.380 -0.9066 -1.1881 -0.2672
  143SAPE   H9Y15713   5.975   4.102   9.514  1.5193  1.1339 -1.3027
  143SAPE  C31015714   5.910   3.905   9.458 -0.6878  0.2982  0.3486
  143SAPE  H10X15715   5.952   3.805   9.480 -2.4431 -0.8259 -1.2620
  143SAPE  H10Y15716   5.879   3.893   9.352 -0.1106  2.3604 -0.0690
  143SAPE  C31115717   5.792   3.931   9.560 -0.6101 -0.6989 -0.0982
  143SAPE  H11X15718   5.737   4.026   9.540  0.3377 -0.1057  0.1332
  143SAPE  H11Y15719   5.830   3.929   9.664  3.9180 -3.4192 -1.6847
  143SAPE  C31215720   5.685   3.825   9.555  0.1888 -0.6605 -0.2117
  143SAPE  H12X15721   5.635   3.817   9.654 -0.1998  3.6148  0.0375
  143SAPE  H12Y15722   5.734   3.728   9.533 -1.9826 -2.3560  2.0514
  143SAPE  C31315723   5.592   3.856   9.441  0.2758  0.1972  0.5507
  143SAPE  H13X15724   5.648   3.842   9.347  0.0553 -0.9785  0.5901
  143SAPE  H13Y15725   5.560   3.963   9.436 -1.2576 -0.3208 -1.5965
  143SAPE  C31415726   5.465   3.762   9.440  0.8459 -0.2020 -0.1008
  143SAPE  H14X15727   5.394   3.786   9.521  0.6551 -1.9123  0.2492
  143SAPE  H14Y15728   5.501   3.664   9.478 -0.7215 -1.7792 -2.5169
  143SAPE  C31515729   5.407   3.736   9.304 -0.4565 -0.4486 -0.1387
  143SAPE  H15X15730   5.494   3.707   9.240  1.0856  0.9196  1.2750
  143SAPE  H15Y15731   5.362   3.827   9.259 -2.0752 -1.0275  0.2695
  143SAPE  C31615732   5.291   3.632   9.315  0.0643  1.0322 -0.2090
  143SAPE  H16X15733   5.201   3.682   9.358 -0.3367  0.2790 -0.1477
  143SAPE  H16Y15734   5.328   3.558   9.389 -1.7727  0.0277 -0.2587
  143SAPE  C31715735   5.254   3.551   9.191 -0.4851  0.2420  0.8281
  143SAPE  H17X15736   5.172   3.480   9.217  0.0106 -0.3625  0.7563
  143SAPE  H17Y15737   5.341   3.490   9.158 -0.1728  1.8552 -1.4765
  143SAPE  C31815738   5.218   3.639   9.072 -0.2646 -0.4383 -0.0305
  143SAPE  H18X15739   5.305   3.691   9.027  0.6359 -0.2060  1.9119
  143SAPE  H18Y15740   5.152   3.724   9.102  0.0773 -0.3680  0.5235
  143SAPE  H18Z15741   5.169   3.577   8.994 -1.0951  0.4360 -0.2197
  144SAPE     N15742   2.058   1.259  10.680 -0.6530  0.3340  0.0800
  144SAPE   HN115743   2.120   1.286  10.600  0.4989  0.1318  0.8941
  144SAPE   HN215744   2.066   1.156  10.690 -2.8341  0.0832 -0.5598
  144SAPE   HN315745   1.958   1.280  10.658 -1.1409 -0.6542  1.3184
  144SAPE   C1215746   2.105   1.317  10.805 -0.8236  0.8956  0.0933
  144SAPE  H12A15747   2.168   1.248  10.866  0.0734  2.2332  0.7119
  144SAPE  H12B15748   2.014   1.342  10.862 -1.0243  1.9478 -0.6543
  144SAPE   C1115749   2.181   1.451  10.792 -0.1818  0.2833 -0.2708
  144SAPE  H11A15750   2.212   1.493  10.890 -0.8997 -3.1015  1.4712
  144SAPE  H11B15751   2.115   1.520  10.734  1.7419  0.9019 -1.7634
  144SAPE     P15752   2.454   1.408  10.737 -0.3685  0.4824 -0.3975
  144SAPE   O1315753   2.482   1.423  10.882 -0.4595  0.0943  0.2799
  144SAPE   O1415754   2.501   1.281  10.671  0.1080 -0.2388  0.5887
  144SAPE   O1215755   2.295   1.418  10.718 -0.1941  0.1616  0.3360
  144SAPE   O1115756   2.514   1.538  10.668 -0.2427 -0.4274 -0.2439
  144SAPE    C115757   2.462   1.571  10.535  0.3018  0.1773  0.5473
  144SAPE    HA15758   2.424   1.483  10.479  1.1230 -2.1525  3.5603
  144SAPE    HB15759   2.376   1.638  10.555 -0.2596 -0.6280  0.8032
  144SAPE    C215760   2.572   1.647  10.450  0.6119 -0.1713 -0.3865
  144SAPE    HS15761   2.535   1.638  10.345 -0.7062 -0.0090  0.0524
  144SAPE   O2115762   2.696   1.590  10.471 -0.4492  0.3065 -0.5820
  144SAPE   C2115763   2.717   1.479  10.406 -0.4037 -0.1857 -0.0593
  144SAPE   O2215764   2.637   1.420  10.334 -0.5912 -0.1804 -0.1337
  144SAPE   C2215765   2.861   1.433  10.426  0.2374 -0.2026 -0.7304
  144SAPE   H2R15766   2.902   1.510  10.495  1.1399 -0.4930 -0.9283
  144SAPE   H2S15767   2.860   1.336  10.480 -0.0332  0.9153  1.3207
  144SAPE    C315768   2.581   1.806  10.473  0.3930 -0.1034 -0.1047
  144SAPE    HX15769   2.677   1.833  10.424  0.6127 -2.2501 -0.9416
  144SAPE    HY15770   2.588   1.825  10.582 -1.0270 -2.8382  0.5176
  144SAPE   O3115771   2.460   1.875  10.434 -0.4719 -0.4165  0.1429
  144SAPE   C3115772   2.474   2.002  10.389 -0.1425 -0.3546 -0.1375
  144SAPE   O3215773   2.578   2.061  10.383 -0.3419 -0.2054 -0.6023
  144SAPE   C3215774   2.339   2.048  10.341 -0.1279  0.2691  0.0373
  144SAPE   H2X15775   2.315   2.141  10.396  0.6995 -0.3794  1.5218
  144SAPE   H2Y15776   2.261   1.976  10.372  1.7586 -0.9866  2.0458
  144SAPE   C2315777   2.935   1.444  10.293  0.4158 -0.5749  0.8459
  144SAPE   H3R15778   2.888   1.383  10.213  0.3960 -0.2935  0.6442
  144SAPE   H3S15779   3.039   1.408  10.306  0.4564 -0.5357  0.6300
  144SAPE   C2415780   2.939   1.594  10.254 -0.3831  0.1527  0.0062
  144SAPE   H4R15781   2.837   1.627  10.224 -0.5741 -0.3538  0.0952
  144SAPE   H4S15782   2.988   1.607  10.155  0.6331  1.4317  0.6699
  144SAPE   C2515783   3.009   1.702  10.330 -0.2096 -0.0131 -0.6124
  144SAPE   H5R15784   3.070   1.667  10.415 -0.7419 -1.2846 -0.7410
  144SAPE   C2615785   2.997   1.839  10.317  0.4066  0.0455 -0.5511
  144SAPE   H6R15786   3.055   1.904  10.384  1.3340 -1.0553 -0.2660
  144SAPE   C2715787   2.910   1.922  10.219 -0.1483 -0.0008  0.6467
  144SAPE   H7R15788   2.826   1.956  10.283 -1.2203  0.2232 -0.8688
  144SAPE   H7S15789   2.870   1.857  10.138 -0.4163  1.6552 -0.5631
  144SAPE   C2815790   2.982   2.049  10.166  0.4053 -0.1815 -0.4688
  144SAPE   H8R15791   2.999   2.129  10.240 -0.9138  0.0907 -0.4404
  144SAPE   C2915792   3.011   2.066  10.035 -0.5058  0.0414 -0.0336
  144SAPE   H9R15793   3.062   2.158  10.003  1.0438 -0.6467  0.4253
  144SAPE  C21015794   3.003   1.962   9.923  0.2549  0.4319  0.4976
  144SAPE  H10R15795   3.028   1.864   9.968  1.7949 -0.2512 -1.7311
  144SAPE  H10S15796   3.089   1.986   9.857  0.2135  0.1810  0.3515
  144SAPE  C21115797   2.873   1.970   9.845 -0.1444 -0.2046  0.1188
  144SAPE  H11R15798   2.859   2.064   9.792 -1.3536  0.2265  1.1726
  144SAPE  C21215799   2.791   1.859   9.834  0.6876  0.7752  0.0891
  144SAPE  H12R15800   2.702   1.873   9.770  1.1939 -0.0203 -0.8140
  144SAPE  C21315801   2.809   1.721   9.897  0.4147  0.4780  0.4936
  144SAPE  H13R15802   2.718   1.703   9.957 -0.4660  1.8720 -0.3825
  144SAPE  H13S15803   2.897   1.715   9.965 -0.0056 -1.5958  0.8816
  144SAPE  C21415804   2.822   1.610   9.794 -0.2460  0.3241  0.3748
  144SAPE  H14R15805   2.843   1.634   9.689 -1.5994  0.5412  0.1354
  144SAPE  C21515806   2.802   1.475   9.822  0.7871 -0.2504 -0.7477
  144SAPE  H15R15807   2.795   1.410   9.733  2.0398 -1.3859 -0.0267
  144SAPE  C21615808   2.766   1.420   9.960  0.5182  0.1299  0.2108
  144SAPE  H16R15809   2.755   1.502  10.033 -0.8980  1.6551 -1.6718
  144SAPE  H16S15810   2.848   1.351   9.991 -0.8716 -2.1696 -1.0530
  144SAPE  C21715811   2.634   1.345   9.959 -0.6214 -0.4803  0.8067
  144SAPE  H17R15812   2.562   1.391   9.888  1.4099  0.7822 -0.4764
  144SAPE  H17S15813   2.589   1.358  10.060 -0.7027  0.4896  0.6546
  144SAPE  C21815814   2.661   1.197   9.932 -0.4701  0.1643  0.0964
  144SAPE  H18R15815   2.732   1.163  10.010 -0.9323  0.4764  0.6610
  144SAPE  H18S15816   2.698   1.183   9.829  2.3452  0.7680  0.9802
  144SAPE  C21915817   2.535   1.116   9.956 -0.3074 -0.1561 -0.4221
  144SAPE  H19R15818   2.463   1.154   9.879  0.8458  0.8942 -0.9990
  144SAPE  H19S15819   2.478   1.145  10.047 -0.0756 -1.2894  0.0920
  144SAPE  C22015820   2.545   0.961   9.952  0.0313 -0.5909 -0.1091
  144SAPE  H20R15821   2.448   0.924   9.992 -0.6473 -0.8231 -1.9138
  144SAPE  H20S15822   2.628   0.935  10.021 -0.1862  0.8559  0.7126
  144SAPE  H20T15823   2.570   0.915   9.854 -0.1469 -0.6517 -0.1239
  144SAPE   C3315824   2.340   2.068  10.186 -0.4168 -0.3091 -0.0950
  144SAPE   H3X15825   2.372   1.972  10.140 -0.4669 -2.8177  4.7634
  144SAPE   H3Y15826   2.420   2.136  10.148 -1.3445  0.2476 -1.0540
  144SAPE   C3415827   2.204   2.108  10.136  0.5270  1.1047  0.3666
  144SAPE   H4X15828   2.150   2.169  10.211 -1.2995  0.9883 -0.8178
  144SAPE   H4Y15829   2.143   2.015  10.138  0.4431  1.1707  1.0236
  144SAPE   C3515830   2.207   2.194  10.006  0.7717 -0.0302  0.5509
  144SAPE   H5X15831   2.260   2.149   9.919  1.1228 -1.4282  1.4724
  144SAPE   H5Y15832   2.260   2.289  10.031 -0.7193  1.1532 -0.6653
  144SAPE   C3615833   2.057   2.232   9.968  0.8268  0.0366 -0.5938
  144SAPE   H6X15834   2.053   2.335   9.926 -1.8325  0.0061 -0.5006
  144SAPE   H6Y15835   2.000   2.244  10.062 -0.6259  2.0401 -1.6844
  144SAPE   C3715836   1.979   2.128   9.883  0.5031  0.4482 -0.3576
  144SAPE   H7X15837   1.872   2.155   9.890  0.2307 -0.7499  0.3235
  144SAPE   H7Y15838   1.988   2.026   9.927  1.3764 -0.4239 -2.4861
  144SAPE   C3815839   2.039   2.122   9.745 -0.4332 -0.3839  0.0889
  144SAPE   H8X15840   2.145   2.088   9.750 -0.7987 -1.2129  2.3695
  144SAPE   H8Y15841   2.049   2.224   9.701  1.0056 -0.0083  1.2500
  144SAPE   C3915842   1.964   2.020   9.661 -0.5803  0.0425  0.3431
  144SAPE   H9X15843   1.861   2.059   9.651 -0.6818 -0.6238 -1.4584
  144SAPE   H9Y15844   1.962   1.927   9.722 -2.1898  1.6570  2.8203
  144SAPE  C31015845   2.010   1.993   9.515 -0.3513 -0.1813  0.3444
  144SAPE  H10X15846   1.976   1.890   9.491  0.7990 -0.6831  0.8400
  144SAPE  H10Y15847   2.118   1.972   9.528 -0.1314  1.8948  2.1524
  144SAPE  C31115848   1.963   2.098   9.415 -0.1714 -0.5526  0.3771
  144SAPE  H11X15849   2.033   2.184   9.416 -0.4658 -0.3029 -0.1132
  144SAPE  H11Y15850   1.862   2.141   9.434 -0.6101 -0.9883 -0.9198
  144SAPE  C31215851   1.964   2.048   9.271  0.3850 -0.4753  0.3741
  144SAPE  H12X15852   1.894   1.963   9.262 -1.8443  1.6238 -3.5114
  144SAPE  H12Y15853   2.065   2.007   9.249 -0.7169 -2.3961 -1.1873
  144SAPE  C31315854   1.924   2.164   9.169 -0.4413  0.2884  0.6863
  144SAPE  H13X15855   1.993   2.247   9.191 -0.8905  0.6538  0.7305
  144SAPE  H13Y15856   1.824   2.201   9.200 -0.3154  1.9368 -0.7984
  144SAPE  C31415857   1.915   2.107   9.023 -0.1339 -0.0915 -1.0153
  144SAPE  H14X15858   2.009   2.050   9.007 -0.0535 -0.8274  1.9253
  144SAPE  H14Y15859   1.916   2.194   8.954  0.8182  0.4286 -0.3594
  144SAPE  C31515860   1.804   2.011   8.984  0.2453 -0.1769 -0.3862
  144SAPE  H15X15861   1.703   2.051   9.008  0.3779  1.3573 -2.2291
  144SAPE  H15Y15862   1.812   1.924   9.052 -1.6257 -0.1304 -0.0935
  144SAPE  C31615863   1.818   1.968   8.841 -0.2392 -0.0868 -0.2108
  144SAPE  H16X15864   1.923   1.933   8.830 -0.1769  0.7553 -2.5778
  144SAPE  H16Y15865   1.805   2.052   8.769 -1.1218  1.5954  1.8661
  144SAPE  C31715866   1.712   1.865   8.803  0.2171  0.2771  0.0830
  144SAPE  H17X15867   1.612   1.908   8.826 -0.4075 -1.6484  1.0834
  144SAPE  H17Y15868   1.711   1.773   8.865  1.1710 -0.4200 -0.9245
  144SAPE  C31815869   1.714   1.835   8.650 -0.5938  0.0819 -0.6098
  144SAPE  H18X15870   1.810   1.787   8.622  0.0035  0.2853  1.0724
  144SAPE  H18Y15871   1.705   1.928   8.590 -1.0961  0.7841  0.5433
  144SAPE  H18Z15872   1.618   1.781   8.632 -1.6721  2.1125 -1.0666
  145SAPE     N15873   6.673   3.259  11.057 -0.1146  0.3043 -0.3907
  145SAPE   HN115874   6.743   3.258  11.133  1.6341  0.8748 -1.9375
  145SAPE   HN215875   6.717   3.212  10.974  1.9521  0.2263  0.7112
  145SAPE   HN315876   6.647   3.359  11.044 -0.4857  0.1673 -0.7099
  145SAPE   C1215877   6.549   3.197  11.100 -1.0419  0.2702  0.3269
  145SAPE  H12A15878   6.511   3.257  11.186  0.3593  0.9757  0.4760
  145SAPE  H12B15879   6.567   3.090  11.126 -1.0392  0.4499  1.0759
  145SAPE   C1115880   6.448   3.208  10.992  0.8235 -0.4342  0.0518
  145SAPE  H11A15881   6.466   3.133  10.912 -0.6476  0.1253 -0.8247
  145SAPE  H11B15882   6.449   3.307  10.943 -0.2829 -0.5263 -0.1628
  145SAPE     P15883   6.245   3.079  11.121 -0.1353  0.0457  0.0628
  145SAPE   O1315884   6.324   3.027  11.236 -0.0396 -0.0414  0.0608
  145SAPE   O1415885   6.102   3.107  11.149  0.1709  0.1182 -0.0754
  145SAPE   O1215886   6.314   3.201  11.050 -0.4397  0.4056 -0.1305
  145SAPE   O1115887   6.245   2.964  11.006 -0.8060  0.0035  0.1820
  145SAPE    C115888   6.145   2.948  10.907 -1.1694 -0.2504 -0.1439
  145SAPE    HA15889   6.047   2.970  10.953 -1.0092 -0.2244  0.1918
  145SAPE    HB15890   6.167   3.021  10.827 -0.1095  2.1082  2.1959
  145SAPE    C215891   6.146   2.805  10.856 -0.1708 -0.1834  0.2102
  145SAPE    HS15892   6.126   2.742  10.945  1.1196 -1.7687 -0.6042
  145SAPE   O2115893   6.272   2.768  10.795  0.6530 -1.1308  0.3977
  145SAPE   C2115894   6.297   2.631  10.792  0.2650 -0.4471 -0.0966
  145SAPE   O2215895   6.229   2.547  10.847  0.2451 -0.0758 -0.7334
  145SAPE   C2215896   6.430   2.608  10.724 -0.5592  0.3049 -0.1845
  145SAPE   H2R15897   6.417   2.652  10.623  0.7462 -0.3910 -0.6697
  145SAPE   H2S15898   6.501   2.674  10.777  1.5857 -1.1724 -1.1359
  145SAPE    C315899   6.028   2.796  10.756 -0.6122 -0.1206 -0.3097
  145SAPE    HX15900   5.940   2.845  10.803 -1.0041 -0.1219 -1.0388
  145SAPE    HY15901   5.995   2.692  10.738 -3.4009  0.9867 -1.8007
  145SAPE   O3115902   6.061   2.861  10.631  0.0803 -0.2127  0.0030
  145SAPE   C3115903   6.080   2.790  10.522  0.3797  0.4471 -0.6034
  145SAPE   O3215904   6.077   2.669  10.510 -0.3759 -0.4756  0.1931
  145SAPE   C3215905   6.085   2.899  10.408 -0.0313 -0.6795 -0.2957
  145SAPE   H2X15906   6.166   2.970  10.436  0.5964 -2.2292  1.9245
  145SAPE   H2Y15907   5.987   2.951  10.399 -1.2550 -2.8271  0.4432
  145SAPE   C2315908   6.477   2.460  10.726 -0.6747  0.4319 -1.1027
  145SAPE   H3R15909   6.453   2.409  10.822 -0.3896 -0.1279 -1.3255
  145SAPE   H3S15910   6.588   2.458  10.722 -0.7299  0.3406 -2.5688
  145SAPE   C2415911   6.425   2.371  10.608  0.7084  0.7767 -0.8622
  145SAPE   H4R15912   6.477   2.273  10.613 -2.2192 -0.7501  1.9191
  145SAPE   H4S15913   6.460   2.406  10.509  2.1049  2.4244  0.2058
  145SAPE   C2515914   6.278   2.341  10.595 -0.4469 -0.4418 -1.0891
  145SAPE   H5R15915   6.224   2.344  10.690  0.8941 -3.0657 -0.1853
  145SAPE   C2615916   6.211   2.332  10.478  0.3190 -0.0644  0.2470
  145SAPE   H6R15917   6.108   2.295  10.473  0.9207 -1.6242 -1.1341
  145SAPE   C2715918   6.280   2.330  10.338  0.7038  0.0036 -0.1167
  145SAPE   H7R15919   6.216   2.278  10.264 -0.1374 -0.4134  0.8864
  145SAPE   H7S15920   6.379   2.278  10.341  0.9460  0.5085  1.3820
  145SAPE   C2815921   6.297   2.475  10.288  0.3325  0.1172 -0.3032
  145SAPE   H8R15922   6.333   2.544  10.365 -0.9750 -1.2879  1.6381
  145SAPE   C2915923   6.285   2.521  10.159  0.3236 -0.5372  0.7813
  145SAPE   H9R15924   6.307   2.626  10.135  0.2111 -0.5959  0.4256
  145SAPE  C21015925   6.235   2.441  10.047 -0.1674 -0.6764 -0.6077
  145SAPE  H10R15926   6.167   2.363  10.087 -0.4093  0.7301  1.8030
  145SAPE  H10S15927   6.322   2.386  10.004  0.6054 -1.3532  1.7610
  145SAPE  C21115928   6.171   2.514   9.930 -0.5025 -0.1541 -0.5888
  145SAPE  H11R15929   6.096   2.590   9.956 -1.6057 -2.0475  2.0268
  145SAPE  C21215930   6.198   2.499   9.802  0.5921  0.1973  0.6737
  145SAPE  H12R15931   6.146   2.561   9.726  1.5317 -2.5210 -2.2919
  145SAPE  C21315932   6.298   2.401   9.738  0.0951  0.2334  0.1059
  145SAPE  H13R15933   6.323   2.315   9.804 -1.5718  0.6513  1.3191
  145SAPE  H13S15934   6.390   2.459   9.717  0.2011  0.3646  0.9083
  145SAPE  C21415935   6.233   2.341   9.612  0.1102  0.1120 -0.8321
  145SAPE  H14R15936   6.208   2.237   9.638  0.0837  0.2892 -0.1617
  145SAPE  C21515937   6.230   2.401   9.494  0.1791 -0.0092  0.1394
  145SAPE  H15R15938   6.200   2.339   9.408  0.1458 -0.5834  0.5633
  145SAPE  C21615939   6.295   2.538   9.467 -1.1073  0.6787  0.0030
  145SAPE  H16R15940   6.394   2.517   9.421 -0.9570 -0.1425  0.7001
  145SAPE  H16S15941   6.323   2.602   9.554 -0.7167 -0.6036  0.8235
  145SAPE  C21715942   6.221   2.632   9.382 -0.0834 -0.7984  0.2166
  145SAPE  H17R15943   6.291   2.693   9.320 -1.7371 -0.9242 -1.8656
  145SAPE  H17S15944   6.162   2.702   9.445 -1.4698 -1.6845 -0.0707
  145SAPE  C21815945   6.124   2.570   9.279 -0.0196  0.3567 -0.3738
  145SAPE  H18R15946   6.032   2.530   9.325  0.4668 -0.6408 -0.2617
  145SAPE  H18S15947   6.171   2.489   9.219  0.8117  0.3499  0.2788
  145SAPE  C21915948   6.073   2.671   9.180 -0.1358  0.0379  0.1238
  145SAPE  H19R15949   6.161   2.714   9.128  0.6916 -0.6200  0.9735
  145SAPE  H19S15950   6.020   2.745   9.244 -2.9496 -2.5690  0.9455
  145SAPE  C22015951   5.980   2.610   9.080  0.1274  0.2597  0.1214
  145SAPE  H20R15952   5.899   2.549   9.125  1.4141 -0.9878  0.7799
  145SAPE  H20S15953   6.035   2.544   9.010  0.8122  1.3305 -0.3592
  145SAPE  H20T15954   5.923   2.681   9.018  0.6837 -0.7854 -1.6283
  145SAPE   C3315955   6.120   2.853  10.272  0.5795  0.2225 -0.4168
  145SAPE   H3X15956   6.026   2.811  10.228  0.9224  0.1531 -1.0926
  145SAPE   H3Y15957   6.200   2.776  10.281 -0.4717 -0.7063  1.3504
  145SAPE   C3415958   6.162   2.966  10.180  0.4545  0.1511  0.2244
  145SAPE   H4X15959   6.237   3.031  10.230 -0.3463  2.0905 -1.0581
  145SAPE   H4Y15960   6.075   3.032  10.161  0.8504  0.4795 -0.4950
  145SAPE   C3515961   6.195   2.909  10.045  0.0679  0.3153 -0.2969
  145SAPE   H5X15962   6.119   2.833  10.015 -1.7386  1.7093  0.6248
  145SAPE   H5Y15963   6.288   2.851  10.064 -0.9848 -0.6612  2.1405
  145SAPE   C3615964   6.202   3.021   9.943 -0.1971  0.0203 -0.0097
  145SAPE   H6X15965   6.288   3.091   9.958 -0.1465 -0.3907  1.7995
  145SAPE   H6Y15966   6.122   3.098   9.945  1.8286  2.2041 -0.8710
  145SAPE   C3715967   6.190   2.959   9.802  0.7150  0.2892  0.4874
  145SAPE   H7X15968   6.087   2.922   9.789  0.3225  1.2393  0.8672
  145SAPE   H7Y15969   6.251   2.867   9.789 -2.1185 -1.3481 -1.6672
  145SAPE   C3815970   6.214   3.053   9.683 -0.1822  0.0859  0.1920
  145SAPE   H8X15971   6.321   3.079   9.682 -0.3616  0.8191 -0.4616
  145SAPE   H8Y15972   6.145   3.140   9.690 -1.9911 -1.3873  1.2468
  145SAPE   C3915973   6.191   2.979   9.544 -0.3851  0.3864  0.2374
  145SAPE   H9X15974   6.093   2.927   9.549 -0.0910 -0.0510  1.4618
  145SAPE   H9Y15975   6.260   2.892   9.539 -0.4086  0.4416 -1.1760
  145SAPE  C31015976   6.186   3.079   9.430  0.3711  0.7230 -0.5193
  145SAPE  H10X15977   6.268   3.150   9.451 -0.9201  2.5165 -1.3890
  145SAPE  H10Y15978   6.090   3.133   9.442 -1.1799 -2.2609  1.2922
  145SAPE  C31115979   6.198   3.016   9.297 -0.7431 -0.2410 -0.4455
  145SAPE  H11X15980   6.115   2.944   9.282 -0.1847 -0.7757 -1.0320
  145SAPE  H11Y15981   6.293   2.958   9.292 -1.2355 -1.0335 -0.7230
  145SAPE  C31215982   6.196   3.127   9.189  0.4630 -0.2678  0.3955
  145SAPE  H12X15983   6.274   3.203   9.211 -1.1182  1.1463  1.2211
  145SAPE  H12Y15984   6.090   3.162   9.191  0.7248  0.4448  1.4947
  145SAPE  C31315985   6.217   3.052   9.052 -0.2718  0.0943 -0.2711
  145SAPE  H13X15986   6.138   2.977   9.031  0.1254 -0.2333 -0.6061
  145SAPE  H13Y15987   6.312   2.994   9.048 -0.0623  0.3526  0.7544
  145SAPE  C31415988   6.234   3.163   8.944 -0.4548  0.1730  0.1214
  145SAPE  H14X15989   6.268   3.108   8.853 -0.5730 -0.5010  0.4822
  145SAPE  H14Y15990   6.310   3.240   8.967  0.3041 -0.6219  0.3194
  145SAPE  C31515991   6.102   3.217   8.903  0.0274  0.2009 -0.4880
  145SAPE  H15X15992   6.049   3.275   8.981 -3.3611  0.1947 -2.6923
  145SAPE  H15Y15993   6.049   3.121   8.887  1.2707 -0.3982 -1.1327
  145SAPE  C31615994   6.103   3.286   8.761  0.5669  0.1886  0.0829
  145SAPE  H16X15995   6.005   3.289   8.709  0.0310  1.1030  1.1436
  145SAPE  H16Y15996   6.174   3.229   8.696 -0.1645  1.5214 -1.9224
  145SAPE  C31715997   6.165   3.422   8.759 -0.2863  0.5562 -0.4695
  145SAPE  H17X15998   6.215   3.434   8.661  0.4919 -0.3310 -0.1976
  145SAPE  H17Y15999   6.247   3.434   8.833 -0.5318  3.4289 -0.6207
  145SAPE  C31816000   6.062   3.534   8.788  0.5074 -0.7367 -0.4152
  145SAPE  H18X16001   6.084   3.635   8.747  0.5055 -0.7048 -0.3379
  145SAPE  H18Y16002   6.038   3.535   8.896  0.1535  0.2586 -0.5002
  145SAPE  H18Z16003   5.971   3.516   8.726 -1.5221 -1.3311  2.6226
  146SAPE     N16004   3.430   1.475  10.660 -0.8720 -0.4920  0.3108
  146SAPE   HN116005   3.467   1.388  10.618  2.0467 -0.1445  2.0438
  146SAPE   HN216006   3.327   1.461  10.666 -1.0041 -0.1130 -0.8263
  146SAPE   HN316007   3.462   1.554  10.600  1.5649 -0.8035  1.1409
  146SAPE   C1216008   3.476   1.493  10.802  0.0793 -0.4213 -0.0595
  146SAPE  H12A16009   3.587   1.500  10.806  0.0386 -0.1055  0.6982
  146SAPE  H12B16010   3.446   1.401  10.857  1.8961 -1.1894 -0.3262
  146SAPE   C1116011   3.399   1.615  10.867 -0.2188  0.2164 -0.2775
  146SAPE  H11A16012   3.424   1.626  10.975  0.5073 -0.2805 -0.3909
  146SAPE  H11B16013   3.292   1.586  10.863 -0.1315 -0.2045  0.2504
  146SAPE     P16014   3.546   1.822  10.809  0.0403  0.5363  0.3593
  146SAPE   O1316015   3.539   1.933  10.711 -0.0228 -0.4788 -0.2026
  146SAPE   O1416016   3.562   1.854  10.950 -0.4426 -0.6134 -0.0587
  146SAPE   O1216017   3.412   1.734  10.795  0.4925  0.8444  0.1279
  146SAPE   O1116018   3.655   1.720  10.758 -0.3074 -0.2562  0.1423
  146SAPE    C116019   3.792   1.751  10.755 -0.9652  0.1621  0.2538
  146SAPE    HA16020   3.830   1.841  10.807 -1.1855  0.0497  0.6125
  146SAPE    HB16021   3.846   1.670  10.810 -0.7969 -1.6447 -2.4395
  146SAPE    C216022   3.854   1.744  10.607  0.5173  0.1192 -0.5169
  146SAPE    HS16023   3.961   1.769  10.623  0.4602 -0.5324  1.0143
  146SAPE   O2116024   3.790   1.834  10.520  0.2581 -0.0404  0.0234
  146SAPE   C2116025   3.818   1.959  10.538  0.2928 -0.5600 -0.6894
  146SAPE   O2216026   3.909   2.002  10.615  0.1456  0.4475 -0.2126
  146SAPE   C2216027   3.719   2.044  10.466 -0.7926 -0.1928 -0.1987
  146SAPE   H2R16028   3.662   1.998  10.383 -1.5007  0.7377 -0.2371
  146SAPE   H2S16029   3.647   2.075  10.545 -2.3605  0.5806 -1.8977
  146SAPE    C316030   3.853   1.599  10.549 -0.2593  0.4750  0.0206
  146SAPE    HX16031   3.745   1.574  10.554 -0.4326  1.1112 -0.5566
  146SAPE    HY16032   3.905   1.527  10.616 -0.7121  0.9259  0.8687
  146SAPE   O3116033   3.917   1.599  10.423 -0.2105  0.1721  0.0504
  146SAPE   C3116034   3.874   1.511  10.335  0.1145  0.1118 -0.4990
  146SAPE   O3216035   3.796   1.420  10.354  0.3422 -0.2442  0.1546
  146SAPE   C3216036   3.943   1.536  10.201  0.3960  0.3615  1.1566
  146SAPE   H2X16037   4.053   1.521  10.211  0.4179 -0.5596 -0.2623
  146SAPE   H2Y16038   3.925   1.642  10.172 -4.5082 -0.6191  0.2025
  146SAPE   C2316039   3.785   2.166  10.402 -0.9319 -0.3804 -0.0573
  146SAPE   H3R16040   3.845   2.213  10.483 -0.3517 -1.7516  0.3309
  146SAPE   H3S16041   3.697   2.232  10.390  0.8824  1.7751 -1.8378
  146SAPE   C2416042   3.858   2.141  10.270 -0.2049  0.5915 -0.1716
  146SAPE   H4R16043   3.884   2.237  10.222 -0.6961  0.3307 -0.9583
  146SAPE   H4S16044   3.787   2.096  10.197 -2.4907  3.0437  0.4575
  146SAPE   C2516045   3.986   2.053  10.280  0.3328  0.4309 -0.0191
  146SAPE   H5R16046   4.038   2.053  10.377 -0.4996  1.1385  0.4368
  146SAPE   C2616047   4.019   1.963  10.187  0.0681 -0.1527  0.0777
  146SAPE   H6R16048   4.108   1.905  10.214 -0.2463 -0.2592  0.9099
  146SAPE   C2716049   3.943   1.957  10.057 -0.3938  0.1785 -0.6747
  146SAPE   H7R16050   3.911   2.061  10.035  0.6701  0.8528  0.8945
  146SAPE   H7S16051   3.845   1.905  10.060 -0.5522  0.3698 -2.2463
  146SAPE   C2816052   4.024   1.906   9.940 -0.0455  0.9051 -0.7212
  146SAPE   H8R16053   4.134   1.909   9.949  0.1091 -0.2022 -2.0075
  146SAPE   C2916054   3.981   1.862   9.820  0.0330 -0.1362 -0.2877
  146SAPE   H9R16055   4.063   1.826   9.756  0.7564 -1.0595  1.1377
  146SAPE  C21016056   3.839   1.851   9.770  0.3193  0.1430 -0.8760
  146SAPE  H10R16057   3.775   1.825   9.857 -0.6861  0.2553 -1.5684
  146SAPE  H10S16058   3.849   1.752   9.720  1.1617  0.1470 -0.7256
  146SAPE  C21116059   3.798   1.962   9.683  0.4933  0.4289 -0.0063
  146SAPE  H11R16060   3.758   2.056   9.726 -3.0831 -1.3096  0.6963
  146SAPE  C21216061   3.791   1.949   9.548  0.6618  0.1384  0.3631
  146SAPE  H12R16062   3.757   2.039   9.495  0.8991 -0.1034 -0.2045
  146SAPE  C21316063   3.825   1.826   9.469  0.5956 -0.1485 -0.1597
  146SAPE  H13R16064   3.743   1.750   9.468 -1.7810  2.3647 -0.9663
  146SAPE  H13S16065   3.901   1.764   9.521  1.4484  0.3197 -0.8495
  146SAPE  C21416066   3.867   1.860   9.329  0.1681 -0.1696 -0.0961
  146SAPE  H14R16067   3.937   1.943   9.315 -1.5388  1.2311 -0.5696
  146SAPE  C21516068   3.816   1.808   9.219  0.6843 -0.3322  0.1423
  146SAPE  H15R16069   3.847   1.855   9.124 -0.4704 -0.0246 -0.1007
  146SAPE  C21616070   3.718   1.691   9.196  0.4595 -0.4421 -0.3130
  146SAPE  H16R16071   3.730   1.606   9.267 -1.3180 -1.2973 -1.0070
  146SAPE  H16S16072   3.743   1.637   9.102  1.4139  1.6624 -1.2978
  146SAPE  C21716073   3.568   1.728   9.189  0.7114 -0.2431 -0.4755
  146SAPE  H17R16074   3.538   1.829   9.152 -2.2095 -1.4030 -1.4205
  146SAPE  H17S16075   3.520   1.718   9.289  0.6383 -0.9836 -0.5843
  146SAPE  C21816076   3.483   1.641   9.094  0.6849  0.4206 -0.0556
  146SAPE  H18R16077   3.377   1.663   9.116  0.6372  0.9547 -0.8006
  146SAPE  H18S16078   3.497   1.534   9.120  0.4714  0.6730  1.1366
  146SAPE  C21916079   3.517   1.658   8.943 -0.4269 -0.1134  0.2107
  146SAPE  H19R16080   3.616   1.612   8.922 -0.3145 -0.4848  1.5078
  146SAPE  H19S16081   3.538   1.763   8.915 -0.2855 -0.6433 -1.6877
  146SAPE  C22016082   3.406   1.595   8.867  0.1568  0.0562 -0.2992
  146SAPE  H20R16083   3.424   1.618   8.760  2.4076 -1.7171 -0.3433
  146SAPE  H20S16084   3.301   1.622   8.895 -1.1327 -4.7344 -0.0647
  146SAPE  H20T16085   3.418   1.488   8.892 -2.4261  0.1863  1.7458
  146SAPE   C3316086   3.891   1.460  10.077 -0.2572 -0.0902  0.3153
  146SAPE   H3X16087   3.783   1.477  10.058 -0.4153 -2.6385 -1.2004
  146SAPE   H3Y16088   3.897   1.353  10.104  1.2183 -0.3524 -1.0064
  146SAPE   C3416089   3.969   1.505   9.955  0.6617  0.2005  0.0635
  146SAPE   H4X16090   4.078   1.484   9.962  0.6705  0.0716 -0.4439
  146SAPE   H4Y16091   3.950   1.612   9.934  1.5337  0.2231 -0.6514
  146SAPE   C3516092   3.925   1.429   9.822 -0.1178  0.3038 -0.5746
  146SAPE   H5X16093   3.817   1.443   9.800 -0.1314 -1.0855 -1.3863
  146SAPE   H5Y16094   3.933   1.319   9.831 -3.2631  0.0532 -0.3483
  146SAPE   C3616095   4.002   1.472   9.691 -0.2287  0.1565 -0.3705
  146SAPE   H6X16096   4.108   1.439   9.699 -0.1693  0.3272 -0.4626
  146SAPE   H6Y16097   4.003   1.582   9.672  0.4685  0.9609  3.7948
  146SAPE   C3716098   3.952   1.399   9.570 -0.3345  0.2782  1.0193
  146SAPE   H7X16099   3.856   1.445   9.539  0.3071 -1.0433 -3.2541
  146SAPE   H7Y16100   3.941   1.290   9.586  1.2388  0.2204  1.8217
  146SAPE   C3816101   4.048   1.410   9.449  0.0550 -0.2814  0.2897
  146SAPE   H8X16102   4.151   1.379   9.476 -0.2115 -1.1429  0.3323
  146SAPE   H8Y16103   4.052   1.517   9.417 -0.5821 -0.6226 -0.9715
  146SAPE   C3916104   3.999   1.328   9.333 -0.4497  0.3777 -0.5764
  146SAPE   H9X16105   3.889   1.336   9.320 -0.4694  1.3038  0.1149
  146SAPE   H9Y16106   4.023   1.221   9.351  2.8752  1.1631  0.0651
  146SAPE  C31016107   4.091   1.354   9.207  0.3043 -0.5420 -0.0156
  146SAPE  H10X16108   4.200   1.347   9.227  0.6786  2.0176 -0.9599
  146SAPE  H10Y16109   4.082   1.464   9.196 -1.6900 -0.7880 -1.1419
  146SAPE  C31116110   4.054   1.273   9.082  0.8971 -0.4192  0.1230
  146SAPE  H11X16111   4.077   1.166   9.101  2.3158 -0.0574  0.5010
  146SAPE  H11Y16112   4.128   1.304   9.005  0.7591 -2.4178 -0.8652
  146SAPE  C31216113   3.915   1.292   9.025  0.2081  0.0057  0.0322
  146SAPE  H12X16114   3.906   1.395   8.984 -0.1356 -0.5767 -1.4000
  146SAPE  H12Y16115   3.842   1.268   9.105  0.7828 -1.5145  0.1122
  146SAPE  C31316116   3.888   1.195   8.912  0.6460 -0.0178 -0.3420
  146SAPE  H13X16117   3.781   1.201   8.886 -0.3874 -2.2061  3.0669
  146SAPE  H13Y16118   3.922   1.090   8.929  0.8315 -0.3609 -2.6542
  146SAPE  C31416119   3.960   1.221   8.777 -0.0521  0.5106  0.1402
  146SAPE  H14X16120   4.070   1.227   8.795  0.0609 -0.7919 -0.0809
  146SAPE  H14Y16121   3.928   1.319   8.735 -1.8975 -0.1077  0.0531
  146SAPE  C31516122   3.929   1.103   8.679 -0.0702 -0.2248 -0.5912
  146SAPE  H15X16123   3.964   1.007   8.721  2.4930  1.1726  0.5745
  146SAPE  H15Y16124   3.997   1.116   8.593  0.4480  1.8018  0.0980
  146SAPE  C31616125   3.781   1.088   8.634 -0.1092  0.1416 -0.0786
  146SAPE  H16X16126   3.728   1.073   8.730  0.2657  0.1149  0.1257
  146SAPE  H16Y16127   3.779   0.993   8.577  1.7148 -0.5951  1.0251
  146SAPE  C31716128   3.737   1.214   8.552  0.3138  0.3368  0.0465
  146SAPE  H17X16129   3.812   1.232   8.472  0.2962 -0.1790 -0.0886
  146SAPE  H17Y16130   3.744   1.307   8.613  0.0922  0.0785  0.4624
  146SAPE  C31816131   3.594   1.209   8.498 -0.1808 -0.6054 -0.0735
  146SAPE  H18X16132   3.593   1.116   8.436 -2.7699 -0.8014  0.2003
  146SAPE  H18Y16133   3.577   1.291   8.426 -2.4232 -2.8862 -2.2709
  146SAPE  H18Z16134   3.518   1.195   8.578 -0.6447 -0.0372 -0.4143
  147SAPE     N16135   1.887   0.409   6.084  0.1921 -0.4306 -0.3908
  147SAPE   HN116136   1.952   0.470   6.031 -0.7718 -0.0254 -1.1365
  147SAPE   HN216137   1.862   0.319   6.040 -0.2588 -0.7515  0.5021
  147SAPE   HN316138   1.798   0.464   6.086  1.3094  1.4040 -0.1411
  147SAPE   C1216139   1.956   0.378   6.217  0.2344 -0.6122 -0.7965
  147SAPE  H12A16140   1.963   0.472   6.275 -0.4351 -0.8658 -0.2967
  147SAPE  H12B16141   2.063   0.350   6.206  0.8630  0.1936  2.7279
  147SAPE   C1116142   1.882   0.276   6.297  0.4646  0.1973 -0.8043
  147SAPE  H11A16143   1.774   0.293   6.317 -0.4699 -3.4727 -2.2772
  147SAPE  H11B16144   1.928   0.268   6.397  0.5613 -0.0428 -0.8691
  147SAPE     P16145   1.825   0.024   6.255  0.1788  0.0645 -0.0170
  147SAPE   O1316146   1.684   0.041   6.259 -0.4256  0.2489 -0.0674
  147SAPE   O1416147   1.879  -0.076   6.156  0.0904 -0.6436  0.4779
  147SAPE   O1216148   1.891   0.160   6.219 -1.1279  0.0699 -0.4621
  147SAPE   O1116149   1.879  -0.008   6.399 -0.1537  0.2692  0.1252
  147SAPE    C116150   1.791   0.015   6.508 -0.7013 -0.3775 -0.4318
  147SAPE    HA16151   1.744   0.115   6.513 -1.5708 -0.7837 -0.5260
  147SAPE    HB16152   1.713  -0.063   6.500  1.1951 -2.1486 -2.0827
  147SAPE    C216153   1.864  -0.003   6.645  0.3345  0.6687  0.0729
  147SAPE    HS16154   1.907  -0.105   6.647 -1.9921 -0.3625 -0.6010
  147SAPE   O2116155   1.763   0.007   6.745 -0.0669 -0.1055 -0.0457
  147SAPE   C2116156   1.688  -0.099   6.755  0.6809 -0.0478 -0.0583
  147SAPE   O2216157   1.700  -0.205   6.692  0.4086  0.1524 -0.2921
  147SAPE   C2216158   1.583  -0.077   6.862  0.1648 -0.0600 -0.7501
  147SAPE   H2R16159   1.519   0.007   6.828 -2.0342  0.2577  3.8422
  147SAPE   H2S16160   1.512  -0.162   6.861  1.6652 -1.3743  1.0446
  147SAPE    C316161   1.968   0.094   6.664 -0.4384  0.3725 -0.1015
  147SAPE    HX16162   1.946   0.194   6.621 -0.9046  1.5962  2.8712
  147SAPE    HY16163   2.058   0.066   6.605 -1.1324 -1.4374 -0.3037
  147SAPE   O3116164   2.007   0.098   6.807  0.2129 -0.6086  0.1277
  147SAPE   C3116165   1.986   0.204   6.883  0.0801 -0.4841 -0.4490
  147SAPE   O3216166   1.941   0.313   6.848 -0.3009 -0.2958 -0.0172
  147SAPE   C3216167   2.061   0.175   7.021  0.5521  0.3029  0.4470
  147SAPE   H2X16168   2.170   0.191   7.012  0.6182 -1.2356 -1.8233
  147SAPE   H2Y16169   2.043   0.066   7.034  1.6946  0.1324  0.6028
  147SAPE   C2316170   1.640  -0.045   7.006  0.7692 -0.4286 -0.2193
  147SAPE   H3R16171   1.558   0.010   7.056 -0.3696 -0.3358 -2.1230
  147SAPE   H3S16172   1.721   0.029   6.993 -0.3245  0.9013  0.4830
  147SAPE   C2416173   1.683  -0.170   7.087 -0.1989 -0.0248 -0.8406
  147SAPE   H4R16174   1.776  -0.207   7.038  1.5158  1.1530  1.4042
  147SAPE   H4S16175   1.600  -0.243   7.076 -0.5354  0.2409 -0.1077
  147SAPE   C2516176   1.718  -0.146   7.231 -0.1324  0.1096  0.0519
  147SAPE   H5R16177   1.772  -0.053   7.256  0.8088 -0.3857 -0.1453
  147SAPE   C2616178   1.673  -0.219   7.336  0.7762 -0.4791  0.1533
  147SAPE   H6R16179   1.700  -0.177   7.434  0.3644 -1.0039  0.4947
  147SAPE   C2716180   1.573  -0.332   7.329 -0.6512  0.5154  0.1143
  147SAPE   H7R16181   1.573  -0.388   7.233 -1.3131  0.0803  0.3666
  147SAPE   H7S16182   1.475  -0.282   7.337 -0.1068  2.0375 -2.3910
  147SAPE   C2816183   1.586  -0.425   7.448 -0.0992  0.1826  0.3005
  147SAPE   H8R16184   1.613  -0.527   7.417  2.0105  1.1632 -1.2251
  147SAPE   C2916185   1.566  -0.408   7.576 -0.7201 -0.3928  0.3120
  147SAPE   H9R16186   1.589  -0.484   7.652 -1.3857  0.3862  1.3026
  147SAPE  C21016187   1.526  -0.283   7.647  1.1570 -0.1236 -0.4813
  147SAPE  H10R16188   1.433  -0.299   7.706  1.6136 -0.8717  0.0410
  147SAPE  H10S16189   1.504  -0.202   7.574 -2.3579 -0.2043  0.3520
  147SAPE  C21116190   1.642  -0.236   7.734 -0.8225  0.1661  0.2041
  147SAPE  H11R16191   1.740  -0.278   7.706 -0.5219  2.5355 -2.5341
  147SAPE  C21216192   1.633  -0.149   7.833  0.1860 -0.0617 -0.5182
  147SAPE  H12R16193   1.721  -0.124   7.895 -1.1392  1.5569  0.7335
  147SAPE  C21316194   1.506  -0.078   7.882 -0.1858 -0.0920  0.9618
  147SAPE  H13R16195   1.471  -0.126   7.976  1.7774 -1.3748  1.0927
  147SAPE  H13S16196   1.420  -0.097   7.814  1.2200 -0.1333 -0.8577
  147SAPE  C21416197   1.534   0.066   7.904 -0.0548  0.9335 -0.1506
  147SAPE  H14R16198   1.593   0.118   7.827  0.1501  1.4301  0.3454
  147SAPE  C21516199   1.491   0.142   8.009 -0.3900 -0.5310 -0.3040
  147SAPE  H15R16200   1.504   0.251   8.000  0.9665 -0.8334 -2.1406
  147SAPE  C21616201   1.404   0.100   8.129  0.2309 -0.0647  0.0194
  147SAPE  H16R16202   1.392  -0.010   8.130 -4.2678  0.2958 -1.6043
  147SAPE  H16S16203   1.305   0.148   8.113  0.7222  0.3408 -1.9076
  147SAPE  C21716204   1.469   0.136   8.265 -0.4168 -0.4545  0.2380
  147SAPE  H17R16205   1.511   0.238   8.272 -1.9470  0.1470  0.9662
  147SAPE  H17S16206   1.551   0.062   8.279 -1.0188 -1.2056 -0.1756
  147SAPE  C21816207   1.378   0.111   8.390 -0.2213 -0.2879 -0.0682
  147SAPE  H18R16208   1.354   0.003   8.398  1.6343 -0.6365  0.9460
  147SAPE  H18S16209   1.281   0.164   8.372  0.0284  0.7887  1.6739
  147SAPE  C21916210   1.428   0.140   8.524  0.2003 -0.1911 -0.5988
  147SAPE  H19R16211   1.506   0.064   8.546 -0.1884 -0.6630 -0.8137
  147SAPE  H19S16212   1.344   0.135   8.597  1.2037 -0.2054  0.5705
  147SAPE  C22016213   1.489   0.279   8.546 -0.8129 -0.1500 -0.0750
  147SAPE  H20R16214   1.577   0.303   8.482  0.0059  0.4944  1.2684
  147SAPE  H20S16215   1.521   0.277   8.653 -2.4668 -2.6969  0.4252
  147SAPE  H20T16216   1.405   0.348   8.525  0.1270  1.1714  0.4160
  147SAPE   C3316217   2.011   0.251   7.141  0.6037  0.3161  0.2058
  147SAPE   H3X16218   2.012   0.362   7.145 -2.4118  0.4121 -0.2044
  147SAPE   H3Y16219   2.084   0.217   7.218  0.5690 -2.3389 -0.8957
  147SAPE   C3416220   1.871   0.211   7.190 -0.6193 -0.1977  0.1270
  147SAPE   H4X16221   1.860   0.105   7.158  0.0798 -0.1162 -0.4094
  147SAPE   H4Y16222   1.797   0.275   7.139 -1.5063  0.8085  2.6396
  147SAPE   C3516223   1.861   0.217   7.341 -0.2051 -0.1483  0.1319
  147SAPE   H5X16224   1.937   0.142   7.373  0.6508 -0.0394 -1.5895
  147SAPE   H5Y16225   1.754   0.195   7.365  0.1625 -1.6241  0.4538
  147SAPE   C3616226   1.890   0.354   7.408  0.4933  0.8792  0.2197
  147SAPE   H6X16227   1.828   0.432   7.359  1.2686  1.4705  0.1758
  147SAPE   H6Y16228   1.997   0.376   7.391  0.2378  1.7868 -0.2832
  147SAPE   C3716229   1.870   0.368   7.561 -0.2802  0.2362  0.5579
  147SAPE   H7X16230   1.760   0.357   7.571 -0.3496  0.2557 -0.1722
  147SAPE   H7Y16231   1.900   0.465   7.605  2.3927 -0.8831  1.2650
  147SAPE   C3816232   1.934   0.244   7.640  0.0361 -0.5053  0.6159
  147SAPE   H8X16233   2.044   0.257   7.641 -0.1681  2.2849  5.7418
  147SAPE   H8Y16234   1.919   0.147   7.588 -1.2110  0.4071 -0.7720
  147SAPE   C3916235   1.885   0.250   7.789 -0.0018  0.1521  0.3350
  147SAPE   H9X16236   1.779   0.219   7.802 -0.4734  0.5642 -2.2635
  147SAPE   H9Y16237   1.891   0.355   7.825  1.1632 -0.1009  0.8980
  147SAPE  C31016238   1.972   0.164   7.880 -1.0644 -0.2981  0.6811
  147SAPE  H10X16239   2.078   0.194   7.863 -1.2249 -0.5824 -0.9014
  147SAPE  H10Y16240   1.958   0.054   7.866  2.0335 -0.5769 -0.5576
  147SAPE  C31116241   1.944   0.195   8.027 -0.1490  0.0214 -0.1257
  147SAPE  H11X16242   1.840   0.157   8.033 -0.0698  0.1032  1.9450
  147SAPE  H11Y16243   1.945   0.306   8.032 -2.4238  0.1787 -2.2831
  147SAPE  C31216244   2.046   0.118   8.116 -0.0671  0.0821  0.5870
  147SAPE  H12X16245   2.145   0.140   8.070  0.6784 -1.0317  1.6538
  147SAPE  H12Y16246   2.028   0.010   8.131 -0.2468 -0.2647 -1.9034
  147SAPE  C31316247   2.049   0.169   8.259 -0.4954  0.2519  0.4878
  147SAPE  H13X16248   2.104   0.096   8.323 -0.5723 -0.6184 -0.4186
  147SAPE  H13Y16249   1.949   0.198   8.297 -1.2159 -0.7462 -0.6310
  147SAPE  C31416250   2.136   0.288   8.267  0.0605 -0.1919  0.6629
  147SAPE  H14X16251   2.110   0.355   8.182  1.5660 -3.6879 -2.7276
  147SAPE  H14Y16252   2.238   0.251   8.243  0.7293  0.7138  2.0255
  147SAPE  C31516253   2.141   0.360   8.403 -0.2962 -0.0573  0.0362
  147SAPE  H15X16254   2.156   0.289   8.487 -0.3335 -1.5186 -1.1666
  147SAPE  H15Y16255   2.045   0.415   8.416 -0.8642 -1.5608  2.6467
  147SAPE  C31616256   2.250   0.469   8.404 -0.4178 -0.0045 -0.1386
  147SAPE  H16X16257   2.350   0.419   8.403 -0.3976  0.0484 -1.3233
  147SAPE  H16Y16258   2.252   0.535   8.493  2.7107  1.1767 -1.0312
  147SAPE  C31716259   2.238   0.568   8.289  0.3032 -0.1472 -0.5494
  147SAPE  H17X16260   2.135   0.609   8.293  0.1276 -0.7023  0.6694
  147SAPE  H17Y16261   2.252   0.518   8.191  1.9714  0.2932 -0.5568
  147SAPE  C31816262   2.339   0.690   8.304 -0.0381  0.8417  0.3959
  147SAPE  H18X16263   2.309   0.783   8.252  1.3146 -0.0149 -1.9751
  147SAPE  H18Y16264   2.441   0.664   8.270 -0.0798  0.0752  0.8367
  147SAPE  H18Z16265   2.348   0.703   8.414  0.2414  2.4675  0.1877
  148SAPE     N16266   0.898   4.779   6.619  0.2142 -0.1696  0.0629
  148SAPE   HN116267   0.922   4.685   6.657 -1.7455 -1.2440 -1.2879
  148SAPE   HN216268   0.983   4.816   6.572  0.4932 -1.5194 -0.5247
  148SAPE   HN316269   0.850   4.840   6.687 -0.2849  1.1422 -1.4397
  148SAPE   C1216270   0.786   4.744   6.531  0.0573  0.6060  0.4883
  148SAPE  H12A16271   0.821   4.663   6.464 -1.8166  0.0797  0.1093
  148SAPE  H12B16272   0.747   4.826   6.467 -2.9300 -0.6020  0.6669
  148SAPE   C1116273   0.664   4.703   6.615 -0.1458  0.1191  0.4711
  148SAPE  H11A16274   0.682   4.617   6.684 -0.8410  1.0199  1.7940
  148SAPE  H11B16275   0.587   4.674   6.541  0.1641 -0.3074  0.3083
  148SAPE     P16276   0.519   4.914   6.651  0.8936 -0.6534  0.0857
  148SAPE   O1316277   0.546   4.962   6.512 -0.2236  0.2749  0.2791
  148SAPE   O1416278   0.390   4.841   6.680  0.0677  0.8338 -0.0547
  148SAPE   O1216279   0.631   4.812   6.700  0.3629  0.0733 -0.0571
  148SAPE   O1116280   0.535   5.039   6.754 -0.0232 -0.3114 -0.6620
  148SAPE    C116281   0.664   5.075   6.805 -0.4076  0.2125 -0.0018
  148SAPE    HA16282   0.751   5.022   6.761 -0.7730  0.1119 -0.5977
  148SAPE    HB16283   0.678   5.185   6.795  1.0487 -0.2059 -3.0099
  148SAPE    C216284   0.678   5.052   6.958  0.5844 -0.1751  0.6468
  148SAPE    HS16285   0.780   5.093   6.977  0.1406  0.6052  1.3862
  148SAPE   O2116286   0.677   4.912   7.005 -0.5253  0.1968  0.5480
  148SAPE   C2116287   0.759   4.821   6.967  0.3400 -1.2001 -0.3161
  148SAPE   O2216288   0.858   4.831   6.896  0.3156 -0.2036 -0.0017
  148SAPE   C2216289   0.702   4.686   7.023 -0.3111 -0.4779 -0.5358
  148SAPE   H2R16290   0.686   4.713   7.129 -0.9674  0.0576 -0.7679
  148SAPE   H2S16291   0.607   4.658   6.972 -0.7407  0.1057 -0.0639
  148SAPE    C316292   0.553   5.121   7.017 -0.1327 -0.4806  0.2930
  148SAPE    HX16293   0.461   5.070   6.981 -0.0234 -0.2057 -0.3753
  148SAPE    HY16294   0.548   5.228   6.988 -1.1677 -0.3901  0.8080
  148SAPE   O3116295   0.546   5.116   7.163 -0.0165 -0.0975  0.0985
  148SAPE   C3116296   0.647   5.178   7.223 -0.4627  0.0181 -0.2105
  148SAPE   O3216297   0.732   5.238   7.159 -0.1298  0.1411 -0.0799
  148SAPE   C3216298   0.639   5.160   7.373  0.4076  0.2411  0.0529
  148SAPE   H2X16299   0.604   5.059   7.401 -2.1614  1.1922  0.3645
  148SAPE   H2Y16300   0.567   5.238   7.406 -1.5317 -0.1496 -3.1026
  148SAPE   C2316301   0.786   4.556   6.985 -0.6818  1.0098 -0.0536
  148SAPE   H3R16302   0.790   4.546   6.875 -0.2751 -1.1900  0.1311
  148SAPE   H3S16303   0.728   4.468   7.022  2.2149 -1.0093 -0.1939
  148SAPE   C2416304   0.932   4.561   7.031 -0.2111 -0.0765  0.8297
  148SAPE   H4R16305   0.983   4.645   6.979  0.8946 -1.1639  0.1167
  148SAPE   H4S16306   0.985   4.467   7.002 -0.9460 -0.8184  1.8663
  148SAPE   C2516307   0.956   4.582   7.175 -0.9629  0.1511 -0.3091
  148SAPE   H5R16308   0.954   4.684   7.217  3.5080  0.2745 -0.2065
  148SAPE   C2616309   0.961   4.481   7.261 -0.6195  0.2128 -0.1538
  148SAPE   H6R16310   0.979   4.517   7.364  0.6197  2.7613 -1.2175
  148SAPE   C2716311   0.946   4.327   7.252  0.1331 -0.2954 -0.4578
  148SAPE   H7R16312   0.900   4.292   7.157 -2.6165 -1.9457  1.3949
  148SAPE   H7S16313   0.877   4.287   7.329 -1.6864  3.1348 -0.1972
  148SAPE   C2816314   1.084   4.270   7.272 -0.2206 -0.5728 -0.4149
  148SAPE   H8R16315   1.132   4.233   7.180  0.8334  1.0210 -0.5260
  148SAPE   C2916316   1.146   4.228   7.384 -0.5681 -0.6308 -0.5201
  148SAPE   H9R16317   1.249   4.195   7.363 -0.1665  0.9542 -1.0699
  148SAPE  C21016318   1.097   4.228   7.525 -0.3791 -0.1817  0.5968
  148SAPE  H10R16319   1.101   4.126   7.568  1.7454 -0.5823 -0.4822
  148SAPE  H10S16320   0.989   4.253   7.530 -0.1614  0.8798  0.0376
  148SAPE  C21116321   1.172   4.328   7.610 -0.6989  0.1068 -0.0353
  148SAPE  H11R16322   1.166   4.431   7.571 -0.0977 -0.4371 -1.5990
  148SAPE  C21216323   1.250   4.299   7.713 -0.0635 -0.0743 -0.2771
  148SAPE  H12R16324   1.288   4.385   7.770 -1.3975  0.1083  0.3413
  148SAPE  C21316325   1.278   4.160   7.759 -0.8432  0.0188 -0.7285
  148SAPE  H13R16326   1.290   4.090   7.674  1.7940  1.1524 -1.3258
  148SAPE  H13S16327   1.189   4.136   7.821 -1.0486  1.8144 -0.2845
  148SAPE  C21416328   1.400   4.159   7.845  0.3147 -0.0101 -0.0980
  148SAPE  H14R16329   1.494   4.130   7.795  1.0044  0.0386  1.1427
  148SAPE  C21516330   1.407   4.151   7.982 -0.3885  0.4118  1.1444
  148SAPE  H15R16331   1.506   4.156   8.030 -0.3976 -1.0133  1.3598
  148SAPE  C21616332   1.292   4.148   8.074 -0.2703 -0.1320  0.0818
  148SAPE  H16R16333   1.230   4.061   8.044 -0.0946 -0.0835 -0.4281
  148SAPE  H16S16334   1.233   4.237   8.042 -0.8079 -0.0940  1.1726
  148SAPE  C21716335   1.336   4.154   8.216  0.6696  0.1090 -0.1000
  148SAPE  H17R16336   1.402   4.241   8.236 -0.3023  0.6347  0.9139
  148SAPE  H17S16337   1.392   4.064   8.249  1.3787  0.6094  0.0751
  148SAPE  C21816338   1.209   4.191   8.297 -0.0560 -0.6553 -0.8430
  148SAPE  H18R16339   1.140   4.104   8.297 -0.8822 -0.0071 -1.3277
  148SAPE  H18S16340   1.160   4.277   8.246  1.6804  1.7159  1.3538
  148SAPE  C21916341   1.228   4.217   8.445  0.5820 -0.0993  0.5820
  148SAPE  H19R16342   1.130   4.247   8.487  0.3991  0.8120 -0.4801
  148SAPE  H19S16343   1.299   4.302   8.458  1.9782 -0.7458 -2.3060
  148SAPE  C22016344   1.262   4.092   8.528 -0.8544 -0.4345  0.5225
  148SAPE  H20R16345   1.176   4.022   8.517  0.2350 -2.0257  1.8430
  148SAPE  H20S16346   1.263   4.113   8.637  1.0678 -0.6048  0.5619
  148SAPE  H20T16347   1.350   4.034   8.492  0.0564 -1.5047  4.1975
  148SAPE   C3316348   0.776   5.190   7.441 -0.1276  0.3018  0.8078
  148SAPE   H3X16349   0.806   5.292   7.409  0.3809  0.1443  0.7753
  148SAPE   H3Y16350   0.856   5.121   7.406 -1.3737 -0.6520 -0.2205
  148SAPE   C3416351   0.774   5.194   7.589 -0.0339 -0.3169 -0.6474
  148SAPE   H4X16352   0.739   5.097   7.631  1.1107  0.0778  1.3195
  148SAPE   H4Y16353   0.691   5.259   7.623  0.5502 -0.5342  1.2497
  148SAPE   C3516354   0.904   5.230   7.656  0.2521  0.7202 -0.1720
  148SAPE   H5X16355   0.894   5.268   7.760 -1.3646  0.8546 -0.3736
  148SAPE   H5Y16356   0.937   5.319   7.597  0.4434  2.0723  1.9322
  148SAPE   C3616357   1.014   5.133   7.659 -0.4299  0.5463  0.3245
  148SAPE   H6X16358   1.038   5.097   7.557 -1.4218  0.7330  0.0135
  148SAPE   H6Y16359   0.992   5.038   7.712  0.5974 -0.1805 -0.5271
  148SAPE   C3716360   1.140   5.189   7.722 -0.8040 -0.0378  0.6326
  148SAPE   H7X16361   1.159   5.297   7.708 -1.0649 -0.3058 -2.0675
  148SAPE   H7Y16362   1.216   5.131   7.665 -1.8644  0.2375 -1.1032
  148SAPE   C3816363   1.155   5.157   7.870 -0.4554 -0.0653  0.9184
  148SAPE   H8X16364   1.120   5.052   7.879 -1.8158  0.1615 -1.1090
  148SAPE   H8Y16365   1.092   5.227   7.928 -0.2145  1.8072 -1.0062
  148SAPE   C3916366   1.303   5.150   7.921  0.3190  0.2813  0.3724
  148SAPE   H9X16367   1.340   5.068   7.855 -0.8520  0.4738 -0.5194
  148SAPE   H9Y16368   1.308   5.114   8.026  0.6938 -0.0490  0.2468
  148SAPE  C31016369   1.378   5.274   7.902 -0.1991 -0.0952  0.8388
  148SAPE  H10X16370   1.381   5.312   7.797 -0.7002 -1.6828  0.2289
  148SAPE  H10Y16371   1.482   5.249   7.934 -0.3572 -0.7395  0.8628
  148SAPE  C31116372   1.318   5.386   7.987  0.6022 -0.2499 -0.0584
  148SAPE  H11X16373   1.295   5.351   8.089 -0.7304  1.1815  0.1688
  148SAPE  H11Y16374   1.218   5.409   7.942  1.4481  2.7797 -0.4984
  148SAPE  C31216375   1.378   5.526   7.978 -0.5214  0.6071 -0.3252
  148SAPE  H12X16376   1.378   5.569   7.875  1.8272  0.5028 -0.4114
  148SAPE  H12Y16377   1.480   5.533   8.021 -0.4002  1.2018 -0.6996
  148SAPE  C31316378   1.298   5.623   8.073 -0.5902 -0.3461  0.7732
  148SAPE  H13X16379   1.322   5.597   8.179  2.0679  1.4602  0.6565
  148SAPE  H13Y16380   1.188   5.608   8.064 -0.6106  0.4108 -0.2569
  148SAPE  C31416381   1.315   5.762   8.029 -0.6805 -0.5870 -0.1955
  148SAPE  H14X16382   1.297   5.761   7.920  0.0839  0.6182 -0.3477
  148SAPE  H14Y16383   1.419   5.802   8.034 -0.9416  0.0776  0.0375
  148SAPE  C31516384   1.222   5.862   8.088  0.0194  0.5903  0.3998
  148SAPE  H15X16385   1.246   5.864   8.196  1.1175 -1.7279  0.2455
  148SAPE  H15Y16386   1.115   5.833   8.093 -0.6224  2.8754  0.4475
  148SAPE  C31616387   1.232   6.009   8.041  0.3133 -0.4477 -0.0027
  148SAPE  H16X16388   1.205   6.002   7.934 -0.3976  1.9197 -0.0051
  148SAPE  H16Y16389   1.336   6.046   8.046 -0.0723  0.7343 -0.6481
  148SAPE  C31716390   1.142   6.113   8.113  0.7408 -0.0255 -0.0775
  148SAPE  H17X16391   1.069   6.060   8.177  0.8378  1.2743  1.1291
  148SAPE  H17Y16392   1.084   6.172   8.040 -1.1224  2.1863  3.1192
  148SAPE  C31816393   1.213   6.211   8.205  1.2371  0.4710 -0.2800
  148SAPE  H18X16394   1.283   6.146   8.262 -1.2177 -2.2346 -0.1786
  148SAPE  H18Y16395   1.143   6.251   8.282 -2.7896 -3.1297 -1.8352
  148SAPE  H18Z16396   1.265   6.292   8.150  0.5107 -1.5767 -4.1705
  149SAPE     N16397   0.213   5.685   6.202 -0.1503  0.1514 -0.0472
  149SAPE   HN116398   0.172   5.617   6.135 -0.2117 -0.4289  0.5678
  149SAPE   HN216399   0.139   5.750   6.232  0.1481 -0.1921  1.4703
  149SAPE   HN316400   0.287   5.735   6.150 -1.0092 -1.0023 -2.4625
  149SAPE   C1216401   0.273   5.594   6.301  0.2905  0.5638 -0.4547
  149SAPE  H12A16402   0.338   5.649   6.373  1.2784 -1.4447  0.2074
  149SAPE  H12B16403   0.329   5.514   6.249 -1.8681 -0.2203 -1.6231
  149SAPE   C1116404   0.164   5.533   6.389 -0.1896 -0.6599 -0.2087
  149SAPE  H11A16405   0.115   5.608   6.454 -0.4952 -1.6372  0.7040
  149SAPE  H11B16406   0.209   5.470   6.469  3.0589 -0.7575 -2.0149
  149SAPE     P16407   0.097   5.307   6.276 -0.3740 -0.1153 -0.3019
  149SAPE   O1316408  -0.015   5.257   6.195 -0.8536 -0.1916 -0.0380
  149SAPE   O1416409   0.231   5.297   6.208 -0.7652 -0.7100  0.4658
  149SAPE   O1216410   0.062   5.460   6.318 -0.3131 -0.1053 -0.1430
  149SAPE   O1116411   0.102   5.232   6.413  0.2218  0.2563 -0.4215
  149SAPE    C116412  -0.018   5.195   6.482 -0.5533 -0.3214 -0.0572
  149SAPE    HA16413  -0.095   5.148   6.416 -0.2653  0.1435 -0.7221
  149SAPE    HB16414   0.010   5.126   6.565 -0.0209 -0.5616 -0.4298
  149SAPE    C216415  -0.089   5.323   6.545  0.7352  0.0249  0.7251
  149SAPE    HS16416  -0.121   5.386   6.459  2.2317  2.2928  1.7819
  149SAPE   O2116417   0.017   5.392   6.617  0.2560  0.1825  0.8547
  149SAPE   C2116418  -0.025   5.509   6.670  0.6208  0.8876 -0.5402
  149SAPE   O2216419  -0.124   5.567   6.638  0.6978  0.0889  0.0013
  149SAPE   C2216420   0.071   5.556   6.782  0.4329  0.0022 -0.0372
  149SAPE   H2R16421   0.037   5.647   6.836  0.4112 -0.5096  0.8198
  149SAPE   H2S16422   0.073   5.468   6.850  2.9966  0.1864  0.1536
  149SAPE    C316423  -0.209   5.279   6.629  0.1236  0.0425  0.3891
  149SAPE    HX16424  -0.280   5.223   6.565  2.3547 -1.2745 -1.0223
  149SAPE    HY16425  -0.257   5.373   6.663 -0.0205 -0.2001  0.8596
  149SAPE   O3116426  -0.155   5.193   6.733 -0.2283 -0.0045  0.0449
  149SAPE   C3116427  -0.143   5.240   6.851  0.1163  0.0110  0.1300
  149SAPE   O3216428  -0.168   5.357   6.882  0.5667 -0.0828  0.2411
  149SAPE   C3216429  -0.098   5.132   6.949  0.6614  0.3163 -0.0334
  149SAPE   H2X16430  -0.029   5.065   6.894 -0.3649 -0.3949 -0.4714
  149SAPE   H2Y16431  -0.181   5.077   6.998  0.5507  2.1455  1.9266
  149SAPE   C2316432   0.224   5.584   6.761  0.0282 -0.0187  0.1849
  149SAPE   H3R16433   0.220   5.688   6.723  1.0434 -0.3161 -0.7818
  149SAPE   H3S16434   0.263   5.520   6.678 -2.5988  0.7688 -1.7254
  149SAPE   C2416435   0.307   5.582   6.890 -0.1611  0.0521 -0.6777
  149SAPE   H4R16436   0.256   5.654   6.959 -0.1346  0.0551 -0.6612
  149SAPE   H4S16437   0.408   5.617   6.861 -0.3097  0.5752 -0.5806
  149SAPE   C2516438   0.319   5.442   6.939 -0.1906  0.7418  0.3311
  149SAPE   H5R16439   0.336   5.367   6.860  2.4381  1.6607 -0.0396
  149SAPE   C2616440   0.316   5.414   7.070 -1.1563  0.8649  0.2859
  149SAPE   H6R16441   0.352   5.314   7.101  0.6421  1.6621  0.8545
  149SAPE   C2716442   0.303   5.509   7.191  0.2641 -0.6366 -0.1928
  149SAPE   H7R16443   0.223   5.473   7.259  0.9554 -0.7258  0.5734
  149SAPE   H7S16444   0.274   5.614   7.167  2.9138  0.3377  0.6328
  149SAPE   C2816445   0.428   5.513   7.284  0.0550  0.6280 -0.3133
  149SAPE   H8R16446   0.517   5.465   7.239 -0.1263 -1.2607  1.3049
  149SAPE   C2916447   0.440   5.566   7.403  0.4447  0.4048  0.4220
  149SAPE   H9R16448   0.537   5.567   7.454  0.6029  1.5483  0.1071
  149SAPE  C21016449   0.334   5.636   7.485 -0.4285 -0.2831  0.0255
  149SAPE  H10R16450   0.296   5.570   7.566 -1.9814 -1.2554 -1.4576
  149SAPE  H10S16451   0.235   5.658   7.439  0.4397 -0.9756 -2.2358
  149SAPE  C21116452   0.392   5.770   7.534 -0.2431 -0.2301  0.1215
  149SAPE  H11R16453   0.468   5.758   7.613  0.1541 -0.5717 -0.3138
  149SAPE  C21216454   0.371   5.897   7.482 -0.1339 -0.5648 -0.0673
  149SAPE  H12R16455   0.414   5.985   7.530 -2.0165 -0.3388  1.2503
  149SAPE  C21316456   0.284   5.927   7.368  0.1484 -0.1999 -0.4264
  149SAPE  H13R16457   0.296   5.857   7.282  0.9362  0.1080 -0.5701
  149SAPE  H13S16458   0.308   6.032   7.342 -2.6324  0.2261 -1.3712
  149SAPE  C21416459   0.135   5.926   7.406 -1.5396  0.1037 -0.2201
  149SAPE  H14R16460   0.102   5.844   7.471  2.7288 -1.1436  0.5469
  149SAPE  C21516461   0.052   6.029   7.364  0.6747  0.3178 -0.3693
  149SAPE  H15R16462  -0.051   6.026   7.404  0.9357 -3.0472  0.1462
  149SAPE  C21616463   0.077   6.151   7.276  0.5205 -0.6396 -0.5989
  149SAPE  H16R16464   0.181   6.189   7.284 -1.1238  3.6545  2.8391
  149SAPE  H16S16465   0.008   6.224   7.323 -0.5623 -1.9824 -0.0480
  149SAPE  C21716466   0.030   6.127   7.136 -1.0073 -0.4812  0.4375
  149SAPE  H17R16467   0.020   6.218   7.072 -1.1646  0.4660  1.7733
  149SAPE  H17S16468  -0.064   6.068   7.146 -2.0424  0.6801 -1.9179
  149SAPE  C21816469   0.128   6.035   7.060  0.5247 -0.2149 -0.2597
  149SAPE  H18R16470   0.135   5.949   7.130  0.1100  0.3790  0.5273
  149SAPE  H18S16471   0.224   6.089   7.045  1.7848 -2.1585  0.6487
  149SAPE  C21916472   0.077   5.975   6.934 -0.5752  0.0359  0.3066
  149SAPE  H19R16473  -0.027   5.936   6.945  0.1714 -1.8169  1.1250
  149SAPE  H19S16474   0.134   5.881   6.919  0.5162  0.8413 -0.6384
  149SAPE  C22016475   0.101   6.068   6.811 -0.4767  0.9901 -0.5973
  149SAPE  H20R16476   0.014   6.134   6.793 -1.0767  0.2627 -0.3565
  149SAPE  H20S16477   0.111   6.000   6.723  1.6885 -1.5947  1.5558
  149SAPE  H20T16478   0.185   6.139   6.824 -1.7989  2.5856 -0.6962
  149SAPE   C3316479  -0.025   5.206   7.060  0.1572  0.4562  0.7069
  149SAPE   H3X16480  -0.096   5.277   7.108 -0.9782 -0.5275  0.5028
  149SAPE   H3Y16481   0.055   5.271   7.020 -1.0342  0.4834 -1.7645
  149SAPE   C3416482   0.028   5.109   7.167  0.1610  0.2873  0.2273
  149SAPE   H4X16483   0.117   5.048   7.139 -0.7459 -0.6921 -0.5513
  149SAPE   H4Y16484  -0.053   5.037   7.190  0.3729  0.4139  1.4066
  149SAPE   C3516485   0.053   5.186   7.296  0.5186 -0.3165  0.0060
  149SAPE   H5X16486  -0.045   5.207   7.345  1.1302 -1.3028  1.6973
  149SAPE   H5Y16487   0.106   5.280   7.272  1.1960 -0.6598  0.1365
  149SAPE   C3616488   0.143   5.112   7.391 -0.4843 -0.4353 -0.2696
  149SAPE   H6X16489   0.233   5.077   7.336 -0.7425 -1.0678 -0.2916
  149SAPE   H6Y16490   0.099   5.018   7.431  0.9525 -1.4770 -1.0718
  149SAPE   C3716491   0.188   5.196   7.517 -0.6719  0.0678  0.2305
  149SAPE   H7X16492   0.134   5.169   7.611 -0.3926 -1.5485 -0.0490
  149SAPE   H7Y16493   0.184   5.305   7.499 -1.0824  0.2705  1.4538
  149SAPE   C3816494   0.331   5.175   7.566  0.3534  0.8759  0.2205
  149SAPE   H8X16495   0.386   5.196   7.471 -2.5951  0.6000 -1.6361
  149SAPE   H8Y16496   0.348   5.071   7.600  0.8376  0.7342 -0.4256
  149SAPE   C3916497   0.375   5.272   7.680 -0.5490 -0.2944  0.0953
  149SAPE   H9X16498   0.386   5.367   7.624  0.5647 -0.7520 -0.4774
  149SAPE   H9Y16499   0.480   5.248   7.708  0.2529  2.2713 -0.5905
  149SAPE  C31016500   0.291   5.282   7.813  0.2064 -0.3748  0.1172
  149SAPE  H10X16501   0.285   5.180   7.856 -0.8476  0.2325  1.4611
  149SAPE  H10Y16502   0.190   5.311   7.777 -0.5223 -2.7456  0.2040
  149SAPE  C31116503   0.343   5.379   7.918 -0.2172 -0.0767  0.2909
  149SAPE  H11X16504   0.252   5.418   7.968  0.3479 -2.2674  3.1526
  149SAPE  H11Y16505   0.396   5.465   7.873 -0.6785  0.2140  0.3065
  149SAPE  C31216506   0.439   5.310   8.018  0.0245 -0.2026  0.0029
  149SAPE  H12X16507   0.527   5.258   7.975  0.5817  1.7830 -1.3257
  149SAPE  H12Y16508   0.374   5.236   8.071 -1.0487  2.1505  2.0507
  149SAPE  C31316509   0.486   5.411   8.121 -0.4144 -0.2900  0.4119
  149SAPE  H13X16510   0.527   5.505   8.079  0.6499 -2.2217 -3.0296
  149SAPE  H13Y16511   0.557   5.355   8.185  0.0615  0.8140  0.8564
  149SAPE  C31416512   0.380   5.471   8.221 -0.1020  0.7208 -0.4466
  149SAPE  H14X16513   0.345   5.392   8.291 -0.3964  0.5309 -0.8091
  149SAPE  H14Y16514   0.292   5.509   8.164 -2.3700 -1.4883  1.4334
  149SAPE  C31516515   0.424   5.587   8.310 -0.1366 -0.2997  0.3658
  149SAPE  H15X16516   0.450   5.669   8.240 -0.1362  1.9263  2.8960
  149SAPE  H15Y16517   0.517   5.558   8.364  0.4018  0.5405 -0.1002
  149SAPE  C31616518   0.323   5.624   8.410  0.0787 -0.6211 -0.1361
  149SAPE  H16X16519   0.275   5.543   8.469  1.2635 -0.3332  1.2563
  149SAPE  H16Y16520   0.241   5.676   8.356  0.2569  1.1158  1.2319
  149SAPE  C31716521   0.377   5.714   8.520 -0.8181 -0.0275  0.0689
  149SAPE  H17X16522   0.427   5.795   8.462 -0.8256  0.1657  0.3272
  149SAPE  H17Y16523   0.453   5.651   8.570 -1.9673 -0.8969  0.7318
  149SAPE  C31816524   0.285   5.784   8.620  0.4012  0.3832  0.9865
  149SAPE  H18X16525   0.334   5.844   8.700  0.5959  2.5262 -0.6862
  149SAPE  H18Y16526   0.224   5.712   8.678  1.7060 -1.8813 -0.4066
  149SAPE  H18Z16527   0.205   5.841   8.567  0.0732 -1.5976 -0.7036
  150SAPE     N16528   5.444   6.555   6.339 -0.0353 -0.3801 -0.6098
  150SAPE   HN116529   5.497   6.471   6.308  0.5214 -1.1982  2.3739
  150SAPE   HN216530   5.417   6.526   6.436  0.2655  0.0677 -0.3913
  150SAPE   HN316531   5.359   6.573   6.282 -0.9260 -2.2747  0.0734
  150SAPE   C1216532   5.541   6.664   6.343  0.2741 -0.2934  0.2487
  150SAPE  H12A16533   5.506   6.751   6.403 -0.7608 -0.2374 -0.4277
  150SAPE  H12B16534   5.557   6.700   6.239 -1.2414 -0.4529 -0.0531
  150SAPE   C1116535   5.682   6.624   6.394 -0.7052  0.2688  0.0790
  150SAPE  H11A16536   5.687   6.597   6.501  3.5939 -1.0712 -0.3374
  150SAPE  H11B16537   5.748   6.713   6.381 -0.5102  0.5385  2.7248
  150SAPE     P16538   5.727   6.370   6.352 -0.0822 -0.0831  0.0018
  150SAPE   O1316539   5.589   6.334   6.391 -0.0544 -0.2793 -0.0319
  150SAPE   O1416540   5.796   6.297   6.237 -0.0285 -0.0112 -0.3594
  150SAPE   O1216541   5.743   6.525   6.312 -0.2899 -0.0453  0.6914
  150SAPE   O1116542   5.818   6.361   6.472  0.4222  0.0174 -0.2156
  150SAPE    C116543   5.800   6.251   6.571 -0.1918 -0.9941  0.2170
  150SAPE    HA16544   5.694   6.223   6.589 -0.0443  0.0247  3.0281
  150SAPE    HB16545   5.867   6.170   6.537  1.6126 -0.3225  2.0344
  150SAPE    C216546   5.861   6.289   6.703 -0.0656  0.1714  0.1352
  150SAPE    HS16547   5.849   6.211   6.781  1.9200 -0.9958 -0.6820
  150SAPE   O2116548   5.816   6.424   6.742 -0.1316  0.2059 -0.3868
  150SAPE   C2116549   5.704   6.425   6.803  0.2704  0.6152  0.4115
  150SAPE   O2216550   5.643   6.326   6.844 -0.4615 -0.2487  0.3521
  150SAPE   C2216551   5.650   6.574   6.821  0.1901  0.4608 -0.0758
  150SAPE   H2R16552   5.729   6.653   6.818  0.4333  0.1626 -1.6966
  150SAPE   H2S16553   5.578   6.593   6.739  2.2538 -1.6339 -2.4674
  150SAPE    C316554   6.016   6.292   6.697 -0.2677  0.0730 -0.2743
  150SAPE    HX16555   6.070   6.370   6.639 -1.2180 -0.2654 -1.6242
  150SAPE    HY16556   6.055   6.203   6.644  1.2000 -0.0649  0.9872
  150SAPE   O3116557   6.074   6.288   6.827 -0.1497 -0.2904  0.0242
  150SAPE   C3116558   6.095   6.170   6.889 -0.8605  0.1714  0.2612
  150SAPE   O3216559   6.079   6.059   6.838  0.3627 -0.1701 -0.5293
  150SAPE   C3216560   6.128   6.205   7.038  0.4023  0.0681  0.6375
  150SAPE   H2X16561   6.076   6.300   7.066  0.0722  0.0524  0.0937
  150SAPE   H2Y16562   6.238   6.218   7.042  0.6317  0.5613 -4.3895
  150SAPE   C2316563   5.571   6.593   6.950 -0.0078  0.2321  0.4007
  150SAPE   H3R16564   5.635   6.561   7.035  1.8462 -1.6216 -1.6121
  150SAPE   H3S16565   5.476   6.540   6.929  1.5560 -1.1611 -3.8020
  150SAPE   C2416566   5.547   6.744   6.961  0.5213 -0.5475 -0.2733
  150SAPE   H4R16567   5.467   6.746   7.038 -1.2498 -0.2900 -2.0906
  150SAPE   H4S16568   5.508   6.784   6.865  0.2764 -2.2307 -0.8955
  150SAPE   C2516569   5.662   6.831   7.001 -0.3511  0.0067  0.0526
  150SAPE   H5R16570   5.698   6.884   6.911 -0.7968 -0.2221 -0.2637
  150SAPE   C2616571   5.712   6.847   7.125 -0.0170  0.0069  0.1657
  150SAPE   H6R16572   5.809   6.897   7.144  1.0501 -1.1788 -1.9695
  150SAPE   C2716573   5.655   6.775   7.241  0.7298  0.0104 -0.2130
  150SAPE   H7R16574   5.739   6.734   7.301  0.8842 -3.4924 -2.7086
  150SAPE   H7S16575   5.613   6.678   7.209  0.9242 -0.5956  1.3118
  150SAPE   C2816576   5.548   6.844   7.324 -0.9002 -0.0915 -0.6935
  150SAPE   H8R16577   5.470   6.889   7.261 -0.2465 -0.4300 -1.7561
  150SAPE   C2916578   5.548   6.871   7.459  0.3431 -0.1927 -1.1265
  150SAPE   H9R16579   5.460   6.914   7.509 -0.6676 -2.0768 -1.2515
  150SAPE  C21016580   5.660   6.841   7.560  0.1276 -0.7728 -0.3050
  150SAPE  H10R16581   5.754   6.853   7.501 -0.7705  0.2576 -1.5521
  150SAPE  H10S16582   5.661   6.732   7.580  2.4142 -0.5008  1.2603
  150SAPE  C21116583   5.646   6.907   7.699 -0.9704 -0.0958 -0.1084
  150SAPE  H11R16584   5.656   7.017   7.699 -0.1058 -0.1743 -0.9786
  150SAPE  C21216585   5.637   6.847   7.819  0.0071 -0.4910 -0.0348
  150SAPE  H12R16586   5.642   6.905   7.912 -1.8360  0.2853 -0.3759
  150SAPE  C21316587   5.631   6.699   7.846  0.5022  0.2347 -0.2181
  150SAPE  H13R16588   5.630   6.637   7.754 -1.0186 -0.8334  0.4923
  150SAPE  H13S16589   5.530   6.685   7.891  0.6409 -0.9375 -0.2399
  150SAPE  C21416590   5.739   6.664   7.948  0.6154 -0.2996 -0.0632
  150SAPE  H14R16591   5.831   6.625   7.902 -1.1371 -1.8234 -2.4090
  150SAPE  C21516592   5.743   6.684   8.080 -0.3934  0.6056  0.1324
  150SAPE  H15R16593   5.838   6.659   8.130 -1.5863 -1.0606  1.6489
  150SAPE  C21616594   5.637   6.739   8.171  0.3918 -0.1206  0.0615
  150SAPE  H16R16595   5.575   6.805   8.107 -0.2180 -0.6621  0.0925
  150SAPE  H16S16596   5.692   6.801   8.245 -1.1041  0.5353  0.6314
  150SAPE  C21716597   5.549   6.638   8.247  0.2829 -0.7170  0.8042
  150SAPE  H17R16598   5.496   6.573   8.174 -1.5137  1.0211  0.5213
  150SAPE  H17S16599   5.473   6.691   8.307 -0.7161 -2.2027  0.8879
  150SAPE  C21816600   5.631   6.551   8.346  0.7542  0.1219  1.1489
  150SAPE  H18R16601   5.716   6.505   8.291 -1.8621  0.7135 -3.6698
  150SAPE  H18S16602   5.559   6.469   8.370 -1.7342  1.8577 -0.1075
  150SAPE  C21916603   5.677   6.614   8.473  0.3264 -0.1985 -0.2646
  150SAPE  H19R16604   5.596   6.679   8.513  1.5691  2.1874 -1.5497
  150SAPE  H19S16605   5.767   6.675   8.451 -0.3054  0.3354 -1.3908
  150SAPE  C22016606   5.717   6.506   8.570 -0.5032  0.1700  0.5111
  150SAPE  H20R16607   5.653   6.417   8.552 -0.9530  0.9326 -1.9085
  150SAPE  H20S16608   5.707   6.546   8.674  1.7016  0.1078  0.7644
  150SAPE  H20T16609   5.819   6.467   8.555 -0.0315  1.7315 -0.4194
  150SAPE   C3316610   6.096   6.099   7.143 -0.0592 -0.4548 -1.0844
  150SAPE   H3X16611   6.145   6.006   7.107  1.0066  0.0817 -1.0301
  150SAPE   H3Y16612   5.987   6.074   7.147 -0.5851  1.9736  0.6625
  150SAPE   C3416613   6.145   6.149   7.273  0.4248 -0.1317  0.0994
  150SAPE   H4X16614   6.106   6.252   7.292 -1.1265 -0.2867 -2.0985
  150SAPE   H4Y16615   6.255   6.159   7.263  0.3360  0.8206 -0.0335
  150SAPE   C3516616   6.117   6.058   7.392  0.8560 -0.2854 -0.4165
  150SAPE   H5X16617   6.153   5.955   7.374  3.2107  0.6625 -1.2956
  150SAPE   H5Y16618   6.006   6.059   7.398  0.9064  0.0224  0.5202
  150SAPE   C3616619   6.176   6.109   7.530  0.1108 -0.4359 -0.0858
  150SAPE   H6X16620   6.127   6.207   7.547  0.1624 -0.4310  0.0283
  150SAPE   H6Y16621   6.286   6.121   7.523  0.1137 -1.3970 -2.2678
  150SAPE   C3716622   6.147   6.006   7.644  0.1791 -0.0209  0.2659
  150SAPE   H7X16623   6.204   5.913   7.619 -0.1779 -0.7772  2.2056
  150SAPE   H7Y16624   6.039   5.979   7.640  0.3280 -0.4731 -1.2083
  150SAPE   C3816625   6.180   6.048   7.788  0.1770 -0.1184 -0.4518
  150SAPE   H8X16626   6.111   6.132   7.808  0.7793 -0.1234  1.7040
  150SAPE   H8Y16627   6.276   6.103   7.801 -0.1712 -0.1922  2.6684
  150SAPE   C3916628   6.172   5.940   7.892 -0.2994  0.0651 -0.0603
  150SAPE   H9X16629   6.248   5.864   7.864  1.4924  1.4949  0.8633
  150SAPE   H9Y16630   6.069   5.897   7.890 -0.3390 -0.0087  2.2340
  150SAPE  C31016631   6.195   5.983   8.036 -0.4878  0.3314 -0.0529
  150SAPE  H10X16632   6.103   6.035   8.070 -0.4352  0.0255  0.5561
  150SAPE  H10Y16633   6.289   6.043   8.039  0.5048 -1.0221 -2.3828
  150SAPE  C31116634   6.220   5.863   8.135 -0.7063 -0.2173  0.3230
  150SAPE  H11X16635   6.316   5.815   8.109 -1.3609 -0.4006 -1.8917
  150SAPE  H11Y16636   6.136   5.796   8.104  0.6866 -1.6478 -0.4506
  150SAPE  C31216637   6.225   5.902   8.282 -0.1547  0.3603 -0.2071
  150SAPE  H12X16638   6.246   5.813   8.347 -0.5449  0.7158  0.4112
  150SAPE  H12Y16639   6.126   5.939   8.317 -0.6098 -1.6209  0.6890
  150SAPE  C31316640   6.332   6.004   8.324  0.0837 -0.1569 -0.2550
  150SAPE  H13X16641   6.314   6.098   8.269 -1.2817  0.1136  0.6357
  150SAPE  H13Y16642   6.433   5.971   8.291  0.2918 -0.6599  0.8626
  150SAPE  C31416643   6.322   6.044   8.472 -0.9393 -0.1843  0.2570
  150SAPE  H14X16644   6.226   6.100   8.478 -2.5079 -2.7449 -0.3794
  150SAPE  H14Y16645   6.404   6.115   8.494 -0.3674 -0.9524  0.6284
  150SAPE  C31516646   6.323   5.934   8.583  0.1924  0.9092  0.0524
  150SAPE  H15X16647   6.419   5.879   8.586  0.7157  1.8945  2.2891
  150SAPE  H15Y16648   6.242   5.859   8.572 -0.2392  1.3411  0.2520
  150SAPE  C31616649   6.309   5.988   8.725  0.3662  0.7092  0.2031
  150SAPE  H16X16650   6.222   6.057   8.728 -0.8041 -0.6149 -1.8459
  150SAPE  H16Y16651   6.404   6.041   8.749  0.6468  0.2920  0.0193
  150SAPE  C31716652   6.268   5.873   8.817  0.3725  0.2057 -0.2087
  150SAPE  H17X16653   6.323   5.788   8.773 -1.2508 -1.5800  1.1353
  150SAPE  H17Y16654   6.161   5.852   8.794 -0.4676  1.3034  2.5129
  150SAPE  C31816655   6.285   5.901   8.971  0.4299 -0.1146 -0.2811
  150SAPE  H18X16656   6.243   6.000   8.998 -1.7673 -0.5687 -1.8673
  150SAPE  H18Y16657   6.394   5.910   8.990  0.3788 -0.5152  0.1852
  150SAPE  H18Z16658   6.237   5.810   9.012  2.9947 -2.1664 -1.6279
  151SAPE     N16659   1.468   4.040   6.104  0.0963 -0.1052  0.1644
  151SAPE   HN116660   1.570   4.026   6.087  0.3431  1.3749  0.3461
  151SAPE   HN216661   1.434   3.942   6.099 -2.2935  0.7127 -0.2304
  151SAPE   HN316662   1.415   4.085   6.027  0.8670  2.2376  0.9599
  151SAPE   C1216663   1.459   4.098   6.240  0.2140 -0.6390 -0.4797
  151SAPE  H12A16664   1.353   4.116   6.265  1.0136  1.2569  1.6788
  151SAPE  H12B16665   1.515   4.194   6.246 -0.1794 -0.3688 -1.0838
  151SAPE   C1116666   1.531   4.006   6.336 -0.3422 -0.1691  0.9532
  151SAPE  H11A16667   1.479   3.908   6.338  0.9891 -0.8706  1.4313
  151SAPE  H11B16668   1.519   4.068   6.428 -2.7744  0.5162  0.2160
  151SAPE     P16669   1.748   3.871   6.362 -0.2018 -0.2200  0.1176
  151SAPE   O1316670   1.705   3.751   6.291  0.5368  0.3892  0.1975
  151SAPE   O1416671   1.891   3.899   6.350  0.6858 -0.2069  0.5916
  151SAPE   O1216672   1.666   3.997   6.299  0.0147 -0.1362 -0.1025
  151SAPE   O1116673   1.713   3.855   6.518  0.4688  0.3707  0.2889
  151SAPE    C116674   1.722   3.965   6.609 -0.1851 -0.0363  0.0372
  151SAPE    HA16675   1.797   4.040   6.577  0.3670  0.0329  1.4579
  151SAPE    HB16676   1.625   4.018   6.618  0.7309  1.5571  0.6319
  151SAPE    C216677   1.764   3.926   6.752 -0.3230  0.2461  0.5766
  151SAPE    HS16678   1.873   3.907   6.756 -0.1877  0.8701 -0.0105
  151SAPE   O2116679   1.698   3.804   6.783  0.2182 -0.6132 -0.4954
  151SAPE   C2116680   1.768   3.711   6.846  0.1312  0.0738  0.3820
  151SAPE   O2216681   1.880   3.725   6.888 -0.3283  0.5087  0.3783
  151SAPE   C2216682   1.681   3.583   6.857  0.7151  0.3554  0.3655
  151SAPE   H2R16683   1.585   3.618   6.899  0.7911  0.1038  0.7461
  151SAPE   H2S16684   1.660   3.545   6.755 -0.9743  1.6099  0.2329
  151SAPE    C316685   1.725   4.034   6.851  0.2919 -0.1859 -0.3179
  151SAPE    HX16686   1.615   4.025   6.843  0.1482  1.8726 -0.6846
  151SAPE    HY16687   1.752   4.137   6.821 -1.5352  0.0340 -1.2721
  151SAPE   O3116688   1.754   4.007   6.985 -0.5696  0.1796  0.0194
  151SAPE   C3116689   1.889   4.015   7.005 -1.0128 -0.0842  0.0915
  151SAPE   O3216690   1.970   4.058   6.930 -0.1142 -0.0816  0.4039
  151SAPE   C3216691   1.920   3.957   7.142  0.2857 -0.1352 -0.2188
  151SAPE   H2X16692   1.971   3.862   7.114 -0.5902 -0.0898 -2.0385
  151SAPE   H2Y16693   1.832   3.941   7.207  2.6370  0.3826  3.2272
  151SAPE   C2316694   1.735   3.463   6.933 -0.1172 -0.2897  0.0408
  151SAPE   H3R16695   1.774   3.508   7.027  1.2004 -1.8246  0.2443
  151SAPE   H3S16696   1.825   3.419   6.885  0.0159  0.7424 -0.6675
  151SAPE   C2416697   1.645   3.340   6.977 -0.5773 -0.8851  0.1211
  151SAPE   H4R16698   1.620   3.293   6.879 -2.6654  1.9059 -0.7601
  151SAPE   H4S16699   1.549   3.389   7.005 -0.7035 -1.2481  0.3234
  151SAPE   C2516700   1.706   3.242   7.077  0.6408  0.1062 -0.4875
  151SAPE   H5R16701   1.764   3.164   7.027 -0.2268  0.0121 -1.3735
  151SAPE   C2616702   1.704   3.266   7.213  0.0398 -0.7095  0.0776
  151SAPE   H6R16703   1.737   3.173   7.261  0.0775 -1.6839 -1.7989
  151SAPE   C2716704   1.632   3.372   7.287  0.2094 -0.2439  0.6136
  151SAPE   H7R16705   1.529   3.338   7.310 -0.5602  0.2123 -2.0068
  151SAPE   H7S16706   1.620   3.466   7.230 -2.1565 -1.0736 -0.2911
  151SAPE   C2816707   1.698   3.401   7.417  0.1312 -0.3044 -0.3347
  151SAPE   H8R16708   1.790   3.460   7.416  0.2148 -0.4506 -1.3426
  151SAPE   C2916709   1.649   3.362   7.534 -0.1536 -0.8765 -0.1624
  151SAPE   H9R16710   1.702   3.388   7.627 -2.9539  2.5747  0.5747
  151SAPE  C21016711   1.531   3.270   7.546  0.1581  0.0803 -1.3327
  151SAPE  H10R16712   1.526   3.182   7.478 -1.8943 -0.6748 -0.2291
  151SAPE  H10S16713   1.439   3.324   7.518  0.0226  1.2560  1.2589
  151SAPE  C21116714   1.515   3.209   7.685  0.1147  0.4505 -0.1275
  151SAPE  H11R16715   1.561   3.113   7.712  1.7536  1.8336  2.2118
  151SAPE  C21216716   1.462   3.261   7.793  0.0925 -0.1043  0.1514
  151SAPE  H12R16717   1.452   3.187   7.875  0.4979 -0.1435  0.1662
  151SAPE  C21316718   1.405   3.399   7.812 -0.8337 -0.3160  0.0980
  151SAPE  H13R16719   1.302   3.409   7.771 -1.0992 -3.7256 -0.1511
  151SAPE  H13S16720   1.458   3.462   7.737  1.4228 -0.4150  1.5930
  151SAPE  C21416721   1.428   3.468   7.943 -0.8365  0.7475  0.1043
  151SAPE  H14R16722   1.327   3.501   7.974 -0.6936  2.1516 -0.9033
  151SAPE  C21516723   1.546   3.497   8.005 -0.1081  0.3161  0.0514
  151SAPE  H15R16724   1.547   3.540   8.106  0.7032 -0.9833  0.6131
  151SAPE  C21616725   1.686   3.472   7.950 -0.6835 -0.1530 -0.1888
  151SAPE  H16R16726   1.751   3.555   7.984 -1.3537 -0.0681  0.8916
  151SAPE  H16S16727   1.705   3.485   7.841  2.7140  0.3171  0.3851
  151SAPE  C21716728   1.754   3.335   7.989  0.7368  0.2419 -0.1312
  151SAPE  H17R16729   1.864   3.344   7.975  0.9697 -1.3446  0.5538
  151SAPE  H17S16730   1.735   3.254   7.916 -2.2791  0.3267  0.5127
  151SAPE  C21816731   1.729   3.286   8.135 -0.2523  0.1415 -0.3609
  151SAPE  H18R16732   1.774   3.186   8.151 -0.1719  0.4195  1.1742
  151SAPE  H18S16733   1.620   3.264   8.134  0.1616 -2.1105  1.2081
  151SAPE  C21916734   1.769   3.378   8.253  0.5893  0.4278 -0.4973
  151SAPE  H19R16735   1.740   3.336   8.351 -1.2888 -0.4942 -1.4263
  151SAPE  H19S16736   1.703   3.468   8.256 -0.3580 -0.1575 -2.5349
  151SAPE  C22016737   1.916   3.410   8.245  0.2677  0.2450  0.2060
  151SAPE  H20R16738   1.970   3.315   8.258  1.6356  1.0505  0.4545
  151SAPE  H20S16739   1.944   3.454   8.146  3.2475 -1.8088  0.0729
  151SAPE  H20T16740   1.946   3.484   8.322 -0.5061 -0.2795  1.0186
  151SAPE   C3316741   2.029   4.046   7.213  0.7771 -0.1539 -0.7439
  151SAPE   H3X16742   1.989   4.147   7.190  0.4020 -0.2674 -0.5921
  151SAPE   H3Y16743   2.125   4.043   7.158  1.7278  1.7760  0.7673
  151SAPE   C3416744   2.027   4.018   7.362  0.5262 -0.0178 -1.0760
  151SAPE   H4X16745   1.925   3.985   7.391  0.3875 -0.4560 -2.0340
  151SAPE   H4Y16746   2.055   4.107   7.423 -0.7424 -0.9662  0.9582
  151SAPE   C3516747   2.111   3.894   7.400 -0.6455 -0.2775 -0.0744
  151SAPE   H5X16748   2.218   3.925   7.400 -0.6876 -0.1321 -0.0300
  151SAPE   H5Y16749   2.096   3.819   7.319  0.0032 -0.1042 -0.3566
  151SAPE   C3616750   2.065   3.827   7.533  0.2566  0.9212  0.2732
  151SAPE   H6X16751   1.970   3.773   7.515  1.1383 -0.6952  0.3690
  151SAPE   H6Y16752   2.060   3.894   7.622  1.7829 -0.6954  1.6099
  151SAPE   C3716753   2.166   3.721   7.565 -0.8749 -0.0383 -0.2024
  151SAPE   H7X16754   2.264   3.767   7.588 -0.6985 -0.8526  0.7237
  151SAPE   H7Y16755   2.185   3.651   7.481 -0.1070 -0.5620  0.4072
  151SAPE   C3816756   2.121   3.639   7.687  0.2878 -0.0283  0.0598
  151SAPE   H8X16757   2.183   3.547   7.698 -1.3362 -1.2698 -0.8915
  151SAPE   H8Y16758   2.015   3.607   7.677  0.4557 -0.5268 -0.1488
  151SAPE   C3916759   2.122   3.722   7.821 -0.2598 -0.5679  0.3393
  151SAPE   H9X16760   2.054   3.810   7.813  0.8271  0.1787 -0.8225
  151SAPE   H9Y16761   2.218   3.776   7.838 -2.1129  3.2620 -0.6931
  151SAPE  C31016762   2.072   3.630   7.935  0.1432  0.4007  0.5470
  151SAPE  H10X16763   2.148   3.551   7.954 -0.3806 -0.2425 -0.0148
  151SAPE  H10Y16764   1.970   3.589   7.921  1.0519 -2.2449  1.3187
  151SAPE  C31116765   2.072   3.708   8.067  0.1775 -0.5969  0.6132
  151SAPE  H11X16766   2.062   3.629   8.145 -0.7880 -1.7488 -0.6476
  151SAPE  H11Y16767   1.992   3.785   8.067  1.9273  1.2919  2.9256
  151SAPE  C31216768   2.200   3.787   8.110  0.1403  0.1707 -0.4372
  151SAPE  H12X16769   2.213   3.879   8.049  2.1476  0.3172  0.1715
  151SAPE  H12Y16770   2.293   3.728   8.095  0.7839  0.8099  1.0110
  151SAPE  C31316771   2.192   3.841   8.250  0.2896 -0.2919  0.0353
  151SAPE  H13X16772   2.294   3.874   8.279  1.1086 -2.2127 -0.5416
  151SAPE  H13Y16773   2.159   3.753   8.309  0.2536 -0.7415 -0.6500
  151SAPE  C31416774   2.089   3.955   8.261  0.5534 -0.5188 -0.0126
  151SAPE  H14X16775   1.991   3.938   8.211 -0.6226  2.6418  1.0699
  151SAPE  H14Y16776   2.135   4.040   8.206  0.7780  0.5151  1.7419
  151SAPE  C31516777   2.053   3.985   8.406  0.2062  0.2118  0.3993
  151SAPE  H15X16778   2.138   4.030   8.462 -0.4037  0.9688  0.7179
  151SAPE  H15Y16779   2.026   3.892   8.462  0.2499 -1.9010 -2.9344
  151SAPE  C31616780   1.928   4.076   8.428  0.1033  0.5085 -0.2430
  151SAPE  H16X16781   1.899   4.063   8.535 -3.0170  0.0738 -1.0925
  151SAPE  H16Y16782   1.841   4.056   8.362 -0.3641  0.7031  0.3122
  151SAPE  C31716783   1.952   4.228   8.408 -0.2389  0.9293 -0.1996
  151SAPE  H17X16784   1.912   4.261   8.310 -0.6341 -1.2255 -0.7735
  151SAPE  H17Y16785   2.060   4.251   8.401  0.2614 -0.2101  2.8260
  151SAPE  C31816786   1.891   4.321   8.519  0.0379  0.7994 -0.1347
  151SAPE  H18X16787   1.915   4.427   8.496  1.6488  0.1699 -1.5361
  151SAPE  H18Y16788   1.932   4.285   8.616 -0.7245  1.8865  0.5990
  151SAPE  H18Z16789   1.781   4.305   8.514  0.0054  1.5273 -2.3572
  152SAPE     N16790   4.805   0.753   6.361 -0.4566 -0.5467  0.6269
  152SAPE   HN116791   4.853   0.747   6.269 -0.9981  1.4050  0.2021
  152SAPE   HN216792   4.731   0.679   6.366 -1.3959  0.3865  0.6412
  152SAPE   HN316793   4.765   0.848   6.371  0.0353 -0.1011 -1.5145
  152SAPE   C1216794   4.912   0.721   6.462 -0.6085 -0.0067 -1.1954
  152SAPE  H12A16795   4.948   0.617   6.442 -1.7192 -1.5412  4.1122
  152SAPE  H12B16796   4.863   0.718   6.561  0.8920 -0.4711 -0.4517
  152SAPE   C1116797   5.022   0.825   6.470  0.5619  0.7349  0.7612
  152SAPE  H11A16798   5.085   0.817   6.561 -0.7683  1.2043  1.7394
  152SAPE  H11B16799   4.968   0.916   6.503  0.8773  1.8535 -1.6910
  152SAPE     P16800   5.227   0.778   6.294  0.1499 -0.1231  0.3206
  152SAPE   O1316801   5.173   0.653   6.233  0.4002  0.1440  0.1761
  152SAPE   O1416802   5.311   0.867   6.212 -0.4573 -0.7222 -0.0567
  152SAPE   O1216803   5.093   0.855   6.346 -0.6630 -0.2762 -1.1126
  152SAPE   O1116804   5.305   0.757   6.431 -0.0356  0.4672  0.4988
  152SAPE    C116805   5.336   0.873   6.504  0.1484  1.4394 -0.0170
  152SAPE    HA16806   5.409   0.941   6.455 -0.4980  0.7016 -2.0430
  152SAPE    HB16807   5.245   0.934   6.525  0.2636  1.4390  0.4967
  152SAPE    C216808   5.398   0.832   6.643  0.7144 -0.0873 -0.3228
  152SAPE    HS16809   5.501   0.793   6.628  1.2791  1.4099 -0.4978
  152SAPE   O2116810   5.310   0.731   6.703  0.1629 -0.0207 -0.0283
  152SAPE   C2116811   5.330   0.606   6.660  0.2154 -0.1037 -0.6959
  152SAPE   O2216812   5.415   0.567   6.584 -0.7292 -0.3140 -0.3115
  152SAPE   C2216813   5.212   0.525   6.715 -0.1572  0.0453  0.0380
  152SAPE   H2R16814   5.146   0.588   6.778 -0.5860 -0.0767 -0.2941
  152SAPE   H2S16815   5.142   0.493   6.635 -1.1089 -0.9070  1.2453
  152SAPE    C316816   5.416   0.961   6.727  0.2797  0.0994  0.5760
  152SAPE    HX16817   5.317   1.008   6.708 -0.4119 -1.5181  0.1392
  152SAPE    HY16818   5.493   1.027   6.682 -0.1194  1.8316  2.3618
  152SAPE   O3116819   5.439   0.943   6.872 -0.1764  0.3105  0.0692
  152SAPE   C3116820   5.568   0.912   6.904 -0.1531 -0.7623 -0.7672
  152SAPE   O3216821   5.661   0.912   6.823  0.5391 -0.0527  0.4099
  152SAPE   C3216822   5.579   0.862   7.051  0.3791 -0.4157  0.6859
  152SAPE   H2X16823   5.479   0.823   7.079  0.8342 -2.0482  0.0711
  152SAPE   H2Y16824   5.603   0.952   7.112 -1.8020 -0.2178  1.2878
  152SAPE   C2316825   5.240   0.391   6.785  0.1131 -0.4707  0.1558
  152SAPE   H3R16826   5.327   0.340   6.738 -0.2683  0.7577 -1.9240
  152SAPE   H3S16827   5.148   0.330   6.773 -0.0986 -0.0504 -0.3687
  152SAPE   C2416828   5.271   0.433   6.932  0.2188  0.6499  0.4721
  152SAPE   H4R16829   5.179   0.470   6.983 -0.7067  1.3649 -1.6456
  152SAPE   H4S16830   5.343   0.517   6.940 -0.1143  0.8114  1.8398
  152SAPE   C2516831   5.317   0.315   7.015 -0.1391 -0.6602 -0.1630
  152SAPE   H5R16832   5.273   0.219   6.982 -2.4123  1.2230 -2.8822
  152SAPE   C2616833   5.425   0.317   7.095 -0.4084  0.2952  0.1331
  152SAPE   H6R16834   5.474   0.225   7.130  2.9783  1.8707 -0.3371
  152SAPE   C2716835   5.516   0.440   7.116  0.4444 -0.8496  0.9002
  152SAPE   H7R16836   5.453   0.532   7.116 -0.7275 -1.6322 -0.5980
  152SAPE   H7S16837   5.575   0.453   7.023 -2.6435 -0.9028 -1.1188
  152SAPE   C2816838   5.601   0.437   7.242  0.1319 -0.3248 -0.1974
  152SAPE   H8R16839   5.698   0.386   7.232  1.5511  2.0496  0.9464
  152SAPE   C2916840   5.568   0.483   7.359  0.2733  0.7303 -0.9303
  152SAPE   H9R16841   5.640   0.484   7.442 -0.7742  0.6856 -0.0082
  152SAPE  C21016842   5.436   0.546   7.400 -0.0342  0.5173  0.3023
  152SAPE  H10R16843   5.412   0.621   7.322  0.7804 -0.4334 -0.8857
  152SAPE  H10S16844   5.456   0.614   7.486 -1.8315 -0.0624  1.2175
  152SAPE  C21116845   5.333   0.438   7.408  0.2398  0.0081 -0.6227
  152SAPE  H11R16846   5.297   0.412   7.307  0.5022 -0.0344 -0.7058
  152SAPE  C21216847   5.289   0.369   7.515  0.2192 -0.2400  0.1373
  152SAPE  H12R16848   5.208   0.296   7.501 -0.4879  1.0588 -2.7490
  152SAPE  C21316849   5.346   0.397   7.658  0.2876 -0.0751  0.7799
  152SAPE  H13R16850   5.401   0.494   7.658  0.8338 -0.3878  0.2158
  152SAPE  H13S16851   5.424   0.325   7.691 -0.9350 -0.8787  1.9952
  152SAPE  C21416852   5.227   0.406   7.749  0.0323 -0.6914 -0.2651
  152SAPE  H14R16853   5.146   0.474   7.718 -0.1464 -0.9560 -0.3787
  152SAPE  C21516854   5.216   0.362   7.877  0.0251  0.6331  0.8570
  152SAPE  H15R16855   5.125   0.390   7.931  0.7036  1.8222  1.3983
  152SAPE  C21616856   5.314   0.286   7.955  0.2684  0.0899 -0.0066
  152SAPE  H16R16857   5.375   0.225   7.885 -1.0249 -0.4237 -0.7012
  152SAPE  H16S16858   5.258   0.212   8.016  0.6721 -2.5096 -2.6793
  152SAPE  C21716859   5.394   0.380   8.045  1.2462  0.4890 -0.8488
  152SAPE  H17R16860   5.323   0.416   8.122  0.8929 -0.0930 -0.9021
  152SAPE  H17S16861   5.440   0.462   7.985  1.1358 -0.4505 -2.2289
  152SAPE  C21816862   5.516   0.326   8.121 -0.5682  0.5818  0.5247
  152SAPE  H18R16863   5.595   0.303   8.047  0.0337 -0.1646  1.3884
  152SAPE  H18S16864   5.483   0.226   8.158 -0.6869 -0.3545 -1.9764
  152SAPE  C21916865   5.570   0.420   8.233  0.1031  0.0517  0.0490
  152SAPE  H19R16866   5.482   0.451   8.292 -0.4904  0.8504 -1.2222
  152SAPE  H19S16867   5.600   0.511   8.177  0.1995  0.0995  0.1812
  152SAPE  C22016868   5.675   0.373   8.329 -0.7689 -0.0012  0.0195
  152SAPE  H20R16869   5.634   0.284   8.383 -1.8544 -0.1546 -1.0410
  152SAPE  H20S16870   5.716   0.444   8.403 -1.0633 -1.2337  1.3851
  152SAPE  H20T16871   5.754   0.332   8.261 -3.0505 -2.5117 -1.2055
  152SAPE   C3316872   5.689   0.762   7.076 -0.3436  0.6530 -0.4633
  152SAPE   H3X16873   5.731   0.726   6.979 -0.0125  1.4118 -0.6091
  152SAPE   H3Y16874   5.631   0.685   7.132  2.3395 -1.5518 -0.5676
  152SAPE   C3416875   5.816   0.829   7.138  0.4158  0.2019  0.2246
  152SAPE   H4X16876   5.843   0.912   7.070  2.1840 -0.8579 -0.4011
  152SAPE   H4Y16877   5.889   0.746   7.126  2.4821  1.9594  0.5495
  152SAPE   C3516878   5.812   0.879   7.287 -0.2504 -0.0306 -0.9127
  152SAPE   H5X16879   5.731   0.956   7.284  0.4528  0.7891  0.3750
  152SAPE   H5Y16880   5.911   0.925   7.309 -0.9200  2.2966 -2.5369
  152SAPE   C3616881   5.768   0.760   7.373  1.3684  0.6932  0.5870
  152SAPE   H6X16882   5.828   0.670   7.348  1.6185  1.3419 -1.1769
  152SAPE   H6Y16883   5.658   0.745   7.367  1.2327  2.0316 -0.6395
  152SAPE   C3716884   5.777   0.778   7.533  0.2322  0.7417  0.5947
  152SAPE   H7X16885   5.881   0.757   7.563  0.4309 -0.3053 -0.7623
  152SAPE   H7Y16886   5.712   0.700   7.578 -1.9372  1.1412 -1.6932
  152SAPE   C3816887   5.723   0.913   7.570  0.1545 -0.0258  0.1933
  152SAPE   H8X16888   5.622   0.919   7.526  0.2766  1.5661  0.0967
  152SAPE   H8Y16889   5.785   0.995   7.526 -2.6479  1.4559 -1.1071
  152SAPE   C3916890   5.711   0.924   7.726  0.1692 -0.7333 -0.7610
  152SAPE   H9X16891   5.624   0.858   7.747  2.0136 -2.5040  1.7033
  152SAPE   H9Y16892   5.675   1.028   7.735  0.5863 -0.6712  0.3832
  152SAPE  C31016893   5.843   0.914   7.805 -1.2957  1.3143 -0.1079
  152SAPE  H10X16894   5.927   0.966   7.753  0.1883  0.0547  0.9845
  152SAPE  H10Y16895   5.883   0.812   7.819 -0.6262  1.4484 -0.9941
  152SAPE  C31116896   5.823   0.968   7.951  0.2267  0.4546  0.1510
  152SAPE  H11X16897   5.791   1.074   7.948 -1.5085 -0.0043  1.1470
  152SAPE  H11Y16898   5.924   0.972   7.996  0.1404  2.3875  0.2112
  152SAPE  C31216899   5.734   0.878   8.038  0.3712  0.7060  0.2598
  152SAPE  H12X16900   5.791   0.783   8.053 -1.2540 -0.0636  1.7789
  152SAPE  H12Y16901   5.643   0.856   7.978 -1.3664 -0.5591  3.2261
  152SAPE  C31316902   5.685   0.945   8.162  0.0612  0.0274 -0.4856
  152SAPE  H13X16903   5.618   0.872   8.213  1.6413 -0.8300  0.4118
  152SAPE  H13Y16904   5.634   1.042   8.146  3.0969  1.9321  0.8080
  152SAPE  C31416905   5.800   0.972   8.266  0.0284  0.5984  0.3685
  152SAPE  H14X16906   5.739   1.011   8.351 -1.4624 -1.1631  0.1521
  152SAPE  H14Y16907   5.867   1.049   8.224  2.7369 -1.9240 -0.0920
  152SAPE  C31516908   5.878   0.843   8.302  0.0857 -1.1512 -0.1522
  152SAPE  H15X16909   5.953   0.818   8.224  1.0296  2.6970 -0.6124
  152SAPE  H15Y16910   5.815   0.755   8.325  0.5559 -1.4068  0.1758
  152SAPE  C31616911   5.955   0.848   8.434  0.3703 -0.5551 -0.1257
  152SAPE  H16X16912   6.006   0.750   8.442  0.4881 -0.4954 -0.1322
  152SAPE  H16Y16913   5.880   0.862   8.514  1.3755  2.1925  0.4153
  152SAPE  C31716914   6.057   0.961   8.434 -0.6360 -0.3385  1.1592
  152SAPE  H17X16915   6.005   1.059   8.436  0.4217  0.2135  1.9959
  152SAPE  H17Y16916   6.120   0.959   8.343 -1.7749  1.4617  0.3006
  152SAPE  C31816917   6.140   0.959   8.564 -0.0896 -0.3138  0.3091
  152SAPE  H18X16918   6.085   0.906   8.644  2.3312 -0.7471  1.7190
  152SAPE  H18Y16919   6.155   1.064   8.598  1.6969 -0.2224 -0.6849
  152SAPE  H18Z16920   6.242   0.916   8.557 -1.0052 -2.9004  2.4691
  153SAPE     N16921   2.253   0.930   6.616 -0.0697 -0.6142 -0.0984
  153SAPE   HN116922   2.271   0.891   6.521 -1.1920 -0.0282 -0.5646
  153SAPE   HN216923   2.326   0.998   6.644 -1.5958  1.1807 -0.3607
  153SAPE   HN316924   2.239   0.853   6.685 -1.6022  0.6957  1.0909
  153SAPE   C1216925   2.127   1.006   6.623  0.0461 -0.4487 -0.3237
  153SAPE  H12A16926   2.124   1.080   6.706  1.9576 -2.4633  1.6233
  153SAPE  H12B16927   2.040   0.938   6.639 -0.2512  0.2796  1.2440
  153SAPE   C1116928   2.097   1.073   6.490  0.4983  0.2019 -0.2245
  153SAPE  H11A16929   2.015   1.145   6.512 -0.6922 -1.6473  1.4939
  153SAPE  H11B16930   2.046   1.003   6.420 -2.5396  2.3235 -0.2310
  153SAPE     P16931   2.238   1.289   6.437  0.2471  0.1003  0.0390
  153SAPE   O1316932   2.385   1.311   6.423  0.2314  0.3291 -0.1874
  153SAPE   O1416933   2.145   1.357   6.344  0.4853  0.1365 -0.1497
  153SAPE   O1216934   2.213   1.131   6.429 -0.1542 -0.0088 -0.4887
  153SAPE   O1116935   2.200   1.317   6.580  0.2135  0.1043 -0.7717
  153SAPE    C116936   2.227   1.438   6.648  0.3597  0.4769  0.0704
  153SAPE    HA16937   2.336   1.456   6.664  0.2598 -0.4059  1.8646
  153SAPE    HB16938   2.185   1.531   6.604  1.7226  0.9517 -0.2523
  153SAPE    C216939   2.150   1.444   6.785  0.2615 -0.3878 -0.6542
  153SAPE    HS16940   2.160   1.545   6.829  1.3594 -1.1297  0.8518
  153SAPE   O2116941   2.205   1.347   6.880 -0.0752  0.2956 -0.0962
  153SAPE   C2116942   2.333   1.380   6.915  0.4442 -0.8621 -0.5227
  153SAPE   O2216943   2.394   1.482   6.889  0.1521 -0.6483  0.3090
  153SAPE   C2216944   2.395   1.266   6.990 -0.0959  0.4702 -0.1177
  153SAPE   H2R16945   2.367   1.161   6.963  1.3656  0.4094 -1.5200
  153SAPE   H2S16946   2.505   1.269   6.970  0.0812  0.7967  0.8951
  153SAPE    C316947   1.997   1.419   6.760  0.3809  0.2848 -0.0478
  153SAPE    HX16948   1.993   1.316   6.719 -0.7363 -0.4416  1.8255
  153SAPE    HY16949   1.954   1.491   6.688 -1.2119 -0.6440 -0.0323
  153SAPE   O3116950   1.927   1.436   6.891  0.1951  0.5802  0.6934
  153SAPE   C3116951   1.886   1.333   6.952 -0.4028  0.2211 -0.0816
  153SAPE   O3216952   1.901   1.218   6.914  0.0989  0.3572 -0.4054
  153SAPE   C3216953   1.824   1.380   7.088 -0.0137 -0.2454  0.3748
  153SAPE   H2X16954   1.731   1.430   7.053  0.6559 -0.8253 -2.3708
  153SAPE   H2Y16955   1.894   1.458   7.123  1.0603 -1.4854  1.0325
  153SAPE   C2316956   2.383   1.285   7.141 -0.0902 -0.3868 -0.1445
  153SAPE   H3R16957   2.417   1.388   7.167  0.9177 -0.7410 -0.0406
  153SAPE   H3S16958   2.452   1.215   7.192  1.5508  0.9676 -0.4517
  153SAPE   C2416959   2.243   1.262   7.196 -0.0349  0.8154  0.0771
  153SAPE   H4R16960   2.175   1.328   7.138  1.1734  1.4294 -0.6401
  153SAPE   H4S16961   2.235   1.301   7.300  1.9793  1.0507  0.1590
  153SAPE   C2516962   2.190   1.123   7.197  0.2062  0.8301  0.2446
  153SAPE   H5R16963   2.157   1.091   7.098 -0.4832  1.2750  0.3320
  153SAPE   C2616964   2.215   1.028   7.292  0.1779  0.5149  0.3729
  153SAPE   H6R16965   2.173   0.927   7.278  0.1873  0.4188  1.0461
  153SAPE   C2716966   2.284   1.036   7.427 -0.9697 -0.2043  0.1308
  153SAPE   H7R16967   2.340   1.132   7.428 -0.1928 -0.6397  2.7524
  153SAPE   H7S16968   2.358   0.953   7.432  0.0728  0.5953 -1.4648
  153SAPE   C2816969   2.192   1.059   7.542  0.2112  0.3116 -0.3826
  153SAPE   H8R16970   2.085   1.074   7.523 -0.1634  1.2131  2.2134
  153SAPE   C2916971   2.221   1.053   7.676 -0.2778  0.0187  0.2435
  153SAPE   H9R16972   2.149   1.072   7.757  0.2034  2.1618  0.1872
  153SAPE  C21016973   2.360   1.043   7.720 -0.2839 -0.1212  0.2966
  153SAPE  H10R16974   2.372   1.136   7.779  0.3973 -0.0878  0.1170
  153SAPE  H10S16975   2.437   1.042   7.639  0.1759  1.7961  0.6723
  153SAPE  C21116976   2.385   0.928   7.816  0.6178  0.3565  0.0729
  153SAPE  H11R16977   2.392   0.825   7.778  0.6023  0.4232 -0.1108
  153SAPE  C21216978   2.395   0.943   7.952  0.2741  0.0680  1.3155
  153SAPE  H12R16979   2.403   0.851   8.010  0.0039  0.7161  2.4016
  153SAPE  C21316980   2.378   1.067   8.035 -0.1904  0.0039  0.8601
  153SAPE  H13R16981   2.271   1.076   8.062 -0.5498 -1.6252  0.0284
  153SAPE  H13S16982   2.407   1.159   7.979 -2.3690  1.1343  1.5216
  153SAPE  C21416983   2.456   1.061   8.162 -0.8742 -0.1096 -0.4642
  153SAPE  H14R16984   2.557   1.018   8.150 -1.2718 -0.2094 -3.9745
  153SAPE  C21516985   2.423   1.113   8.289 -0.2761 -0.5416 -0.2952
  153SAPE  H15R16986   2.484   1.104   8.380 -0.6817  1.7378  0.2186
  153SAPE  C21616987   2.294   1.191   8.312  0.6042 -0.2564 -0.1453
  153SAPE  H16R16988   2.235   1.200   8.219 -0.4411 -1.5453  0.3748
  153SAPE  H16S16989   2.322   1.290   8.353 -0.5854 -0.0448  0.1620
  153SAPE  C21716990   2.205   1.132   8.422 -0.7414 -0.0362  0.0802
  153SAPE  H17R16991   2.132   1.210   8.452 -1.2406 -1.5260  2.8819
  153SAPE  H17S16992   2.260   1.118   8.517  0.2949 -1.6537 -0.7290
  153SAPE  C21816993   2.141   0.996   8.377  0.0552 -1.2864  0.6391
  153SAPE  H18R16994   2.217   0.914   8.373  1.0334 -0.3089 -1.5768
  153SAPE  H18S16995   2.091   1.004   8.279 -1.2527 -0.9465  1.3176
  153SAPE  C21916996   2.027   0.947   8.472 -0.4552 -0.2972 -0.1348
  153SAPE  H19R16997   1.956   0.872   8.432  1.4149 -1.5146 -1.2873
  153SAPE  H19S16998   1.959   1.032   8.492  0.0354 -0.2636  1.4781
  153SAPE  C22016999   2.075   0.888   8.609  0.0614 -0.4371 -0.3822
  153SAPE  H20R17000   2.186   0.895   8.613  0.5012 -5.0844 -1.1031
  153SAPE  H20S17001   2.051   0.782   8.633 -0.6994  0.2656  2.0842
  153SAPE  H20T17002   2.040   0.947   8.696  0.2326  0.2248 -0.7628
  153SAPE   C3317003   1.779   1.277   7.192  0.5554  1.0740 -0.5122
  153SAPE   H3X17004   1.865   1.218   7.232  0.1156  1.1844  0.6063
  153SAPE   H3Y17005   1.727   1.193   7.142  0.4728  0.4348  0.6346
  153SAPE   C3417006   1.694   1.337   7.312  0.0496 -0.2249 -0.3507
  153SAPE   H4X17007   1.669   1.263   7.391  0.1154  1.4996  1.3319
  153SAPE   H4Y17008   1.602   1.371   7.260  0.2830  0.0631 -0.5770
  153SAPE   C3517009   1.776   1.456   7.383 -0.4988 -0.1323 -0.1349
  153SAPE   H5X17010   1.697   1.521   7.427 -0.9935 -0.7705 -0.0674
  153SAPE   H5Y17011   1.823   1.521   7.306  0.4896  1.6811  1.9541
  153SAPE   C3617012   1.877   1.407   7.488 -0.1955  0.6795  0.9564
  153SAPE   H6X17013   1.898   1.304   7.451 -0.3173  1.4735 -1.3965
  153SAPE   H6Y17014   1.837   1.400   7.592 -1.4279 -0.2417  0.4308
  153SAPE   C3717015   1.999   1.496   7.480 -0.5532 -0.5695 -0.5422
  153SAPE   H7X17016   1.971   1.596   7.521 -0.9173 -0.2868 -1.4648
  153SAPE   H7Y17017   2.040   1.508   7.378  2.3544 -1.0357  0.5315
  153SAPE   C3817018   2.112   1.444   7.566  0.0668  0.4176  0.9358
  153SAPE   H8X17019   2.199   1.509   7.542  0.1699  0.3364  1.0917
  153SAPE   H8Y17020   2.149   1.344   7.534 -1.2977  1.0044 -2.7886
  153SAPE   C3917021   2.083   1.436   7.711  0.3881  1.1619  0.3965
  153SAPE   H9X17022   2.026   1.342   7.724  2.7842 -0.4047 -0.1849
  153SAPE   H9Y17023   2.011   1.514   7.746 -0.6192  0.4362 -0.0572
  153SAPE  C31017024   2.211   1.440   7.792 -0.8145 -0.4874 -0.0856
  153SAPE  H10X17025   2.262   1.539   7.789 -1.4167 -0.1533  0.4336
  153SAPE  H10Y17026   2.281   1.360   7.762  0.3300 -0.1834  1.6676
  153SAPE  C31117027   2.190   1.427   7.942 -0.2268 -0.2627  0.7083
  153SAPE  H11X17028   2.285   1.391   7.987 -1.3282 -1.5813  2.0089
  153SAPE  H11Y17029   2.122   1.342   7.963  0.1556 -0.9406 -0.6907
  153SAPE  C31217030   2.146   1.551   8.021 -0.5937 -0.5178  0.5117
  153SAPE  H12X17031   2.065   1.601   7.963 -1.1829 -0.5625  1.2816
  153SAPE  H12Y17032   2.228   1.625   8.012 -1.6507  0.6376  0.1570
  153SAPE  C31317033   2.114   1.539   8.172 -0.4944 -0.0716  0.2388
  153SAPE  H13X17034   2.202   1.496   8.223 -0.3986 -1.9184 -1.4013
  153SAPE  H13Y17035   2.021   1.479   8.167 -1.1851  1.0396 -0.4076
  153SAPE  C31417036   2.091   1.675   8.248 -0.0898  0.8228 -0.1736
  153SAPE  H14X17037   2.012   1.733   8.197 -0.3760  1.3110  0.8177
  153SAPE  H14Y17038   2.180   1.739   8.229 -0.3972  1.0018 -1.0276
  153SAPE  C31517039   2.082   1.647   8.402 -0.0131 -0.2579  0.4433
  153SAPE  H15X17040   2.079   1.737   8.467  2.3782 -1.0977  1.8000
  153SAPE  H15Y17041   2.181   1.600   8.420  0.5906  1.3705  1.4427
  153SAPE  C31617042   1.974   1.554   8.459 -0.3460 -0.1875 -0.1510
  153SAPE  H16X17043   1.990   1.456   8.408 -0.5774  0.2425 -1.0494
  153SAPE  H16Y17044   1.868   1.583   8.443 -0.8587 -0.1102  2.9867
  153SAPE  C31717045   1.998   1.523   8.612 -1.0053 -0.3846  0.5563
  153SAPE  H17X17046   1.914   1.467   8.658 -1.3446 -0.0062  0.3974
  153SAPE  H17Y17047   1.987   1.623   8.659  2.9859  0.5888 -0.3652
  153SAPE  C31817048   2.118   1.445   8.655 -0.0603 -0.8552  0.3775
  153SAPE  H18X17049   2.211   1.474   8.602  0.4439 -1.8518  0.6860
  153SAPE  H18Y17050   2.095   1.338   8.636 -2.7195  0.2081 -2.8190
  153SAPE  H18Z17051   2.129   1.460   8.765  0.1713  1.9221  0.0141
  154SAPE     N17052   6.724   6.634   6.003  0.6596  0.1427  0.3377
  154SAPE   HN117053   6.679   6.555   5.954  1.6674  0.3722 -1.0043
  154SAPE   HN217054   6.688   6.718   5.953  2.3177  0.4086 -0.4353
  154SAPE   HN317055   6.827   6.621   5.999  0.7066  0.7947 -0.8888
  154SAPE   C1217056   6.695   6.645   6.147 -0.0415  0.2303 -0.1419
  154SAPE  H12A17057   6.724   6.554   6.202  1.1255  0.4594 -0.3716
  154SAPE  H12B17058   6.584   6.653   6.158 -0.2632 -2.6121 -0.1314
  154SAPE   C1117059   6.779   6.764   6.204  0.6782 -0.5635 -0.2235
  154SAPE  H11A17060   6.882   6.722   6.197 -0.0265 -2.3373 -0.3761
  154SAPE  H11B17061   6.769   6.785   6.313  1.0656  1.5332 -0.5835
  154SAPE     P17062   6.709   7.020   6.166 -0.3031  0.6920 -0.6165
  154SAPE   O1317063   6.775   7.131   6.095  0.2225 -0.0556  0.0146
  154SAPE   O1417064   6.563   7.014   6.162 -0.8014 -0.0956  0.4114
  154SAPE   O1217065   6.769   6.880   6.125  0.0232  0.0177 -0.2471
  154SAPE   O1117066   6.774   7.022   6.310  0.2871  0.2843 -0.2930
  154SAPE    C117067   6.684   7.025   6.424 -0.7331 -0.7540 -0.4692
  154SAPE    HA17068   6.637   7.122   6.448  1.1341 -0.1758  0.9720
  154SAPE    HB17069   6.612   6.941   6.415  0.0632 -1.2810 -2.2324
  154SAPE    C217070   6.766   7.012   6.563  0.3350  0.0146  0.0584
  154SAPE    HS17071   6.694   7.004   6.647 -0.7276 -2.0114 -1.0145
  154SAPE   O2117072   6.864   7.113   6.577  0.6480 -0.3667 -0.3066
  154SAPE   C2117073   6.817   7.236   6.600  0.1015  0.0555 -0.0788
  154SAPE   O2217074   6.701   7.267   6.603 -0.3077 -0.3510 -0.1810
  154SAPE   C2217075   6.932   7.337   6.613 -0.1539  0.1204 -0.0238
  154SAPE   H2R17076   6.993   7.322   6.521 -0.8532 -3.7657  0.0869
  154SAPE   H2S17077   6.884   7.437   6.615  2.2501  1.2925  0.7682
  154SAPE    C317078   6.853   6.876   6.569 -1.0892  0.6145 -0.5823
  154SAPE    HX17079   6.897   6.863   6.670 -1.8393 -1.2990 -0.4931
  154SAPE    HY17080   6.933   6.882   6.492  0.4440 -1.3461  0.7975
  154SAPE   O3117081   6.774   6.758   6.540 -0.2978 -0.2389  0.3465
  154SAPE   C3117082   6.701   6.714   6.641  0.5260  0.8185 -0.1155
  154SAPE   O3217083   6.697   6.774   6.748  0.4554  0.2655 -0.4668
  154SAPE   C3217084   6.637   6.586   6.600  0.5166  0.2045 -0.4113
  154SAPE   H2X17085   6.677   6.549   6.503 -0.1169  0.7735 -0.8927
  154SAPE   H2Y17086   6.527   6.595   6.582  0.8674 -0.6766 -3.2060
  154SAPE   C2317087   7.014   7.310   6.744  0.1547 -0.6599  0.1024
  154SAPE   H3R17088   7.092   7.389   6.750 -1.9524  1.8525 -3.6313
  154SAPE   H3S17089   7.070   7.216   6.725  2.0542  0.3080  0.7863
  154SAPE   C2417090   6.932   7.305   6.874  0.6406 -0.0586  0.0869
  154SAPE   H4R17091   6.990   7.254   6.954  0.3010  0.8245  0.8931
  154SAPE   H4S17092   6.851   7.229   6.867  1.7264 -1.0199 -3.0146
  154SAPE   C2517093   6.885   7.442   6.914 -0.3253  0.1045  0.7483
  154SAPE   H5R17094   6.825   7.479   6.829  0.9139  0.4068 -0.0128
  154SAPE   C2617095   6.897   7.521   7.024 -0.2262 -0.1689  0.0875
  154SAPE   H6R17096   6.842   7.615   7.014 -0.6951 -0.3508  0.9745
  154SAPE   C2717097   6.968   7.478   7.153  0.0521 -0.2650  0.7088
  154SAPE   H7R17098   7.010   7.376   7.140  0.3767  0.2824 -3.0188
  154SAPE   H7S17099   6.886   7.466   7.228  0.3729  0.3063  1.1530
  154SAPE   C2817100   7.075   7.566   7.215 -0.3486 -0.2214 -0.9424
  154SAPE   H8R17101   7.137   7.636   7.157 -3.6366 -0.1088 -4.5876
  154SAPE   C2917102   7.095   7.570   7.350 -0.4417  0.3306 -0.1138
  154SAPE   H9R17103   7.167   7.644   7.389  0.5134 -0.0638 -1.1143
  154SAPE  C21017104   7.021   7.486   7.455 -0.4319  0.4681  0.5742
  154SAPE  H10R17105   7.089   7.428   7.520  1.5552  0.5172 -1.4266
  154SAPE  H10S17106   6.968   7.401   7.407  1.3947  0.7388 -1.9774
  154SAPE  C21117107   6.929   7.568   7.543 -0.9607  0.5694  0.4476
  154SAPE  H11R17108   6.849   7.621   7.490  0.3756  1.6499 -0.5258
  154SAPE  C21217109   6.950   7.603   7.675  0.5436  0.3987 -0.0528
  154SAPE  H12R17110   6.873   7.666   7.722 -0.6718 -0.6522 -0.5919
  154SAPE  C21317111   7.065   7.563   7.762 -0.1694 -0.6291  0.0425
  154SAPE  H13R17112   7.157   7.558   7.700  0.2115  3.1136  0.1558
  154SAPE  H13S17113   7.047   7.464   7.809 -0.2572 -0.4236  0.4460
  154SAPE  C21417114   7.081   7.672   7.872 -0.0360  0.6872 -0.4526
  154SAPE  H14R17115   7.170   7.735   7.859  0.2278  1.1596  3.1828
  154SAPE  C21517116   6.998   7.703   7.977 -0.2376 -0.3723 -0.0454
  154SAPE  H15R17117   7.036   7.770   8.055  0.6135  0.9650 -1.5760
  154SAPE  C21617118   6.869   7.624   7.997  0.0698 -0.0462 -0.0315
  154SAPE  H16R17119   6.861   7.538   7.928  0.2189  0.2943 -0.4725
  154SAPE  H16S17120   6.779   7.689   7.988  0.8786  1.3711  1.6038
  154SAPE  C21717121   6.869   7.557   8.138  0.0846  0.2791 -0.0094
  154SAPE  H17R17122   6.907   7.625   8.218  0.5917 -1.7677  1.5300
  154SAPE  H17S17123   6.929   7.464   8.126 -1.3208 -0.9144  1.9257
  154SAPE  C21817124   6.728   7.508   8.176 -0.5208 -1.2496  0.3234
  154SAPE  H18R17125   6.693   7.440   8.096 -2.5093 -0.6845  0.7002
  154SAPE  H18S17126   6.659   7.595   8.178 -0.0355 -0.8275 -0.8526
  154SAPE  C21917127   6.730   7.442   8.317 -0.3735 -0.1155 -0.4727
  154SAPE  H19R17128   6.786   7.505   8.389  1.0381 -3.5956  1.6087
  154SAPE  H19S17129   6.786   7.346   8.318 -2.6737 -1.5022  1.5381
  154SAPE  C22017130   6.587   7.416   8.363 -0.1042  0.4730  0.2592
  154SAPE  H20R17131   6.514   7.499   8.369  0.4213  1.0982 -1.4903
  154SAPE  H20S17132   6.575   7.373   8.464 -1.0621  0.4301  0.1283
  154SAPE  H20T17133   6.547   7.337   8.296 -1.2523  1.4526 -0.2248
  154SAPE   C3317134   6.654   6.468   6.699  0.3519 -0.2694 -0.0337
  154SAPE   H3X17135   6.755   6.471   6.745  0.7875  0.0054 -0.9966
  154SAPE   H3Y17136   6.632   6.371   6.650 -1.0774 -0.3550  0.7589
  154SAPE   C3417137   6.558   6.474   6.815  0.4408 -0.6116  0.1266
  154SAPE   H4X17138   6.448   6.469   6.799  0.3204  0.8005  0.4694
  154SAPE   H4Y17139   6.578   6.571   6.865 -1.4466 -1.3725  2.4370
  154SAPE   C3517140   6.594   6.380   6.930 -0.0705 -0.6025  0.0927
  154SAPE   H5X17141   6.704   6.383   6.947 -0.1685 -0.1319  0.6749
  154SAPE   H5Y17142   6.574   6.277   6.894 -0.1902 -0.0858 -1.3281
  154SAPE   C3617143   6.509   6.407   7.058 -0.6492  0.4422  0.8683
  154SAPE   H6X17144   6.401   6.385   7.042 -1.0437  1.7301  1.6241
  154SAPE   H6Y17145   6.526   6.516   7.071  1.4213  0.5249 -2.2103
  154SAPE   C3717146   6.571   6.341   7.183  0.4164  0.1637  0.0002
  154SAPE   H7X17147   6.676   6.379   7.181  0.9822 -1.3683 -3.9513
  154SAPE   H7Y17148   6.575   6.231   7.170 -2.0637  0.1479 -0.9446
  154SAPE   C3817149   6.497   6.385   7.312 -0.3877 -0.3085 -0.5422
  154SAPE   H8X17150   6.401   6.330   7.328  1.1384 -3.0931 -0.5803
  154SAPE   H8Y17151   6.479   6.494   7.301 -1.5780 -0.3968  0.4396
  154SAPE   C3917152   6.586   6.368   7.435 -0.3136  0.5030  0.3535
  154SAPE   H9X17153   6.582   6.463   7.493  0.5558  1.1529 -0.6197
  154SAPE   H9Y17154   6.692   6.350   7.407  0.2946  2.9042  0.9603
  154SAPE  C31017155   6.542   6.253   7.530 -0.0627  0.1262  0.7724
  154SAPE  H10X17156   6.534   6.156   7.477  1.0936  1.9850 -3.0110
  154SAPE  H10Y17157   6.437   6.286   7.547 -0.3813  0.8337 -2.3276
  154SAPE  C31117158   6.627   6.255   7.658 -0.1486  0.3986 -0.0683
  154SAPE  H11X17159   6.674   6.354   7.672  2.1022 -0.6879  0.3612
  154SAPE  H11Y17160   6.713   6.186   7.642 -1.1111 -0.6331 -0.8865
  154SAPE  C31217161   6.549   6.221   7.785  0.2476  0.6391  0.0112
  154SAPE  H12X17162   6.498   6.122   7.784  1.0999  0.1861  1.1255
  154SAPE  H12Y17163   6.478   6.301   7.816  0.4677  0.6287  0.5421
  154SAPE  C31317164   6.636   6.212   7.913  0.6086 -0.4081 -0.1680
  154SAPE  H13X17165   6.694   6.307   7.905 -1.3658  0.7245 -1.3345
  154SAPE  H13Y17166   6.717   6.135   7.914  1.0762  0.0535 -1.3377
  154SAPE  C31417167   6.550   6.190   8.040  0.5530 -1.2597 -0.6937
  154SAPE  H14X17168   6.529   6.081   8.037 -1.6948 -0.8342 -1.1932
  154SAPE  H14Y17169   6.450   6.238   8.032  0.1928 -1.7878  0.5588
  154SAPE  C31517170   6.605   6.239   8.171  0.2075 -0.0949 -0.3836
  154SAPE  H15X17171   6.534   6.230   8.255  0.7658 -0.4805  0.0481
  154SAPE  H15Y17172   6.632   6.346   8.156 -0.9696  0.0357 -1.6194
  154SAPE  C31617173   6.746   6.175   8.198 -0.3555  0.2776  0.2136
  154SAPE  H16X17174   6.790   6.234   8.281 -0.3825  0.6461 -0.0331
  154SAPE  H16Y17175   6.805   6.182   8.104 -0.2613  0.6223  0.2963
  154SAPE  C31717176   6.740   6.036   8.251 -0.1992  0.1249 -0.4788
  154SAPE  H17X17177   6.709   5.962   8.174  0.0757  1.1632 -1.5975
  154SAPE  H17Y17178   6.664   6.040   8.333  2.0352  1.3148  1.6088
  154SAPE  C31817179   6.870   5.977   8.318  0.1414  0.1237 -0.8184
  154SAPE  H18X17180   6.837   5.881   8.365  0.8715 -0.8159 -2.1764
  154SAPE  H18Y17181   6.913   6.046   8.393  1.4573 -1.8840  0.3169
  154SAPE  H18Z17182   6.961   5.954   8.259  0.8911  2.1140 -0.4477
  155SAPE     N17183   6.606   1.487   6.262 -0.4960 -0.2653  0.1919
  155SAPE   HN117184   6.525   1.424   6.246 -1.8098  0.8652  2.1730
  155SAPE   HN217185   6.653   1.517   6.174 -1.9237 -1.5425 -1.0408
  155SAPE   HN317186   6.686   1.441   6.310  0.4008  0.4263 -0.6032
  155SAPE   C1217187   6.571   1.608   6.345 -0.1526 -0.0090  0.0662
  155SAPE  H12A17188   6.509   1.574   6.431  1.1048 -2.1184  0.1711
  155SAPE  H12B17189   6.520   1.679   6.275  2.0210  1.7499  0.2224
  155SAPE   C1117190   6.706   1.671   6.396  0.9144 -0.3836 -0.1490
  155SAPE  H11A17191   6.669   1.766   6.439 -1.8818 -0.0533 -3.0853
  155SAPE  H11B17192   6.779   1.707   6.319  1.5678 -0.1634  0.5711
  155SAPE     P17193   6.889   1.499   6.462  0.3421  0.0371 -0.4790
  155SAPE   O1317194   6.830   1.398   6.376 -0.1521  0.2949  0.1914
  155SAPE   O1417195   6.992   1.587   6.408 -0.1471  0.3848 -0.3400
  155SAPE   O1217196   6.770   1.599   6.498 -0.3788 -0.1362  0.0813
  155SAPE   O1117197   6.929   1.439   6.598  0.0824  0.0564 -0.2254
  155SAPE    C117198   7.027   1.490   6.692 -0.6698 -0.2842  0.1136
  155SAPE    HA17199   7.127   1.490   6.644  0.3569  1.7792  2.1547
  155SAPE    HB17200   7.015   1.597   6.719  2.4194  0.1243 -0.0228
  155SAPE    C217201   7.024   1.405   6.822 -0.1628 -0.6132  0.3731
  155SAPE    HS17202   7.109   1.447   6.881 -0.2085  0.6937 -0.4782
  155SAPE   O2117203   7.043   1.256   6.796  0.2497 -0.1037 -0.3909
  155SAPE   C2117204   7.166   1.220   6.771  0.0080 -0.2622 -0.4009
  155SAPE   O2217205   7.263   1.295   6.767  0.0043  0.0146  0.2938
  155SAPE   C2217206   7.170   1.065   6.735 -0.0876  0.2854  0.0783
  155SAPE   H2R17207   7.075   1.015   6.764  0.0922  0.1858  0.5073
  155SAPE   H2S17208   7.178   1.064   6.624 -0.5584  2.8273  0.0041
  155SAPE    C317209   6.896   1.424   6.906 -0.2753 -0.2280 -0.1504
  155SAPE    HX17210   6.809   1.365   6.870 -0.4116 -0.7819  1.0489
  155SAPE    HY17211   6.869   1.532   6.910  3.3489  0.7611 -0.9973
  155SAPE   O3117212   6.922   1.383   7.043 -0.3701  0.3348 -0.4823
  155SAPE   C3117213   6.868   1.272   7.091  0.0070  0.2824  0.2423
  155SAPE   O3217214   6.787   1.201   7.029 -0.5215 -0.3733  0.1737
  155SAPE   C3217215   6.911   1.260   7.237 -0.0482  0.8187 -0.1706
  155SAPE   H2X17216   6.864   1.339   7.300  0.0245  1.4200 -0.8636
  155SAPE   H2Y17217   7.020   1.280   7.239  0.4328 -1.6579  0.5647
  155SAPE   C2317218   7.289   0.995   6.799 -0.4537  0.8036 -0.2858
  155SAPE   H3R17219   7.376   1.055   6.765 -1.1692  1.6348 -0.6800
  155SAPE   H3S17220   7.302   0.895   6.754  2.9964  1.1493 -0.2053
  155SAPE   C2417221   7.270   1.001   6.955 -0.0716 -0.5507  0.1679
  155SAPE   H4R17222   7.212   0.912   6.987  1.8039 -1.8303  0.0808
  155SAPE   H4S17223   7.205   1.086   6.986  1.6246  1.3037 -1.2073
  155SAPE   C2517224   7.399   1.019   7.025 -0.1809  0.1090  0.5052
  155SAPE   H5R17225   7.490   1.003   6.965  0.1620 -1.0238  1.2979
  155SAPE   C2617226   7.422   1.043   7.151 -0.8384  0.9170 -0.0192
  155SAPE   H6R17227   7.524   1.062   7.188 -0.8144 -1.7305  1.3829
  155SAPE   C2717228   7.318   1.056   7.257 -0.5596 -0.9620  0.0813
  155SAPE   H7R17229   7.299   0.957   7.303 -1.4957 -1.3459 -1.0921
  155SAPE   H7S17230   7.226   1.098   7.210  1.0121  0.5907 -1.6627
  155SAPE   C2817231   7.355   1.147   7.373  1.0285 -0.4177  0.1320
  155SAPE   H8R17232   7.305   1.245   7.379 -0.3004 -1.1199  0.8948
  155SAPE   C2917233   7.442   1.110   7.476 -0.4414  0.4046 -0.5714
  155SAPE   H9R17234   7.454   1.179   7.560  1.3200 -1.2917  0.6044
  155SAPE  C21017235   7.508   0.975   7.494 -0.2556  0.0717  0.2642
  155SAPE  H10R17236   7.611   0.999   7.527 -0.0033  1.2906 -1.3502
  155SAPE  H10S17237   7.533   0.927   7.398 -0.7156  0.3916 -0.0171
  155SAPE  C21117238   7.446   0.874   7.590  0.0941 -0.1164  0.0607
  155SAPE  H11R17239   7.355   0.829   7.548  0.0277  0.9342 -0.9457
  155SAPE  C21217240   7.467   0.847   7.722 -0.4569  0.7843  0.7528
  155SAPE  H12R17241   7.405   0.772   7.773 -0.7103  1.4052  1.3782
  155SAPE  C21317242   7.568   0.922   7.816  0.5824  0.2438  0.1277
  155SAPE  H13R17243   7.503   0.998   7.865  0.3061  0.4823 -0.6101
  155SAPE  H13S17244   7.648   0.981   7.768 -0.3570  1.7265  0.3578
  155SAPE  C21417245   7.627   0.831   7.927 -0.3742  0.1012 -0.7359
  155SAPE  H14R17246   7.734   0.815   7.907  0.2320  2.0907  0.8077
  155SAPE  C21517247   7.567   0.800   8.041  0.8370  0.5031  0.6036
  155SAPE  H15R17248   7.620   0.745   8.120 -0.4526 -0.4662  0.7996
  155SAPE  C21617249   7.428   0.841   8.085 -0.0986 -0.6665 -0.3860
  155SAPE  H16R17250   7.364   0.881   8.004  1.7022  0.7534 -1.1419
  155SAPE  H16S17251   7.450   0.919   8.161  0.5027 -0.4006 -0.8314
  155SAPE  C21717252   7.354   0.716   8.145 -0.6413 -0.7676 -0.1932
  155SAPE  H17R17253   7.420   0.658   8.212 -0.2450  0.4724  0.4970
  155SAPE  H17S17254   7.322   0.643   8.067  0.3900 -0.2014 -1.1721
  155SAPE  C21817255   7.239   0.757   8.240 -0.1431 -1.0510  0.8600
  155SAPE  H18R17256   7.156   0.801   8.181  0.2908 -1.4064 -0.0218
  155SAPE  H18S17257   7.273   0.831   8.317  0.8278 -0.6654  0.0860
  155SAPE  C21917258   7.183   0.641   8.325  0.2869 -0.5897 -1.2636
  155SAPE  H19R17259   7.267   0.590   8.376 -1.1209 -1.2992  0.4090
  155SAPE  H19S17260   7.140   0.563   8.259  1.1514 -1.2870 -0.9984
  155SAPE  C22017261   7.087   0.676   8.436 -0.2575  0.1085  0.3831
  155SAPE  H20R17262   7.033   0.591   8.481  0.2705 -0.0925  0.6390
  155SAPE  H20S17263   7.015   0.749   8.394 -1.0545 -0.6442  0.4404
  155SAPE  H20T17264   7.140   0.733   8.516 -1.1553  1.9225 -0.2852
  155SAPE   C3317265   6.876   1.117   7.287  0.4388 -0.0930 -0.3185
  155SAPE   H3X17266   6.947   1.041   7.248  1.3888  0.7296 -0.2382
  155SAPE   H3Y17267   6.775   1.087   7.252  1.5682  0.6921 -4.5276
  155SAPE   C3417268   6.857   1.108   7.441 -0.1922 -0.2550  0.0808
  155SAPE   H4X17269   6.836   1.007   7.483  2.4476 -0.3712  1.2460
  155SAPE   H4Y17270   6.778   1.177   7.477  0.8798  0.6348  0.7938
  155SAPE   C3517271   6.987   1.151   7.513  0.4763 -0.4502 -0.6921
  155SAPE   H5X17272   7.008   1.255   7.480 -3.1556  0.4568 -0.3222
  155SAPE   H5Y17273   7.075   1.091   7.481  1.5799  0.2855  0.8941
  155SAPE   C3617274   6.979   1.163   7.664  0.8249 -0.3193 -0.6818
  155SAPE   H6X17275   6.949   1.067   7.711 -0.1369 -0.2660 -1.1602
  155SAPE   H6Y17276   6.898   1.237   7.683  1.3671  1.2146 -3.9036
  155SAPE   C3717277   7.107   1.206   7.719  0.2002  0.1238 -0.0106
  155SAPE   H7X17278   7.160   1.288   7.666 -0.5941  2.6305  2.9501
  155SAPE   H7Y17279   7.176   1.119   7.708 -0.0533  0.1680 -1.9869
  155SAPE   C3817280   7.084   1.249   7.865 -1.2085 -0.5608  0.6324
  155SAPE   H8X17281   7.000   1.191   7.909 -1.3958  1.0830  2.5388
  155SAPE   H8Y17282   7.058   1.357   7.863  1.0061 -0.0028 -2.6512
  155SAPE   C3917283   7.206   1.232   7.955  0.0639  0.2205 -0.0100
  155SAPE   H9X17284   7.284   1.295   7.908  0.7723  1.3248  2.5590
  155SAPE   H9Y17285   7.249   1.130   7.960  1.4762  0.7730 -0.7141
  155SAPE  C31017286   7.186   1.284   8.102  0.3443 -0.5995  0.4645
  155SAPE  H10X17287   7.100   1.228   8.145  0.5378 -0.2146  1.3767
  155SAPE  H10Y17288   7.156   1.390   8.094  0.2385 -0.6448  0.2566
  155SAPE  C31117289   7.313   1.261   8.185 -0.1958  0.6598 -0.2178
  155SAPE  H11X17290   7.396   1.331   8.164  0.7111  0.1335  1.5522
  155SAPE  H11Y17291   7.357   1.161   8.167 -2.1335  0.0434 -1.8297
  155SAPE  C31217292   7.287   1.263   8.331  0.1121 -0.6636  0.0779
  155SAPE  H12X17293   7.228   1.172   8.357 -0.8825  0.1807  0.8620
  155SAPE  H12Y17294   7.228   1.354   8.353 -0.4839  0.4653 -5.4275
  155SAPE  C31317295   7.410   1.243   8.414  0.1333 -0.2679 -0.1229
  155SAPE  H13X17296   7.386   1.257   8.522 -0.3931 -0.1686 -0.2520
  155SAPE  H13Y17297   7.482   1.325   8.396 -1.5192  1.0974 -0.6557
  155SAPE  C31417298   7.464   1.099   8.407  0.0919 -0.2778 -1.1726
  155SAPE  H14X17299   7.522   1.088   8.313 -1.1321 -1.1984 -1.8255
  155SAPE  H14Y17300   7.381   1.026   8.413  0.1834 -0.8696 -5.4352
  155SAPE  C31517301   7.564   1.075   8.522 -1.0165  0.4075 -0.3681
  155SAPE  H15X17302   7.512   1.093   8.618 -0.5580 -0.4557  0.0475
  155SAPE  H15Y17303   7.648   1.147   8.516 -0.6101  0.2557  2.7425
  155SAPE  C31617304   7.626   0.935   8.537  0.5118  0.1140 -0.5154
  155SAPE  H16X17305   7.705   0.921   8.460  1.3331 -1.4637  0.5796
  155SAPE  H16Y17306   7.545   0.860   8.525  0.8368 -0.4116  0.5059
  155SAPE  C31717307   7.698   0.918   8.669  0.1166  0.5112  0.4460
  155SAPE  H17X17308   7.620   0.922   8.749 -1.4903 -1.3800 -0.9796
  155SAPE  H17Y17309   7.763   1.004   8.692 -0.1945  1.1824 -1.1251
  155SAPE  C31817310   7.765   0.779   8.681  0.4326  0.5485  0.3773
  155SAPE  H18X17311   7.815   0.754   8.585 -1.2880  0.6669 -0.5741
  155SAPE  H18Y17312   7.680   0.710   8.702 -0.5222  1.5056 -0.2778
  155SAPE  H18Z17313   7.845   0.767   8.757 -0.8489  1.0590  1.8489
  156SAPE     N17314   5.378   1.688   6.411 -0.5074 -0.4661 -0.1504
  156SAPE   HN117315   5.328   1.736   6.334 -1.6414 -1.2741  0.0737
  156SAPE   HN217316   5.368   1.585   6.420 -1.8646 -0.2693  0.8324
  156SAPE   HN317317   5.327   1.714   6.498 -1.4165 -1.7844 -0.2771
  156SAPE   C1217318   5.507   1.749   6.433 -0.3585 -0.3263  0.5456
  156SAPE  H12A17319   5.587   1.706   6.368 -0.5125  1.0754 -0.5881
  156SAPE  H12B17320   5.538   1.725   6.537 -0.7203 -3.1675  0.0436
  156SAPE   C1117321   5.503   1.903   6.429  0.0238  0.0945  0.3931
  156SAPE  H11A17322   5.484   1.939   6.326  2.4453 -1.5706 -0.6764
  156SAPE  H11B17323   5.593   1.944   6.480 -0.6393  0.0521  1.6334
  156SAPE     P17324   5.394   2.057   6.614  0.1155 -0.0271 -0.2990
  156SAPE   O1317325   5.533   2.095   6.647  0.0564  0.3112 -0.5018
  156SAPE   O1417326   5.297   2.161   6.575  0.0266  0.1212  0.2685
  156SAPE   O1217327   5.389   1.941   6.506 -0.1855  0.1611  0.0023
  156SAPE   O1117328   5.337   1.980   6.738  0.1036  0.0668 -0.0778
  156SAPE    C117329   5.413   1.881   6.807  0.4619 -0.0979  0.0206
  156SAPE    HA17330   5.412   1.786   6.749  1.2682 -0.2106  0.1881
  156SAPE    HB17331   5.520   1.912   6.811  0.5255 -0.3129 -0.0399
  156SAPE    C217332   5.355   1.852   6.948  0.3794  0.2595 -0.1677
  156SAPE    HS17333   5.249   1.823   6.933  0.2706  0.2351  0.6275
  156SAPE   O2117334   5.379   1.964   7.029  0.0568 -0.0124 -0.0240
  156SAPE   C2117335   5.280   2.047   7.036 -0.3186  0.6504 -0.0607
  156SAPE   O2217336   5.162   2.018   7.007  0.2475  0.6036  0.0273
  156SAPE   C2217337   5.331   2.187   7.084 -0.0776 -0.1066  0.3392
  156SAPE   H2R17338   5.412   2.172   7.159 -0.6756  0.4342  1.0989
  156SAPE   H2S17339   5.367   2.238   6.992 -0.3435  0.3045  0.4636
  156SAPE    C317340   5.419   1.728   7.013 -0.0409  0.0927 -0.2705
  156SAPE    HX17341   5.526   1.744   6.987  0.2940 -1.7100 -0.0542
  156SAPE    HY17342   5.382   1.637   6.961 -0.3698  1.0840 -1.8251
  156SAPE   O3117343   5.393   1.721   7.150  0.2167 -0.1605  0.5113
  156SAPE   C3117344   5.270   1.685   7.192  0.2671  0.4463 -0.1402
  156SAPE   O3217345   5.178   1.640   7.126  0.2222  0.0029 -0.1001
  156SAPE   C3217346   5.252   1.713   7.337  0.2750  0.5564 -0.1278
  156SAPE   H2X17347   5.299   1.628   7.392 -1.0123  1.1636  1.9214
  156SAPE   H2Y17348   5.145   1.733   7.355 -0.0854 -0.0108 -1.5103
  156SAPE   C2317349   5.225   2.276   7.140 -0.0746 -0.2239 -0.4663
  156SAPE   H3R17350   5.132   2.264   7.080  0.8784  0.9642 -2.2144
  156SAPE   H3S17351   5.253   2.383   7.128  3.1713 -0.8707  0.9098
  156SAPE   C2417352   5.188   2.245   7.287  0.4331 -0.1588 -0.4657
  156SAPE   H4R17353   5.161   2.140   7.309 -0.7611  0.3523  0.6003
  156SAPE   H4S17354   5.096   2.301   7.314  0.1135  0.4896 -2.8267
  156SAPE   C2517355   5.296   2.293   7.375  0.3852  0.0867  0.1600
  156SAPE   H5R17356   5.397   2.286   7.332  0.0269 -2.6582 -0.3070
  156SAPE   C2617357   5.285   2.323   7.501 -0.5121 -0.2617 -1.1074
  156SAPE   H6R17358   5.373   2.345   7.563  0.2353 -1.7832 -1.6100
  156SAPE   C2717359   5.160   2.319   7.578 -0.4663 -0.1040 -0.4182
  156SAPE   H7R17360   5.081   2.359   7.511 -0.3735 -0.6168 -0.8396
  156SAPE   H7S17361   5.184   2.398   7.652 -1.4336 -0.1609 -0.0420
  156SAPE   C2817362   5.112   2.194   7.638 -0.2070 -0.1675 -0.7082
  156SAPE   H8R17363   5.121   2.108   7.571 -2.1367 -0.5870 -0.4770
  156SAPE   C2917364   5.053   2.176   7.759  0.5958  0.1619  0.6459
  156SAPE   H9R17365   5.040   2.070   7.785 -0.5627  0.3483  0.8265
  156SAPE  C21017366   5.012   2.275   7.865  0.4189  0.2238  0.4572
  156SAPE  H10R17367   4.958   2.221   7.946  1.5305 -1.2271  0.2572
  156SAPE  H10S17368   4.929   2.341   7.833  0.1943 -0.0569  0.4623
  156SAPE  C21117369   5.123   2.361   7.920  0.8568  0.3264 -0.3569
  156SAPE  H11R17370   5.220   2.312   7.909  1.3843  1.2508  0.0474
  156SAPE  C21217371   5.118   2.478   7.979  0.2923 -0.0256  0.2372
  156SAPE  H12R17372   5.215   2.520   8.008  1.0647 -1.0619 -0.8438
  156SAPE  C21317373   4.996   2.561   8.008 -0.0858  0.1540  0.2204
  156SAPE  H13R17374   4.957   2.523   8.105  0.4199  0.5665  0.5892
  156SAPE  H13S17375   4.915   2.561   7.931  0.8809  2.4483 -0.8533
  156SAPE  C21417376   5.033   2.710   8.006 -0.0287  0.3616 -0.1384
  156SAPE  H14R17377   5.005   2.769   7.918  1.5816  0.6297 -0.4818
  156SAPE  C21517378   5.097   2.763   8.108  0.0780 -0.0606 -0.1842
  156SAPE  H15R17379   5.116   2.872   8.109  3.6619 -0.6084 -0.3985
  156SAPE  C21617380   5.132   2.700   8.243 -0.0607 -0.3194 -0.1928
  156SAPE  H16R17381   5.234   2.736   8.267  0.7035 -1.6126 -1.4716
  156SAPE  H16S17382   5.118   2.590   8.243  1.2137 -0.5591 -4.2339
  156SAPE  C21717383   5.033   2.755   8.346 -0.4301 -0.3871 -0.1924
  156SAPE  H17R17384   4.938   2.708   8.313 -0.6707 -0.9093  1.2097
  156SAPE  H17S17385   5.039   2.866   8.347 -0.0320 -0.4083  0.8826
  156SAPE  C21817386   5.078   2.702   8.486 -0.1837 -0.0691  0.4916
  156SAPE  H18R17387   5.172   2.760   8.495 -1.6447  2.4238  0.1335
  156SAPE  H18S17388   5.107   2.595   8.496  1.2566  0.2450 -0.1809
  156SAPE  C21917389   4.983   2.741   8.601  0.0113 -0.6143 -0.3360
  156SAPE  H19R17390   4.927   2.833   8.573  0.2965 -0.6126 -0.9083
  156SAPE  H19S17391   5.053   2.772   8.681 -0.7960 -0.1333  0.1871
  156SAPE  C22017392   4.891   2.625   8.632 -0.0379  0.4141 -0.1044
  156SAPE  H20R17393   4.822   2.605   8.547  0.4407  2.3659 -1.0091
  156SAPE  H20S17394   4.830   2.662   8.716 -1.6917 -3.6179  0.5486
  156SAPE  H20T17395   4.945   2.534   8.666 -2.3515 -1.0931 -0.3905
  156SAPE   C3317396   5.324   1.844   7.373  0.4504  0.7092  0.1128
  156SAPE   H3X17397   5.276   1.925   7.315  0.2073  1.0818  0.8285
  156SAPE   H3Y17398   5.432   1.839   7.347  0.4002  2.1163 -0.4002
  156SAPE   C3417399   5.311   1.883   7.522 -0.0959 -0.5560  0.3629
  156SAPE   H4X17400   5.204   1.895   7.547 -0.1305 -1.2496  0.5777
  156SAPE   H4Y17401   5.352   1.983   7.549  0.2644 -0.3367 -0.9643
  156SAPE   C3517402   5.361   1.786   7.633 -0.1081  0.1211  0.3160
  156SAPE   H5X17403   5.471   1.780   7.647 -0.3546  0.8839  2.8642
  156SAPE   H5Y17404   5.329   1.682   7.612 -1.5294  0.3623  1.1950
  156SAPE   C3617405   5.292   1.817   7.771 -0.5644 -0.1810  0.0655
  156SAPE   H6X17406   5.319   1.725   7.828 -1.5329 -0.8007 -0.4722
  156SAPE   H6Y17407   5.182   1.822   7.767 -0.5111  0.2889 -1.2536
  156SAPE   C3717408   5.351   1.944   7.842 -0.3016  0.0172 -0.7723
  156SAPE   H7X17409   5.277   2.024   7.819  0.4682  1.1724  0.7024
  156SAPE   H7Y17410   5.453   1.959   7.800 -0.5985  2.0274 -0.8523
  156SAPE   C3817411   5.339   1.935   7.994 -1.2943  0.1472 -0.1352
  156SAPE   H8X17412   5.373   2.034   8.032 -0.8382  1.2465 -3.2321
  156SAPE   H8Y17413   5.399   1.847   8.026 -4.0484 -1.3159  1.1908
  156SAPE   C3917414   5.192   1.918   8.052 -0.8662 -0.1466  0.5807
  156SAPE   H9X17415   5.149   1.822   8.016  0.4400 -0.5425  0.0462
  156SAPE   H9Y17416   5.126   1.995   8.007  0.9940  0.9924 -0.2291
  156SAPE  C31017417   5.183   1.912   8.203 -0.7046 -0.6945 -0.6698
  156SAPE  H10X17418   5.077   1.893   8.229 -0.5182 -0.7243  0.0650
  156SAPE  H10Y17419   5.216   2.004   8.255  2.5389 -1.5541 -1.0797
  156SAPE  C31117420   5.261   1.798   8.266 -0.6176 -1.0167 -0.0296
  156SAPE  H11X17421   5.370   1.805   8.245 -0.8371  0.7584 -0.6913
  156SAPE  H11Y17422   5.221   1.703   8.224 -0.5498 -0.7319 -0.7473
  156SAPE  C31217423   5.231   1.771   8.412  0.1078  0.7518  0.0475
  156SAPE  H12X17424   5.312   1.706   8.452  0.6814  1.8330  0.6737
  156SAPE  H12Y17425   5.136   1.719   8.437 -1.7872  3.4893 -1.2908
  156SAPE  C31317426   5.241   1.894   8.499 -0.3252  1.0213  0.2672
  156SAPE  H13X17427   5.149   1.954   8.485  0.2329  1.7830 -0.1574
  156SAPE  H13Y17428   5.336   1.946   8.474 -0.4172  1.1050  0.0949
  156SAPE  C31417429   5.253   1.855   8.643  0.4249  0.0988 -0.6297
  156SAPE  H14X17430   5.329   1.774   8.650 -0.5335 -0.9025 -1.5609
  156SAPE  H14Y17431   5.152   1.829   8.680  0.6739 -0.0396 -0.0570
  156SAPE  C31517432   5.304   1.978   8.739  0.0120  0.3771 -0.2300
  156SAPE  H15X17433   5.355   2.052   8.673  0.5885  0.6344  0.4967
  156SAPE  H15Y17434   5.376   1.952   8.819 -0.0612  0.7445 -0.0428
  156SAPE  C31617435   5.184   2.052   8.795  1.1051 -0.4258  0.1654
  156SAPE  H16X17436   5.117   1.993   8.862 -0.9278  1.2198 -0.3924
  156SAPE  H16Y17437   5.126   2.092   8.710  2.8022  2.9491  0.4981
  156SAPE  C31717438   5.223   2.177   8.875  0.7364  0.2616 -0.2934
  156SAPE  H17X17439   5.131   2.220   8.918  1.0564 -0.3175  1.0096
  156SAPE  H17Y17440   5.271   2.255   8.812 -1.5720  1.3327 -0.7621
  156SAPE  C31817441   5.320   2.151   8.999  0.6044 -0.0698 -0.1140
  156SAPE  H18X17442   5.297   2.052   9.043 -1.1349  0.1869 -0.4221
  156SAPE  H18Y17443   5.302   2.237   9.067  0.1850  1.1878 -1.7826
  156SAPE  H18Z17444   5.423   2.176   8.964  0.0185  0.3669 -1.5804
  157SAPE     N17445   2.103   3.878   6.523  0.3243  0.0244 -0.1401
  157SAPE   HN117446   2.179   3.931   6.476  0.6031  1.5731  1.9811
  157SAPE   HN217447   2.023   3.874   6.457  2.5727 -2.9636 -2.8571
  157SAPE   HN317448   2.083   3.935   6.608  0.9409 -1.7704  1.2545
  157SAPE   C1217449   2.135   3.736   6.557 -0.6695 -0.5862 -0.6512
  157SAPE  H12A17450   2.056   3.698   6.624  0.2324 -1.6897 -0.2000
  157SAPE  H12B17451   2.229   3.733   6.617 -2.0124 -0.4880  1.4876
  157SAPE   C1117452   2.154   3.649   6.435 -0.1357  0.9032 -0.2032
  157SAPE  H11A17453   2.063   3.613   6.382 -0.9541  0.6529  1.3378
  157SAPE  H11B17454   2.187   3.559   6.489  0.4503  1.3819  0.2450
  157SAPE     P17455   2.352   3.597   6.268 -0.6403 -0.1573 -0.1947
  157SAPE   O1317456   2.263   3.487   6.216 -0.0372 -0.0045  0.4092
  157SAPE   O1417457   2.437   3.671   6.174  0.3569  0.2815 -0.1602
  157SAPE   O1217458   2.249   3.693   6.342 -0.4036  0.3120 -0.2130
  157SAPE   O1117459   2.433   3.534   6.395  0.2577 -0.4641 -0.1691
  157SAPE    C117460   2.493   3.621   6.489 -0.2724 -0.1877 -0.2046
  157SAPE    HA17461   2.492   3.728   6.460  1.3732 -1.0823 -3.8553
  157SAPE    HB17462   2.421   3.624   6.574  1.0005 -2.4772  1.0320
  157SAPE    C217463   2.641   3.582   6.516 -0.6843 -0.4615  0.5644
  157SAPE    HS17464   2.685   3.553   6.418  0.8007 -0.9487  1.3583
  157SAPE   O2117465   2.635   3.470   6.608  0.0542  0.1619 -0.1871
  157SAPE   C2117466   2.686   3.348   6.561 -0.0085  0.1678 -0.2986
  157SAPE   O2217467   2.742   3.330   6.458 -0.1432  0.2711  0.0120
  157SAPE   C2217468   2.662   3.229   6.662 -0.3799  0.0261  0.3022
  157SAPE   H2R17469   2.612   3.276   6.749 -0.1100  0.1179  0.4088
  157SAPE   H2S17470   2.602   3.149   6.614 -0.1844  0.2577 -0.3266
  157SAPE    C317471   2.722   3.696   6.574  0.2666 -0.9850 -0.5200
  157SAPE    HX17472   2.715   3.777   6.498 -0.8900  0.1039  0.7130
  157SAPE    HY17473   2.829   3.674   6.593  1.0777  2.8434 -0.2150
  157SAPE   O3117474   2.670   3.746   6.702 -0.3762 -0.1443  0.0603
  157SAPE   C3117475   2.745   3.845   6.746  0.2164 -0.6220 -0.8780
  157SAPE   O3217476   2.842   3.887   6.691  0.3454  0.4837  0.4407
  157SAPE   C3217477   2.717   3.891   6.889 -0.1746  0.5176  0.5497
  157SAPE   H2X17478   2.628   3.957   6.883 -1.6211 -1.3918  0.6671
  157SAPE   H2Y17479   2.808   3.951   6.911  1.1992 -1.1480 -0.5000
  157SAPE   C2317480   2.790   3.160   6.700  0.6406  0.5186 -0.0089
  157SAPE   H3R17481   2.834   3.109   6.611  0.3554  0.6009 -0.1971
  157SAPE   H3S17482   2.759   3.083   6.774  0.4938  2.0466  1.5497
  157SAPE   C2417483   2.906   3.249   6.757  0.0543  0.3347 -0.0832
  157SAPE   H4R17484   2.863   3.328   6.824 -0.4843 -0.2291  0.2483
  157SAPE   H4S17485   2.950   3.299   6.668  0.6117  0.1666  0.0949
  157SAPE   C2517486   3.013   3.170   6.833 -0.3605 -0.5935 -0.1056
  157SAPE   H5R17487   3.054   3.088   6.772  1.8833 -1.6344  2.6833
  157SAPE   C2617488   3.062   3.181   6.959 -0.5373 -0.0633 -0.4805
  157SAPE   H6R17489   3.148   3.118   6.987 -1.2368  0.3243  2.7680
  157SAPE   C2717490   3.016   3.285   7.053 -0.6264 -0.3945  0.7712
  157SAPE   H7R17491   2.987   3.375   6.994  0.2396 -0.1751  0.6708
  157SAPE   H7S17492   3.104   3.322   7.111  0.8746 -2.7778  0.0985
  157SAPE   C2817493   2.903   3.228   7.138  0.2619  0.9892 -0.3952
  157SAPE   H8R17494   2.805   3.222   7.089  0.5918 -1.0764 -0.8802
  157SAPE   C2917495   2.919   3.186   7.260  0.4441  0.1724  0.1354
  157SAPE   H9R17496   2.832   3.144   7.311 -0.1236 -0.2152 -1.1152
  157SAPE  C21017497   3.036   3.174   7.358  0.8591 -0.9982  0.3612
  157SAPE  H10R17498   3.126   3.176   7.293  0.8035 -0.6450  0.2905
  157SAPE  H10S17499   3.031   3.084   7.421 -0.7448  0.9745  3.1712
  157SAPE  C21117500   3.034   3.297   7.446  0.8531  0.3503  0.1361
  157SAPE  H11R17501   3.022   3.394   7.396 -2.5983  1.0753  2.2165
  157SAPE  C21217502   3.052   3.291   7.580 -0.0971  0.4485 -0.4531
  157SAPE  H12R17503   3.039   3.389   7.628  2.1869  0.3017  0.5482
  157SAPE  C21317504   3.070   3.167   7.667  0.0113 -0.1543  1.2651
  157SAPE  H13R17505   3.155   3.194   7.734  0.1464  1.0570  0.6371
  157SAPE  H13S17506   3.088   3.078   7.604 -2.8599 -2.0661  3.0560
  157SAPE  C21417507   2.947   3.160   7.762  0.3217 -0.0193  0.5181
  157SAPE  H14R17508   2.865   3.117   7.703  0.5816 -2.5082  1.9053
  157SAPE  C21517509   2.929   3.186   7.896 -0.1682 -0.7770  0.2790
  157SAPE  H15R17510   2.830   3.170   7.939  0.5412 -2.2362  1.4330
  157SAPE  C21617511   3.043   3.235   7.989  0.1014 -0.2622 -0.3555
  157SAPE  H16R17512   3.127   3.279   7.931 -0.1151  0.1826 -0.3295
  157SAPE  H16S17513   3.103   3.150   8.028  1.4233 -0.0051 -1.7822
  157SAPE  C21717514   2.981   3.315   8.105 -0.0927  0.1584  0.2253
  157SAPE  H17R17515   2.909   3.244   8.152 -0.1685 -0.9468 -1.5386
  157SAPE  H17S17516   2.940   3.409   8.062 -0.1670 -0.1133 -0.2935
  157SAPE  C21817517   3.078   3.344   8.229  0.4854  0.1116  0.6001
  157SAPE  H18R17518   3.139   3.251   8.238 -0.3962 -0.9221 -3.1634
  157SAPE  H18S17519   3.025   3.362   8.325  1.7201 -0.0661  1.3223
  157SAPE  C21917520   3.178   3.455   8.202  0.1621 -0.2423 -0.0038
  157SAPE  H19R17521   3.116   3.545   8.186 -1.6579 -1.6677 -1.2815
  157SAPE  H19S17522   3.242   3.435   8.113 -0.5927  1.0016 -0.8421
  157SAPE  C22017523   3.271   3.494   8.316  0.4931 -0.5882  0.2129
  157SAPE  H20R17524   3.326   3.585   8.285  2.6762 -1.2782  1.9065
  157SAPE  H20S17525   3.345   3.415   8.339  0.0496 -0.7676  1.0694
  157SAPE  H20T17526   3.219   3.514   8.413 -0.4624  0.9837 -0.6133
  157SAPE   C3317527   2.697   3.771   6.988  0.2358 -0.2698 -0.2637
  157SAPE   H3X17528   2.629   3.706   6.930  2.6063 -2.6884 -0.4458
  157SAPE   H3Y17529   2.657   3.827   7.075  1.0179  0.2556 -0.2288
  157SAPE   C3417530   2.822   3.693   7.021 -0.9075 -0.0151  0.2052
  157SAPE   H4X17531   2.902   3.754   7.069 -1.2644 -1.0726  2.2139
  157SAPE   H4Y17532   2.868   3.650   6.929  0.1359 -1.5877  1.4195
  157SAPE   C3517533   2.804   3.573   7.113 -0.6206 -0.5600  0.1290
  157SAPE   H5X17534   2.900   3.528   7.148  0.4822  1.0439 -0.7655
  157SAPE   H5Y17535   2.752   3.496   7.053  0.8707 -1.9040  0.5307
  157SAPE   C3617536   2.726   3.608   7.242 -0.0054  0.0399  0.9269
  157SAPE   H6X17537   2.618   3.627   7.224  0.1168  0.7761  0.9475
  157SAPE   H6Y17538   2.780   3.695   7.284  1.4679  0.3867 -1.5428
  157SAPE   C3717539   2.735   3.496   7.346  0.2485 -0.1201 -0.3930
  157SAPE   H7X17540   2.839   3.462   7.369 -0.3262 -0.5578  1.6575
  157SAPE   H7Y17541   2.679   3.415   7.295  0.1533 -0.2294 -0.1148
  157SAPE   C3817542   2.654   3.536   7.473 -0.2896 -0.0191 -0.2792
  157SAPE   H8X17543   2.552   3.569   7.445 -0.9552 -1.3368  0.5416
  157SAPE   H8Y17544   2.719   3.621   7.502  0.9885 -0.8498 -0.6555
  157SAPE   C3917545   2.647   3.418   7.576  0.3383  0.4564 -0.1554
  157SAPE   H9X17546   2.747   3.372   7.559 -0.1853 -0.9125  0.3768
  157SAPE   H9Y17547   2.572   3.341   7.548  1.3084  0.6084 -3.3765
  157SAPE  C31017548   2.649   3.459   7.724 -0.0749  0.7594 -0.4548
  157SAPE  H10X17549   2.716   3.547   7.736  0.6361  0.3008 -1.0793
  157SAPE  H10Y17550   2.689   3.365   7.768  0.3090  1.4032  0.5938
  157SAPE  C31117551   2.518   3.481   7.792  0.8587 -1.2801  0.1459
  157SAPE  H11X17552   2.462   3.385   7.795  1.4209 -1.5571  1.8189
  157SAPE  H11Y17553   2.457   3.548   7.727 -0.2257 -1.9461  0.4588
  157SAPE  C31217554   2.526   3.530   7.935 -0.4964 -0.3809 -0.2709
  157SAPE  H12X17555   2.430   3.584   7.948  0.6220  1.5823  0.1203
  157SAPE  H12Y17556   2.605   3.608   7.946  0.0817 -0.5856 -2.7693
  157SAPE  C31317557   2.537   3.417   8.037  0.0084  0.0725  0.9391
  157SAPE  H13X17558   2.640   3.374   8.037 -0.0877 -0.1859 -0.0306
  157SAPE  H13Y17559   2.467   3.335   8.010 -0.0369  0.2220  0.5976
  157SAPE  C31417560   2.508   3.473   8.180  0.2371 -0.0015  0.0307
  157SAPE  H14X17561   2.398   3.480   8.192  0.3660  0.1240  1.1736
  157SAPE  H14Y17562   2.555   3.573   8.184 -2.6357  1.3405  1.9468
  157SAPE  C31517563   2.562   3.375   8.285 -0.5317 -0.1902  0.8407
  157SAPE  H15X17564   2.586   3.429   8.380  0.7301  0.2184  0.3017
  157SAPE  H15Y17565   2.659   3.339   8.245 -0.9907  0.6060 -1.0013
  157SAPE  C31617566   2.475   3.251   8.314 -0.3888  0.5983  0.0715
  157SAPE  H16X17567   2.470   3.187   8.223  0.5590  1.8971 -0.9217
  157SAPE  H16Y17568   2.374   3.286   8.342 -0.7806 -0.5914  0.1433
  157SAPE  C31717569   2.518   3.169   8.428 -0.1064 -0.0417 -0.3226
  157SAPE  H17X17570   2.503   3.220   8.526 -0.6921  0.0011 -0.4354
  157SAPE  H17Y17571   2.625   3.143   8.414 -0.0100  0.6626 -0.9094
  157SAPE  C31817572   2.444   3.036   8.431 -0.0781 -0.4519  0.0736
  157SAPE  H18X17573   2.471   2.990   8.528 -1.6400  0.3818  0.9343
  157SAPE  H18Y17574   2.460   2.978   8.338 -2.8178 -0.5906 -0.3737
  157SAPE  H18Z17575   2.336   3.063   8.438 -0.1106 -0.6423  0.3251
  158SAPE     N17576   4.364   1.395   6.386  0.0691 -0.0435  0.1688
  158SAPE   HN117577   4.317   1.336   6.313  1.9088 -1.7743  0.3516
  158SAPE   HN217578   4.372   1.350   6.479  0.0485  0.7970  0.5712
  158SAPE   HN317579   4.292   1.470   6.397 -1.5799 -0.5363 -5.4298
  158SAPE   C1217580   4.503   1.445   6.355 -0.3019  0.2350  0.0621
  158SAPE  H12A17581   4.508   1.553   6.378 -0.7524  0.5016 -1.0532
  158SAPE  H12B17582   4.519   1.449   6.245  2.5647  1.0710  0.4648
  158SAPE   C1117583   4.617   1.361   6.431  0.0930  0.3936 -0.6096
  158SAPE  H11A17584   4.586   1.358   6.538 -0.0021  1.0599 -0.6178
  158SAPE  H11B17585   4.712   1.416   6.419  1.1114 -1.2325 -0.1382
  158SAPE     P17586   4.735   1.127   6.409 -0.1497  0.4596  0.1124
  158SAPE   O1317587   4.692   0.992   6.353  0.5161 -0.4648 -1.0920
  158SAPE   O1417588   4.864   1.177   6.360  0.3056  0.0764 -0.4658
  158SAPE   O1217589   4.627   1.233   6.369 -0.2432 -0.4014  0.3015
  158SAPE   O1117590   4.740   1.124   6.559  0.5569 -0.7638 -0.4827
  158SAPE    C117591   4.669   1.020   6.630 -0.1639 -0.3307  0.0153
  158SAPE    HA17592   4.570   0.996   6.586 -0.5378  0.1492  0.5908
  158SAPE    HB17593   4.722   0.923   6.634 -0.3344 -0.4666 -0.8513
  158SAPE    C217594   4.660   1.053   6.779  0.1063 -0.2617 -0.9578
  158SAPE    HS17595   4.754   1.023   6.831 -1.4281  1.2595  2.9081
  158SAPE   O2117596   4.551   0.982   6.830 -0.6181 -0.0930 -0.7170
  158SAPE   C2117597   4.575   0.853   6.855 -0.7923  0.2108 -0.0524
  158SAPE   O2217598   4.679   0.791   6.839  0.4173 -0.7613  0.1131
  158SAPE   C2217599   4.455   0.779   6.893  0.3548  0.1657 -0.9069
  158SAPE   H2R17600   4.359   0.832   6.874  0.9060  0.7689 -2.0262
  158SAPE   H2S17601   4.465   0.691   6.827  1.5361  0.7200 -1.4759
  158SAPE    C317602   4.647   1.205   6.801  0.2679  0.0069  0.4254
  158SAPE    HX17603   4.575   1.244   6.726 -0.1575 -1.6442 -0.0344
  158SAPE    HY17604   4.745   1.254   6.783 -0.4770  0.9088 -1.3768
  158SAPE   O3117605   4.594   1.250   6.928 -0.0715 -0.5898 -0.2506
  158SAPE   C3117606   4.679   1.241   7.034 -0.4202 -0.1893 -0.3188
  158SAPE   O3217607   4.787   1.185   7.024  0.1884  0.3744 -0.0935
  158SAPE   C3217608   4.620   1.318   7.156  0.0632  0.4993  0.0557
  158SAPE   H2X17609   4.522   1.269   7.171  1.0428 -1.9020 -1.2622
  158SAPE   H2Y17610   4.604   1.424   7.127 -1.4114  0.2875  0.0604
  158SAPE   C2317611   4.485   0.715   7.035  0.1966 -0.3586  0.1323
  158SAPE   H3R17612   4.584   0.665   7.032  0.7122  0.5400  1.9250
  158SAPE   H3S17613   4.407   0.638   7.053 -4.2792  4.1057  1.0064
  158SAPE   C2417614   4.486   0.819   7.147 -0.7341  0.0257 -0.3575
  158SAPE   H4R17615   4.388   0.870   7.150 -1.0369 -0.5492 -0.5568
  158SAPE   H4S17616   4.559   0.902   7.137 -1.6469  0.7238 -1.3644
  158SAPE   C2517617   4.504   0.744   7.276  0.2236  1.6524  0.3289
  158SAPE   H5R17618   4.459   0.645   7.262 -2.7051  3.2245 -1.8821
  158SAPE   C2617619   4.565   0.781   7.389  0.6814  0.3905  0.3621
  158SAPE   H6R17620   4.562   0.712   7.475  0.3660  1.3611  1.1356
  158SAPE   C2717621   4.646   0.902   7.427  0.9261  0.5466  0.1679
  158SAPE   H7R17622   4.682   0.942   7.330  0.3099 -1.2064 -0.7925
  158SAPE   H7S17623   4.738   0.876   7.484  0.8613  0.4360  0.2207
  158SAPE   C2817624   4.564   1.001   7.507 -0.0294  0.2276  0.4699
  158SAPE   H8R17625   4.456   0.991   7.489  0.4110 -1.7480 -1.3261
  158SAPE   C2917626   4.599   1.085   7.605  0.1569  0.8610  0.2058
  158SAPE   H9R17627   4.518   1.144   7.650  1.1321  3.8326 -1.7803
  158SAPE  C21017628   4.736   1.114   7.658 -0.1127 -0.6753  0.6855
  158SAPE  H10R17629   4.811   1.146   7.582 -2.3771  4.4091  0.3924
  158SAPE  H10S17630   4.767   1.017   7.703  1.7821 -1.7412 -2.7476
  158SAPE  C21117631   4.738   1.224   7.766  0.4788 -0.1135  0.5044
  158SAPE  H11R17632   4.733   1.324   7.720  0.5730 -0.5990 -0.5901
  158SAPE  C21217633   4.712   1.222   7.898 -0.6064 -0.7606 -0.2822
  158SAPE  H12R17634   4.712   1.319   7.949 -1.0507 -1.0977  0.3645
  158SAPE  C21317635   4.693   1.087   7.973 -0.5753  0.8510 -0.0092
  158SAPE  H13R17636   4.722   1.002   7.908  0.1586 -0.3872  1.9052
  158SAPE  H13S17637   4.586   1.086   8.004 -1.1710  0.6534 -1.9980
  158SAPE  C21417638   4.791   1.076   8.086  0.7787 -0.0081 -0.1633
  158SAPE  H14R17639   4.897   1.050   8.072  0.8686  0.7570 -0.9489
  158SAPE  C21517640   4.756   1.091   8.217 -0.3319 -0.2653 -0.0867
  158SAPE  H15R17641   4.828   1.091   8.301  0.0207 -2.1499 -0.3752
  158SAPE  C21617642   4.616   1.124   8.262  0.5977 -0.0493 -0.1992
  158SAPE  H16R17643   4.580   1.035   8.319  1.4664  0.0920  0.5802
  158SAPE  H16S17644   4.545   1.145   8.180  0.7601  0.2174 -0.2723
  158SAPE  C21717645   4.601   1.249   8.348  0.2633 -0.2058  0.0405
  158SAPE  H17R17646   4.496   1.256   8.383 -0.3314 -1.2577 -1.5144
  158SAPE  H17S17647   4.622   1.342   8.290 -2.5257  0.4348 -0.0262
  158SAPE  C21817648   4.694   1.258   8.474 -0.3553 -0.9442 -0.5292
  158SAPE  H18R17649   4.803   1.265   8.453  0.1484 -1.2399  1.9222
  158SAPE  H18S17650   4.692   1.159   8.524 -1.9861  0.2740  1.9206
  158SAPE  C21917651   4.665   1.372   8.573  0.1325 -0.4612  0.6315
  158SAPE  H19R17652   4.639   1.465   8.518  2.0267 -1.4035 -1.9881
  158SAPE  H19S17653   4.751   1.401   8.637  0.6296  2.5138 -1.2757
  158SAPE  C22017654   4.545   1.336   8.665  0.0504 -0.8498  0.1015
  158SAPE  H20R17655   4.537   1.402   8.755 -2.5779 -1.4674  0.3585
  158SAPE  H20S17656   4.551   1.235   8.710  0.5999 -0.9925 -0.2907
  158SAPE  H20T17657   4.454   1.341   8.602 -0.5072 -1.4742  0.8418
  158SAPE   C3317658   4.699   1.303   7.283  0.5757  0.0523 -0.0821
  158SAPE   H3X17659   4.721   1.195   7.298 -3.4157 -0.6715  1.1313
  158SAPE   H3Y17660   4.640   1.341   7.369 -0.4160 -0.6933 -0.4209
  158SAPE   C3417661   4.835   1.371   7.296 -0.5289  0.0090 -0.8749
  158SAPE   H4X17662   4.838   1.482   7.286  0.3048  0.3484  2.5470
  158SAPE   H4Y17663   4.916   1.329   7.232 -0.1856 -0.0202 -0.4249
  158SAPE   C3517664   4.901   1.348   7.431  0.5680 -0.5966 -0.1141
  158SAPE   H5X17665   4.898   1.238   7.443 -1.8667 -0.6016 -0.6008
  158SAPE   H5Y17666   4.837   1.386   7.513  2.1257  0.9319  0.4233
  158SAPE   C3617667   5.038   1.408   7.443  0.1953 -0.1696  0.3634
  158SAPE   H6X17668   5.029   1.518   7.434 -1.3046 -0.3176  0.0574
  158SAPE   H6Y17669   5.089   1.383   7.347 -2.1957  0.0730 -1.0061
  158SAPE   C3717670   5.122   1.390   7.565 -0.6102  0.0660 -0.2686
  158SAPE   H7X17671   5.112   1.282   7.590 -0.8182 -0.4661 -2.5309
  158SAPE   H7Y17672   5.226   1.425   7.548  0.1592 -1.4029  1.2418
  158SAPE   C3817673   5.061   1.474   7.690 -0.2286  0.3588  1.1163
  158SAPE   H8X17674   4.957   1.440   7.707 -0.0971 -0.6530  0.0231
  158SAPE   H8Y17675   5.063   1.583   7.667  0.6852  0.2989  0.8796
  158SAPE   C3917676   5.143   1.460   7.815 -0.4740 -0.6939 -0.4497
  158SAPE   H9X17677   5.215   1.544   7.827  1.0029 -1.8781 -0.9375
  158SAPE   H9Y17678   5.201   1.366   7.805  2.9492  1.0829  1.8036
  158SAPE  C31017679   5.041   1.447   7.924 -0.5285  0.2461  0.8017
  158SAPE  H10X17680   4.988   1.351   7.905 -2.7576  1.3208  1.3855
  158SAPE  H10Y17681   4.969   1.532   7.926 -0.8704 -0.0211 -0.0809
  158SAPE  C31117682   5.099   1.440   8.059 -0.3748 -0.3152  0.2988
  158SAPE  H11X17683   5.120   1.546   8.083 -1.0183 -0.1166  0.0007
  158SAPE  H11Y17684   5.193   1.382   8.062 -0.1127 -0.0050 -1.3535
  158SAPE  C31217685   5.000   1.390   8.160  0.2552  0.3834 -0.2900
  158SAPE  H12X17686   4.982   1.281   8.150  0.3397  0.5641 -2.9778
  158SAPE  H12Y17687   4.902   1.441   8.152 -0.3767 -1.0173 -1.9159
  158SAPE  C31317688   5.045   1.409   8.305 -0.0442 -0.5205  0.6800
  158SAPE  H13X17689   4.950   1.398   8.362 -1.5537 -0.9485 -1.8186
  158SAPE  H13Y17690   5.078   1.515   8.311  1.1048 -0.8541  0.3617
  158SAPE  C31417691   5.162   1.311   8.346  0.5553  0.1493 -0.9656
  158SAPE  H14X17692   5.260   1.337   8.302  2.8796 -2.2163  2.5625
  158SAPE  H14Y17693   5.128   1.213   8.305 -0.6541 -0.1173  0.5977
  158SAPE  C31517694   5.188   1.301   8.500  0.2241 -0.2023 -0.1013
  158SAPE  H15X17695   5.250   1.213   8.527 -0.2651 -0.3739  0.4849
  158SAPE  H15Y17696   5.089   1.282   8.547 -0.1963  0.5920 -0.6482
  158SAPE  C31617697   5.257   1.429   8.561  0.3428  0.1367 -0.2459
  158SAPE  H16X17698   5.191   1.510   8.523  0.9463  1.3825  1.3184
  158SAPE  H16Y17699   5.358   1.436   8.514  0.4002  3.5975  0.2231
  158SAPE  C31717700   5.275   1.455   8.718 -0.6369  0.1713  0.5203
  158SAPE  H17X17701   5.357   1.527   8.736 -0.2573  0.8014 -3.4767
  158SAPE  H17Y17702   5.292   1.363   8.778  1.1738  1.3404  1.8524
  158SAPE  C31817703   5.145   1.513   8.774 -0.4656 -0.2314  0.5041
  158SAPE  H18X17704   5.154   1.521   8.885 -2.4404 -0.7132  0.7239
  158SAPE  H18Y17705   5.067   1.434   8.763  0.1449 -0.3238 -3.9214
  158SAPE  H18Z17706   5.125   1.612   8.729 -1.2172 -0.5964  0.0362
  159SAPE     N17707   3.399   4.174   6.003  0.0766 -0.3925  0.3757
  159SAPE   HN117708   3.332   4.173   5.923 -0.4405  0.9408  0.7899
  159SAPE   HN217709   3.370   4.111   6.080 -2.3372  0.5899  0.3222
  159SAPE   HN317710   3.394   4.269   6.045  1.3502  0.1416 -0.6307
  159SAPE   C1217711   3.538   4.119   5.983  0.6466 -0.1433 -0.2428
  159SAPE  H12A17712   3.596   4.145   6.074 -1.5338  0.4620  0.9985
  159SAPE  H12B17713   3.584   4.171   5.896  0.0989 -0.7593 -0.9080
  159SAPE   C1117714   3.546   3.963   5.983  0.5649 -0.2810  0.0567
  159SAPE  H11A17715   3.650   3.949   5.947 -0.3066 -2.1856 -1.8286
  159SAPE  H11B17716   3.472   3.918   5.914 -0.6243 -0.3998  1.3911
  159SAPE     P17717   3.586   3.783   6.183  0.0229  0.1392  0.0284
  159SAPE   O1317718   3.522   3.766   6.321 -0.5596  0.0211  0.2543
  159SAPE   O1417719   3.570   3.666   6.095  0.0764  0.2972  0.6647
  159SAPE   O1217720   3.522   3.910   6.116  0.4758 -0.4183 -0.1157
  159SAPE   O1117721   3.740   3.829   6.193  0.3559  0.3037  0.4725
  159SAPE    C117722   3.767   3.933   6.290  0.4405  0.3435 -0.0491
  159SAPE    HA17723   3.813   4.022   6.244  1.2017  0.1893  0.3946
  159SAPE    HB17724   3.678   3.970   6.344 -1.4533 -0.2443 -2.6910
  159SAPE    C217725   3.875   3.888   6.394 -1.1086 -0.4311 -0.6149
  159SAPE    HS17726   3.954   3.839   6.333 -0.9722  0.7998 -1.4390
  159SAPE   O2117727   3.826   3.807   6.498 -0.3110  0.0446  0.0968
  159SAPE   C2117728   3.738   3.854   6.577 -0.4237 -0.5437  0.3350
  159SAPE   O2217729   3.686   3.966   6.569  0.3152 -0.0756  0.3913
  159SAPE   C2217730   3.713   3.757   6.687  0.2338  0.2157 -0.7220
  159SAPE   H2R17731   3.656   3.674   6.641  0.7722  0.3416 -1.6212
  159SAPE   H2S17732   3.806   3.708   6.723 -0.7662 -0.1053  1.4837
  159SAPE    C317733   3.954   4.005   6.467 -0.1663  0.0566  0.3916
  159SAPE    HX17734   3.897   4.050   6.551  1.2113  0.8110  0.9460
  159SAPE    HY17735   3.971   4.078   6.385  1.7378  0.4468  1.0949
  159SAPE   O3117736   4.089   3.951   6.500  0.0305 -0.2246 -0.2280
  159SAPE   C3117737   4.111   3.933   6.633 -0.4182  0.5838  0.3796
  159SAPE   O3217738   4.032   3.944   6.725 -0.6595  0.6428 -0.0689
  159SAPE   C3217739   4.253   3.898   6.646  0.4237  0.0465 -0.9415
  159SAPE   H2X17740   4.304   3.941   6.556  1.2203  1.3177  0.0919
  159SAPE   H2Y17741   4.265   3.788   6.649 -1.3650 -0.1555 -1.1361
  159SAPE   C2317742   3.632   3.817   6.800 -0.4646 -0.5515  0.3456
  159SAPE   H3R17743   3.590   3.732   6.857 -0.8940  0.9977  2.4282
  159SAPE   H3S17744   3.551   3.884   6.764  2.2074  2.7879  0.3144
  159SAPE   C2417745   3.715   3.906   6.904 -0.1699  0.4186 -0.7587
  159SAPE   H4R17746   3.655   3.943   6.989  2.0927  1.0353  0.6155
  159SAPE   H4S17747   3.733   3.997   6.843 -0.4495  1.5579  0.8473
  159SAPE   C2517748   3.847   3.853   6.959 -0.0460  0.1189 -1.0696
  159SAPE   H5R17749   3.907   3.811   6.877  0.9571  0.9614 -0.7875
  159SAPE   C2617750   3.890   3.826   7.084  0.0293  0.5316  0.3925
  159SAPE   H6R17751   3.993   3.789   7.100 -0.5720 -0.8123  1.3280
  159SAPE   C2717752   3.811   3.863   7.205  0.3629  0.7401  0.5414
  159SAPE   H7R17753   3.710   3.901   7.180  0.8247  0.5749 -1.6800
  159SAPE   H7S17754   3.865   3.946   7.257 -0.5742  2.3465 -1.0015
  159SAPE   C2817755   3.803   3.744   7.302 -0.2660 -0.3450  0.1694
  159SAPE   H8R17756   3.873   3.660   7.292 -0.3411 -0.6016  1.6444
  159SAPE   C2917757   3.723   3.746   7.417 -0.2654 -0.1293  0.2425
  159SAPE   H9R17758   3.737   3.668   7.492  1.5526  0.4043  0.4974
  159SAPE  C21017759   3.633   3.860   7.456  0.4522 -0.5024 -0.2339
  159SAPE  H10R17760   3.531   3.836   7.419  0.8323  1.5819 -2.7814
  159SAPE  H10S17761   3.651   3.954   7.399  1.2125 -0.5764 -0.1233
  159SAPE  C21117762   3.617   3.906   7.598  0.2770  0.2342 -0.1568
  159SAPE  H11R17763   3.512   3.911   7.628 -0.1134 -2.2982 -1.0000
  159SAPE  C21217764   3.716   3.931   7.691 -0.2931 -0.3135 -0.6018
  159SAPE  H12R17765   3.681   3.983   7.781 -1.8048 -0.8591 -0.8617
  159SAPE  C21317766   3.872   3.923   7.664 -0.0712 -0.6358 -0.1129
  159SAPE  H13R17767   3.904   3.950   7.562 -2.0934 -0.9796 -0.8702
  159SAPE  H13S17768   3.909   3.819   7.682 -1.0583 -0.7435  1.4505
  159SAPE  C21417769   3.947   4.031   7.742 -0.0300 -0.1904 -0.1736
  159SAPE  H14R17770   3.957   4.115   7.673 -2.0005 -1.1272 -1.6438
  159SAPE  C21517771   4.001   4.025   7.866  0.0681 -0.0654 -0.7484
  159SAPE  H15R17772   4.047   4.109   7.919  1.9955 -0.5872 -1.5550
  159SAPE  C21617773   3.992   3.896   7.947  1.1160 -0.0136  0.0111
  159SAPE  H16R17774   4.084   3.840   7.924  0.8623 -0.5022  0.1660
  159SAPE  H16S17775   3.904   3.835   7.916  0.2163  1.2725  0.0035
  159SAPE  C21717776   3.974   3.916   8.099  0.8150  0.2913  0.5212
  159SAPE  H17R17777   3.930   3.825   8.146  0.7510 -0.0208 -0.1372
  159SAPE  H17S17778   3.908   4.004   8.117  2.0200  0.8657  2.2310
  159SAPE  C21817779   4.108   3.940   8.166  0.2521  0.5463 -0.0830
  159SAPE  H18R17780   4.183   4.000   8.110  0.0322 -0.8348 -1.8857
  159SAPE  H18S17781   4.149   3.839   8.188 -0.3222  0.1767 -0.7125
  159SAPE  C21917782   4.084   4.003   8.308  0.2753 -0.0277  0.6562
  159SAPE  H19R17783   4.041   3.926   8.376 -1.0216  1.7775  1.9404
  159SAPE  H19S17784   4.019   4.093   8.294 -0.0149 -0.5777 -1.7415
  159SAPE  C22017785   4.206   4.052   8.383  0.3261  0.1428  0.3601
  159SAPE  H20R17786   4.266   4.126   8.326 -2.6973  1.0868 -1.7313
  159SAPE  H20S17787   4.282   3.977   8.414  0.3211  0.5055  1.2723
  159SAPE  H20T17788   4.180   4.102   8.479 -0.5750  0.9364 -0.2970
  159SAPE   C3317789   4.307   3.950   6.782  0.6317 -0.2031 -0.4151
  159SAPE   H3X17790   4.282   4.057   6.793  0.9064  0.0706 -2.3568
  159SAPE   H3Y17791   4.417   3.941   6.771  0.7485  1.2204 -0.4802
  159SAPE   C3417792   4.265   3.871   6.910  0.5360  0.4830  0.1454
  159SAPE   H4X17793   4.301   3.766   6.907  0.1743  0.3485  0.4780
  159SAPE   H4Y17794   4.154   3.870   6.916  0.5926 -0.5629  1.1900
  159SAPE   C3517795   4.309   3.943   7.041 -0.2305  0.1664 -0.2412
  159SAPE   H5X17796   4.248   4.036   7.044  0.1714  0.3954  1.0751
  159SAPE   H5Y17797   4.416   3.974   7.035  0.0719 -0.8420 -0.1769
  159SAPE   C3617798   4.279   3.864   7.165  0.3963  0.0082  1.2082
  159SAPE   H6X17799   4.357   3.786   7.162  0.5571  0.0135  3.5919
  159SAPE   H6Y17800   4.182   3.809   7.158  1.9845 -2.5281 -1.5850
  159SAPE   C3717801   4.282   3.952   7.287 -0.1969  0.0462 -0.1088
  159SAPE   H7X17802   4.200   4.027   7.290  0.5790  0.8348  4.2898
  159SAPE   H7Y17803   4.380   4.003   7.288 -0.3061  0.3007 -1.8350
  159SAPE   C3817804   4.269   3.855   7.408 -0.2251 -0.0975  0.5784
  159SAPE   H8X17805   4.332   3.766   7.385  0.3281  0.1340  1.1580
  159SAPE   H8Y17806   4.161   3.831   7.420 -0.8346  1.4774 -1.6227
  159SAPE   C3917807   4.308   3.925   7.540  0.6289  0.6497  0.1112
  159SAPE   H9X17808   4.241   4.012   7.558  0.2193  0.3238  0.1678
  159SAPE   H9Y17809   4.405   3.973   7.516  0.7517  0.9666  1.1925
  159SAPE  C31017810   4.319   3.835   7.660  0.1452 -0.0217 -0.3973
  159SAPE  H10X17811   4.365   3.740   7.625 -1.1940 -1.3183  1.2426
  159SAPE  H10Y17812   4.225   3.798   7.706  0.8788  1.1860  2.1108
  159SAPE  C31117813   4.400   3.902   7.772 -0.3556  0.5888 -0.1053
  159SAPE  H11X17814   4.334   3.984   7.808 -0.5111 -0.4635  2.1247
  159SAPE  H11Y17815   4.489   3.949   7.726 -0.9479 -0.1842 -2.0821
  159SAPE  C31217816   4.438   3.803   7.886  0.4669  0.0653  0.3686
  159SAPE  H12X17817   4.510   3.725   7.853 -0.5085 -0.7171  0.0501
  159SAPE  H12Y17818   4.345   3.759   7.928 -0.2589  0.6667 -0.6142
  159SAPE  C31317819   4.509   3.868   8.009  0.2241 -0.5468  0.2082
  159SAPE  H13X17820   4.452   3.961   8.024 -1.0991 -0.7421 -3.3045
  159SAPE  H13Y17821   4.612   3.895   7.977  0.0136  1.1409  0.9273
  159SAPE  C31417822   4.496   3.792   8.136 -0.6118  0.3178 -0.6441
  159SAPE  H14X17823   4.541   3.691   8.124  0.4864  0.7365 -0.1213
  159SAPE  H14Y17824   4.390   3.773   8.161 -0.2644 -1.4875 -0.4108
  159SAPE  C31517825   4.584   3.856   8.244 -0.0408 -0.3098 -0.4059
  159SAPE  H15X17826   4.548   3.955   8.280  0.5752 -1.0173  2.2347
  159SAPE  H15Y17827   4.689   3.879   8.216 -0.5539  3.4215  0.4445
  159SAPE  C31617828   4.599   3.783   8.372  0.2177  0.3785 -0.0870
  159SAPE  H16X17829   4.661   3.693   8.353  0.4383  0.3141  0.8905
  159SAPE  H16Y17830   4.500   3.740   8.399  0.6558  0.2137  1.3182
  159SAPE  C31717831   4.678   3.864   8.477 -0.0653 -0.5785 -0.4643
  159SAPE  H17X17832   4.610   3.943   8.515  0.2249  0.0080 -1.1356
  159SAPE  H17Y17833   4.765   3.919   8.434 -1.2233  1.5973 -0.0821
  159SAPE  C31817834   4.733   3.784   8.590 -0.5573 -0.3924 -0.3790
  159SAPE  H18X17835   4.803   3.843   8.653  0.7330 -0.1196 -2.0467
  159SAPE  H18Y17836   4.768   3.683   8.559 -1.3687 -1.0571  0.8368
  159SAPE  H18Z17837   4.650   3.753   8.657 -1.4467 -1.3063 -1.8697
  160SAPE     N17838   5.103   2.680   6.456 -0.1462 -0.2161 -0.5468
  160SAPE   HN117839   5.169   2.602   6.444  2.0263  1.1896  1.7894
  160SAPE   HN217840   5.021   2.654   6.398  1.2256 -0.2405 -2.5074
  160SAPE   HN317841   5.155   2.762   6.418  3.5021 -2.1659  0.0906
  160SAPE   C1217842   5.065   2.698   6.606  0.1172  0.4600  0.8165
  160SAPE  H12A17843   5.018   2.799   6.610 -0.8429  0.0067  0.8875
  160SAPE  H12B17844   5.157   2.705   6.668  0.8382 -0.4542 -0.1125
  160SAPE   C1117845   4.974   2.584   6.644  0.0144  0.8620 -0.1326
  160SAPE  H11A17846   4.961   2.572   6.754 -1.5982  1.3500 -0.2536
  160SAPE  H11B17847   5.011   2.487   6.606 -2.0813  0.6029 -1.5480
  160SAPE     P17848   4.705   2.650   6.636  0.1304 -0.2728  0.3676
  160SAPE   O1317849   4.666   2.779   6.578 -0.1943  0.1911 -0.0466
  160SAPE   O1417850   4.616   2.535   6.606  0.2670 -0.0601  0.3378
  160SAPE   O1217851   4.855   2.615   6.581  0.6158  0.2224  0.0962
  160SAPE   O1117852   4.721   2.665   6.790 -0.6029  0.1285 -0.5739
  160SAPE    C117853   4.730   2.562   6.897  0.7841 -0.2594 -0.7295
  160SAPE    HA17854   4.633   2.546   6.948  1.3986  0.6423  0.7673
  160SAPE    HB17855   4.744   2.467   6.842  1.4786 -1.1188  0.9061
  160SAPE    C217856   4.827   2.591   7.011 -0.2415  0.7205 -0.0065
  160SAPE    HS17857   4.919   2.531   6.996 -1.6158 -1.4161 -0.1372
  160SAPE   O2117858   4.763   2.563   7.136 -0.4140  0.3960 -0.4509
  160SAPE   C2117859   4.839   2.506   7.226  0.0798  0.6828  0.1151
  160SAPE   O2217860   4.955   2.475   7.218 -0.4629  0.9276 -0.1704
  160SAPE   C2217861   4.742   2.499   7.347  0.2600 -0.1037  0.5977
  160SAPE   H2R17862   4.711   2.603   7.371  1.9268  0.6013 -0.2520
  160SAPE   H2S17863   4.647   2.456   7.307 -1.0688  1.3242  2.1381
  160SAPE    C317864   4.867   2.741   7.023  0.4184 -0.1950 -0.5086
  160SAPE    HX17865   4.786   2.812   7.053 -0.8692 -1.5617 -0.6731
  160SAPE    HY17866   4.890   2.783   6.923 -1.1017  2.0833  0.0320
  160SAPE   O3117867   4.979   2.750   7.122 -0.3540  0.9622  0.3104
  160SAPE   C3117868   5.093   2.714   7.075  0.1215 -0.0431  0.1896
  160SAPE   O3217869   5.112   2.678   6.958  0.2580 -0.0938  0.3329
  160SAPE   C3217870   5.209   2.717   7.184 -0.2456 -0.3057  0.0305
  160SAPE   H2X17871   5.172   2.657   7.270  0.7733  0.1786  0.8237
  160SAPE   H2Y17872   5.217   2.822   7.221  0.8092 -1.1866  2.3767
  160SAPE   C2317873   4.789   2.427   7.480  0.0514  0.9238 -0.0614
  160SAPE   H3R17874   4.836   2.330   7.452 -1.7848 -0.0840  0.2509
  160SAPE   H3S17875   4.701   2.406   7.544  0.6588 -2.3549 -0.2077
  160SAPE   C2417876   4.878   2.509   7.570  0.3910  0.0759  0.0382
  160SAPE   H4R17877   4.955   2.532   7.492  1.2934 -0.7404  0.6771
  160SAPE   H4S17878   4.928   2.449   7.649 -0.8440 -1.4559 -0.3300
  160SAPE   C2517879   4.800   2.620   7.638 -0.2856 -0.6338  0.4503
  160SAPE   H5R17880   4.746   2.579   7.725 -0.9296 -1.4770 -0.3439
  160SAPE   C2617881   4.819   2.751   7.622  0.6765  0.3347  0.1498
  160SAPE   H6R17882   4.758   2.824   7.678 -0.4390  0.7762 -1.6005
  160SAPE   C2717883   4.920   2.818   7.531 -0.3004 -0.0040 -0.4621
  160SAPE   H7R17884   4.902   2.777   7.429 -1.0869  2.3504 -1.3145
  160SAPE   H7S17885   5.026   2.785   7.541 -1.1001 -2.1159  1.3353
  160SAPE   C2817886   4.910   2.969   7.523 -0.0206  0.8604  0.4685
  160SAPE   H8R17887   4.872   3.009   7.428 -0.1441 -2.8419 -1.1364
  160SAPE   C2917888   4.950   3.057   7.616  0.4559  0.3773 -1.0174
  160SAPE   H9R17889   4.938   3.165   7.598  0.3501  0.3214 -1.2824
  160SAPE  C21017890   5.023   3.020   7.745  0.5734 -0.2682 -1.3192
  160SAPE  H10R17891   5.129   3.047   7.725  0.6946  1.0860  0.9336
  160SAPE  H10S17892   5.020   2.910   7.763 -2.0722 -0.0229 -0.0737
  160SAPE  C21117893   4.966   3.093   7.859 -0.2758 -0.0185  0.1147
  160SAPE  H11R17894   4.860   3.079   7.885 -0.6749 -1.1410 -1.9888
  160SAPE  C21217895   5.037   3.181   7.930 -0.1061  0.5809 -0.3810
  160SAPE  H12R17896   4.982   3.235   8.008 -0.0182 -0.4410  0.4008
  160SAPE  C21317897   5.183   3.233   7.925 -0.0677 -0.3915  0.0012
  160SAPE  H13R17898   5.194   3.332   7.974 -0.6235 -0.0763 -0.4948
  160SAPE  H13S17899   5.212   3.251   7.819 -1.6680 -0.2166 -0.4180
  160SAPE  C21417900   5.287   3.125   7.970  0.7846  0.6347  0.4117
  160SAPE  H14R17901   5.285   3.030   7.913 -0.4779  0.6535  0.4244
  160SAPE  C21517902   5.367   3.136   8.076  0.5798 -0.7631 -0.7941
  160SAPE  H15R17903   5.446   3.060   8.084  1.1108 -0.2328 -0.8906
  160SAPE  C21617904   5.383   3.255   8.168  0.1089 -0.2483 -0.3070
  160SAPE  H16R17905   5.289   3.313   8.158 -0.5762 -1.2926 -0.0535
  160SAPE  H16S17906   5.475   3.315   8.150  0.8184 -1.3077 -0.2467
  160SAPE  C21717907   5.387   3.219   8.325  0.1085 -0.0181 -0.3316
  160SAPE  H17R17908   5.379   3.314   8.381 -0.8725 -0.3258  0.0596
  160SAPE  H17S17909   5.486   3.169   8.333 -0.4844 -0.7529  2.8693
  160SAPE  C21817910   5.286   3.118   8.380  0.0116  0.3377  0.0679
  160SAPE  H18R17911   5.300   3.019   8.332 -1.3200 -1.3459  3.0201
  160SAPE  H18S17912   5.181   3.153   8.364 -0.6668 -1.6078  0.0214
  160SAPE  C21917913   5.287   3.097   8.526  0.5704 -0.3367 -0.2684
  160SAPE  H19R17914   5.283   3.202   8.563 -0.7775  0.0950 -1.6268
  160SAPE  H19S17915   5.380   3.046   8.559  0.9522  0.7482  0.3776
  160SAPE  C22017916   5.162   3.040   8.584  0.6114 -0.5275 -0.2328
  160SAPE  H20R17917   5.160   2.934   8.549 -0.0256 -0.5939  0.0065
  160SAPE  H20S17918   5.068   3.090   8.552 -0.2287 -3.8866 -3.4089
  160SAPE  H20T17919   5.157   3.043   8.695 -0.6909  0.9026 -0.3178
  160SAPE   C3317920   5.353   2.672   7.142 -0.5295 -0.1131 -0.0498
  160SAPE   H3X17921   5.387   2.717   7.046  1.0562 -0.2785  0.4113
  160SAPE   H3Y17922   5.349   2.562   7.124  0.3246 -0.0409 -0.7736
  160SAPE   C3417923   5.469   2.710   7.239  0.4634 -0.3175 -0.5129
  160SAPE   H4X17924   5.479   2.820   7.230  0.6144 -0.4798 -2.5128
  160SAPE   H4Y17925   5.569   2.675   7.204  0.7339  0.7997 -0.8939
  160SAPE   C3517926   5.430   2.687   7.386  0.2790  0.1532 -0.4508
  160SAPE   H5X17927   5.423   2.577   7.400 -0.8510  0.3716  0.8178
  160SAPE   H5Y17928   5.336   2.739   7.414  0.1052 -1.1765  1.5276
  160SAPE   C3617929   5.528   2.742   7.493 -1.1542 -0.9901 -0.4027
  160SAPE   H6X17930   5.534   2.852   7.480  1.0750 -1.0328 -0.0008
  160SAPE   H6Y17931   5.631   2.704   7.477 -0.8716 -0.1981 -0.4922
  160SAPE   C3717932   5.480   2.705   7.639  0.3395 -0.2916  0.1598
  160SAPE   H7X17933   5.466   2.597   7.662  0.9396 -0.8487 -1.9978
  160SAPE   H7Y17934   5.389   2.768   7.651  1.7516  1.9327 -0.4212
  160SAPE   C3817935   5.575   2.761   7.752  0.4364  0.5450 -0.1912
  160SAPE   H8X17936   5.601   2.864   7.719 -0.7588  1.2790  1.0797
  160SAPE   H8Y17937   5.666   2.699   7.763  0.2309 -0.0624 -1.8808
  160SAPE   C3917938   5.503   2.786   7.887  0.0337 -0.5415 -0.1951
  160SAPE   H9X17939   5.435   2.703   7.913  0.5785 -0.8842  0.1418
  160SAPE   H9Y17940   5.441   2.878   7.887  1.1304  0.2288  1.7163
  160SAPE  C31017941   5.614   2.785   7.995 -0.1671 -0.5971 -0.6964
  160SAPE  H10X17942   5.680   2.875   7.992 -1.2773  0.3825  2.0236
  160SAPE  H10Y17943   5.672   2.693   7.973 -2.3874 -2.6360  1.6613
  160SAPE  C31117944   5.574   2.776   8.142 -0.1207 -0.2119 -0.2368
  160SAPE  H11X17945   5.522   2.677   8.144  1.8342 -1.2555 -0.3233
  160SAPE  H11Y17946   5.496   2.852   8.165 -1.0044 -0.5997 -1.8723
  160SAPE  C31217947   5.684   2.782   8.247  0.3455  0.3471  0.6784
  160SAPE  H12X17948   5.724   2.886   8.250  1.9819 -0.2280 -0.3212
  160SAPE  H12Y17949   5.772   2.726   8.209 -1.1443 -1.4305 -0.2375
  160SAPE  C31317950   5.631   2.730   8.386 -0.5255  0.9148  0.6709
  160SAPE  H13X17951   5.713   2.714   8.459 -1.2066 -3.4846  0.5993
  160SAPE  H13Y17952   5.589   2.633   8.354  1.7014  0.0950  0.1922
  160SAPE  C31417953   5.519   2.808   8.462  0.5406  0.4416  0.1164
  160SAPE  H14X17954   5.423   2.805   8.406  0.8041  0.6893 -0.3523
  160SAPE  H14Y17955   5.554   2.913   8.468 -0.4001  0.7822 -0.2676
  160SAPE  C31517956   5.491   2.770   8.608 -0.0272 -0.5557 -0.7433
  160SAPE  H15X17957   5.469   2.661   8.615  0.6377 -0.7748 -1.9566
  160SAPE  H15Y17958   5.396   2.822   8.634  0.1862 -0.2618 -0.5629
  160SAPE  C31617959   5.609   2.788   8.701 -0.0748  0.1968 -0.3960
  160SAPE  H16X17960   5.660   2.885   8.681 -0.7949  0.1167 -2.7185
  160SAPE  H16Y17961   5.691   2.716   8.681 -1.1836 -1.2264  0.1080
  160SAPE  C31717962   5.563   2.749   8.844 -0.2154 -0.5469 -0.1251
  160SAPE  H17X17963   5.478   2.817   8.867  0.3654  0.0137  0.3548
  160SAPE  H17Y17964   5.638   2.784   8.917 -1.4517 -2.5342  2.1520
  160SAPE  C31817965   5.510   2.611   8.872  0.2003  0.4131 -0.7979
  160SAPE  H18X17966   5.463   2.598   8.971 -0.1478  0.8770 -0.9012
  160SAPE  H18Y17967   5.588   2.533   8.858 -0.4115 -0.3619  0.1245
  160SAPE  H18Z17968   5.426   2.586   8.804  0.0305  0.1946 -0.5057
  161SOPE     N17969   2.009   4.911  11.277 -0.2744  0.4856 -0.3218
  161SOPE   HN117970   1.920   4.946  11.235 -1.3118  0.4734  1.7928
  161SOPE   HN217971   1.989   4.911  11.379 -0.0397 -2.1173 -0.2443
  161SOPE   HN317972   2.083   4.978  11.246  0.9710 -0.6980  0.0626
  161SOPE   C1217973   2.042   4.773  11.233  0.0022  0.1305  0.3402
  161SOPE  H12A17974   1.971   4.704  11.283  1.0888 -0.8341  0.5882
  161SOPE  H12B17975   2.147   4.742  11.255  0.8548  2.2814 -0.4854
  161SOPE   C1117976   2.021   4.771  11.082  0.6813  0.3126 -0.6649
  161SOPE  H11A17977   1.914   4.796  11.063 -0.2780 -2.0358  1.4076
  161SOPE  H11B17978   2.054   4.666  11.063 -1.8056 -0.5102 -0.6165
  161SOPE     P17979   2.258   4.839  10.983 -0.4430 -0.2175  0.0582
  161SOPE   O1317980   2.322   4.814  11.114 -0.3919  0.0726 -0.5757
  161SOPE   O1417981   2.310   4.959  10.908 -0.1186  0.4160  0.4089
  161SOPE   O1217982   2.106   4.864  11.008  0.1571  0.2744 -0.4705
  161SOPE   O1117983   2.247   4.710  10.891 -0.1657 -0.3304 -0.0099
  161SOPE    C117984   2.146   4.706  10.788  0.9511 -0.3284 -0.2910
  161SOPE    HA17985   2.051   4.759  10.810  0.6046 -0.9196 -0.3417
  161SOPE    HB17986   2.118   4.603  10.759 -0.8185 -0.4312  1.6661
  161SOPE    C217987   2.202   4.784  10.664  0.0418 -0.3817  0.5518
  161SOPE    HS17988   2.212   4.893  10.682  2.0824 -0.3444 -0.6383
  161SOPE   O2117989   2.099   4.767  10.566  0.2021  0.6159 -0.0296
  161SOPE   C2117990   2.065   4.873  10.497 -0.2447  0.2387  0.0492
  161SOPE   O2217991   2.085   4.989  10.523 -0.3344 -0.4574  0.7707
  161SOPE   C2217992   2.014   4.824  10.366 -0.0009  0.0726 -0.0806
  161SOPE   H2R17993   1.907   4.796  10.377  0.3310 -1.3781 -0.5200
  161SOPE   H2S17994   2.067   4.732  10.335 -1.0701 -0.9389  1.0356
  161SOPE    C317995   2.327   4.720  10.597  0.3696  0.0152  0.5070
  161SOPE    HX17996   2.301   4.622  10.551 -0.3770  0.5894 -0.2909
  161SOPE    HY17997   2.407   4.698  10.672 -0.4552  0.5174  1.5507
  161SOPE   O3117998   2.364   4.802  10.494  0.0766 -0.2157 -0.0726
  161SOPE   C3117999   2.465   4.888  10.518  0.5568 -0.2203  0.5010
  161SOPE   O3218000   2.539   4.893  10.618  0.6003 -0.0750  0.4459
  161SOPE   C3218001   2.465   4.982  10.401  0.7689  0.4394 -0.4461
  161SOPE   H2X18002   2.368   5.026  10.369  1.6079 -0.2094 -4.1372
  161SOPE   H2Y18003   2.495   4.920  10.315 -0.0344  0.7123 -0.9347
  161SOPE   C2318004   2.045   4.922  10.251 -0.1467  0.5026  0.1831
  161SOPE   H3R18005   2.153   4.948  10.246  0.6334 -2.7277 -0.8494
  161SOPE   H3S18006   1.999   5.022  10.269 -1.5878 -0.1619  0.2301
  161SOPE   C2418007   2.002   4.867  10.110  0.1894  0.4110  0.0011
  161SOPE   H4R18008   2.050   4.768  10.095  0.7416  0.5495  0.8805
  161SOPE   H4S18009   1.891   4.857  10.102  0.4668 -2.8802 -0.1663
  161SOPE   C2518010   2.056   4.954   9.994 -0.1903  0.4259  0.3453
  161SOPE   H5R18011   2.029   5.059  10.014  1.3112  0.2937  3.4058
  161SOPE   H5S18012   2.167   4.958   9.989 -0.1922 -0.7542 -1.5774
  161SOPE   C2618013   2.006   4.896   9.855  0.0278  0.1411 -0.0166
  161SOPE   H6R18014   1.972   4.792   9.868 -3.4856  1.3668  1.1399
  161SOPE   H6S18015   1.926   4.963   9.817 -0.0653 -1.5790 -3.0232
  161SOPE   C2718016   2.116   4.903   9.745 -0.3771  0.2839  0.0229
  161SOPE   H7R18017   2.175   4.997   9.760 -1.1502  0.4408  2.3094
  161SOPE   H7S18018   2.186   4.819   9.764 -0.4757  0.3174  0.5624
  161SOPE   C2818019   2.056   4.907   9.605 -0.1906  0.6987  0.3898
  161SOPE   H8R18020   1.986   4.992   9.588  1.6134  2.3374  0.9219
  161SOPE   H8S18021   2.130   4.928   9.524  1.8557 -0.2363  1.9859
  161SOPE   C2918022   1.999   4.768   9.570  0.1788 -0.4664 -0.0562
  161SOPE   H9118023   1.920   4.727   9.635  2.0172 -6.2822 -1.1852
  161SOPE  C21018024   2.022   4.692   9.460  0.0512 -0.0291 -1.0736
  161SOPE  H10118025   1.961   4.604   9.435 -0.0837 -0.3706  0.4331
  161SOPE  C21118026   2.109   4.724   9.342 -1.1257 -0.4676  0.0728
  161SOPE  H11R18027   2.204   4.672   9.369 -1.3426 -0.7514  0.2966
  161SOPE  H11S18028   2.148   4.828   9.336  0.4411 -1.1001 -1.2332
  161SOPE  C21218029   2.057   4.667   9.211 -0.4696 -0.2046  0.5063
  161SOPE  H12R18030   1.968   4.726   9.179  1.0025  2.8236  1.7820
  161SOPE  H12S18031   2.014   4.565   9.221  1.1121 -1.1977 -2.2957
  161SOPE  C21318032   2.157   4.671   9.102 -0.2534 -0.1678 -0.7304
  161SOPE  H13R18033   2.250   4.622   9.139  0.1770  0.3225 -1.1540
  161SOPE  H13S18034   2.181   4.779   9.091  2.1724 -0.6967 -0.8556
  161SOPE  C21418035   2.091   4.604   8.983 -0.1922 -0.4187  0.1097
  161SOPE  H14R18036   2.003   4.664   8.951  2.2652  2.7048 -1.0863
  161SOPE  H14S18037   2.064   4.506   9.027  0.0227  0.2282  1.7197
  161SOPE  C21518038   2.196   4.578   8.870  0.4500 -1.0549  0.2977
  161SOPE  H15R18039   2.294   4.558   8.916  0.2255 -1.0967  0.7567
  161SOPE  H15S18040   2.222   4.661   8.800 -1.7041 -0.0437  0.6301
  161SOPE  C21618041   2.155   4.459   8.787 -0.3845 -0.5578 -0.1754
  161SOPE  H16R18042   2.055   4.478   8.741  0.2268  1.2257 -0.7965
  161SOPE  H16S18043   2.134   4.382   8.865 -0.4884  0.5518  0.9120
  161SOPE  C21718044   2.253   4.409   8.685 -1.0466 -0.3464  0.0730
  161SOPE  H17R18045   2.353   4.456   8.698 -0.3002 -1.6721 -0.7446
  161SOPE  H17S18046   2.221   4.432   8.581 -2.1550 -1.0559  0.2386
  161SOPE  C21818047   2.278   4.254   8.693  0.3426 -0.1489  0.3037
  161SOPE  H18R18048   2.335   4.241   8.787  0.5040 -3.5064 -0.2031
  161SOPE  H18S18049   2.338   4.219   8.606  0.2372 -0.5726  0.4020
  161SOPE  H18T18050   2.182   4.199   8.685  0.2092  0.2717 -1.3078
  161SOPE   C3318051   2.557   5.105  10.419  0.2291  0.1157 -0.5205
  161SOPE   H3X18052   2.654   5.080  10.467  1.1866  0.4697 -2.2654
  161SOPE   H3Y18053   2.512   5.175  10.492  0.9718 -0.3168  0.3655
  161SOPE   C3418054   2.585   5.176  10.284 -0.0250 -0.2038 -0.0524
  161SOPE   H4X18055   2.581   5.284  10.311  0.8224 -0.1840  0.0051
  161SOPE   H4Y18056   2.503   5.147  10.215  0.6040  0.7364 -1.2268
  161SOPE   C3518057   2.720   5.137  10.202 -0.0195 -0.0109 -0.0830
  161SOPE   H5X18058   2.732   5.028  10.220 -1.7773 -0.4927 -1.6533
  161SOPE   H5Y18059   2.806   5.190  10.250 -1.3224  2.0912  0.0101
  161SOPE   C3618060   2.719   5.162  10.047 -1.4819  0.8334 -0.7179
  161SOPE   H6X18061   2.826   5.171  10.017 -2.0266  0.1489 -2.9244
  161SOPE   H6Y18062   2.669   5.257  10.020  0.4274  0.7710 -4.9954
  161SOPE   C3718063   2.649   5.043   9.964 -0.2985  0.5971  0.0831
  161SOPE   H7X18064   2.540   5.047   9.987 -0.4383  0.7120 -0.5920
  161SOPE   H7Y18065   2.698   4.945   9.981 -0.6745  0.6209  1.3903
  161SOPE   C3818066   2.664   5.062   9.814 -0.3871 -0.4478 -0.8727
  161SOPE   H8X18067   2.771   5.051   9.785  0.1599  0.1678  0.8474
  161SOPE   H8Y18068   2.635   5.162   9.775  2.0087  0.8438  0.5204
  161SOPE   C3918069   2.581   4.964   9.730  0.3024  0.8113 -0.2528
  161SOPE   H9X18070   2.471   4.970   9.746  0.4964  1.9581  0.7449
  161SOPE   H9Y18071   2.600   4.863   9.773 -0.5670  0.0271 -1.6864
  161SOPE  C31018072   2.624   4.958   9.583  0.4582 -0.8031 -0.1196
  161SOPE  H10X18073   2.727   4.919   9.575  0.4468 -1.2748  1.8934
  161SOPE  H10Y18074   2.621   5.056   9.529  0.8624  1.2751  3.4792
  161SOPE  C31118075   2.553   4.859   9.484  0.4300  0.2063  0.0807
  161SOPE  H11X18076   2.453   4.898   9.456 -0.3319 -0.9477  1.1214
  161SOPE  H11Y18077   2.532   4.765   9.540 -2.4920  1.9628  2.0560
  161SOPE  C31218078   2.632   4.844   9.360  0.4784 -0.3685  0.3997
  161SOPE  H12X18079   2.727   4.902   9.365  0.3130 -0.2030  1.7665
  161SOPE  H12Y18080   2.588   4.876   9.263  1.8215  2.8164  0.7610
  161SOPE  C31318081   2.658   4.694   9.340  0.3915 -0.0906 -0.0840
  161SOPE  H13X18082   2.576   4.628   9.377  1.1247 -2.3954 -2.3957
  161SOPE  H13Y18083   2.751   4.665   9.394  0.2345  1.3791  1.0229
  161SOPE  C31418084   2.685   4.663   9.189 -0.4936 -0.2736  0.4676
  161SOPE  H14X18085   2.782   4.702   9.153 -0.5342  1.1467  1.8606
  161SOPE  H14Y18086   2.598   4.708   9.137  0.4646  1.8964  0.7160
  161SOPE  C31518087   2.677   4.507   9.162 -0.4971 -0.2729 -0.0102
  161SOPE  H15X18088   2.661   4.464   9.264  2.8157  0.4597  0.8793
  161SOPE  H15Y18089   2.769   4.464   9.118  0.8749  0.2079  2.2841
  161SOPE  C31618090   2.572   4.468   9.056 -0.0814  0.0049 -0.6578
  161SOPE  H16X18091   2.486   4.525   9.098  0.9017 -1.6411  3.8935
  161SOPE  H16Y18092   2.554   4.359   9.055 -0.0156 -0.0379  1.0344
  161SOPE  C31718093   2.613   4.516   8.921  0.0517 -0.0451 -0.0290
  161SOPE  H17X18094   2.675   4.607   8.929 -1.1039  0.7402  0.1279
  161SOPE  H17Y18095   2.524   4.549   8.862  0.9474 -0.9228 -1.9069
  161SOPE  C31818096   2.694   4.411   8.842  0.0035 -0.5814  0.9272
  161SOPE  H18X18097   2.646   4.311   8.829  1.0774 -1.1601  1.3021
  161SOPE  H18Y18098   2.797   4.397   8.881  1.1519 -0.0437 -1.7493
  161SOPE  H18Z18099   2.691   4.449   8.737  0.9044 -2.0026  0.3614
  162SOPE     N18100   0.693   5.464  10.958 -0.0325  0.1759  0.5193
  162SOPE   HN118101   0.630   5.443  10.879  1.3377  2.6569 -1.3331
  162SOPE   HN218102   0.664   5.552  11.007 -0.0075  0.7012 -0.3831
  162SOPE   HN318103   0.788   5.471  10.917  0.3105  0.4497  1.3542
  162SOPE   C1218104   0.703   5.353  11.058  0.2207  0.4332  0.0749
  162SOPE  H12A18105   0.607   5.346  11.115 -0.8994  0.7138 -1.7297
  162SOPE  H12B18106   0.767   5.388  11.142 -0.6482  1.6714  0.2422
  162SOPE   C1118107   0.751   5.231  10.980  0.3103 -0.3815 -0.6339
  162SOPE  H11A18108   0.668   5.197  10.916 -0.8526  2.1759 -0.5553
  162SOPE  H11B18109   0.770   5.157  11.061 -0.1115  1.0322  0.7867
  162SOPE     P18110   0.970   5.143  10.881  0.0435  0.0651 -0.4995
  162SOPE   O1318111   1.010   5.072  11.006 -0.5784 -0.5789  0.4297
  162SOPE   O1418112   1.080   5.192  10.793  0.0824  0.0501  0.1137
  162SOPE   O1218113   0.880   5.265  10.923  0.2054  0.0581  0.1031
  162SOPE   O1118114   0.877   5.047  10.791  0.0291 -0.2886 -0.3811
  162SOPE    C118115   0.776   5.096  10.698  0.0993 -0.2295  0.0039
  162SOPE    HA18116   0.774   5.207  10.698 -1.6786 -0.2515  0.1322
  162SOPE    HB18117   0.681   5.046  10.726  1.0330 -0.9107  2.0896
  162SOPE    C218118   0.802   5.044  10.552 -0.7251  0.9611 -0.7765
  162SOPE    HS18119   0.803   4.934  10.565  0.0493  1.2132  1.4411
  162SOPE   O2118120   0.928   5.094  10.508 -0.5083 -0.1407  0.1052
  162SOPE   C2118121   0.989   5.024  10.418 -0.2412 -0.0558 -0.4878
  162SOPE   O2218122   0.957   4.910  10.385  0.2665 -0.0080  0.4746
  162SOPE   C2218123   1.107   5.097  10.351  1.0221  0.3662  0.1237
  162SOPE   H2R18124   1.197   5.056  10.402  0.9144  1.9869  1.6328
  162SOPE   H2S18125   1.107   5.202  10.386 -2.0569  0.6458 -0.6068
  162SOPE    C318126   0.687   5.091  10.463  0.0702  0.1356  0.2061
  162SOPE    HX18127   0.687   5.201  10.476  1.6930  0.1454  0.1898
  162SOPE    HY18128   0.600   5.056  10.523  1.5831 -0.4888  2.0875
  162SOPE   O3118129   0.693   5.052  10.328 -0.1478 -0.0681  0.2659
  162SOPE   C3118130   0.652   4.926  10.308 -0.1956  0.1359  0.7952
  162SOPE   O3218131   0.626   4.849  10.396 -0.3479  0.1444  0.0503
  162SOPE   C3218132   0.662   4.886  10.156 -0.5153  0.1800 -0.1481
  162SOPE   H2X18133   0.571   4.825  10.136 -2.4421  2.8455  0.2185
  162SOPE   H2Y18134   0.755   4.827  10.167 -0.3553  0.1302 -1.6114
  162SOPE   C2318135   1.107   5.077  10.192  0.0998  0.5048 -0.7056
  162SOPE   H3R18136   1.029   5.144  10.151  0.9153  1.2611 -1.0412
  162SOPE   H3S18137   1.073   4.972  10.180  1.5361 -0.0859  0.2341
  162SOPE   C2418138   1.251   5.108  10.135 -0.1361  0.0916 -0.0247
  162SOPE   H4R18139   1.288   5.207  10.169  1.4057 -0.3323 -0.4344
  162SOPE   H4S18140   1.320   5.035  10.183 -0.1817  1.1332  1.6618
  162SOPE   C2518141   1.245   5.113   9.981 -0.0109  0.9874 -0.0155
  162SOPE   H5R18142   1.230   5.013   9.934 -0.3742 -0.1119  2.3855
  162SOPE   H5S18143   1.161   5.177   9.945 -1.2317 -0.2379  0.6064
  162SOPE   C2618144   1.370   5.180   9.922  0.5294 -0.4064 -0.5160
  162SOPE   H6R18145   1.410   5.260   9.989  1.3253 -0.3272 -1.0796
  162SOPE   H6S18146   1.448   5.102   9.907 -0.6941 -1.7045 -0.1910
  162SOPE   C2718147   1.333   5.237   9.777 -0.0792  0.3230  0.6081
  162SOPE   H7R18148   1.294   5.148   9.724  0.5678 -0.8625  2.0641
  162SOPE   H7S18149   1.242   5.301   9.783 -0.1490  0.4214 -1.4541
  162SOPE   C2818150   1.442   5.318   9.701  0.2871  0.6953 -0.1834
  162SOPE   H8R18151   1.533   5.255   9.698 -1.2634 -1.9253  3.8036
  162SOPE   H8S18152   1.399   5.341   9.601 -1.3517 -1.1448  0.0742
  162SOPE   C2918153   1.480   5.439   9.778  0.8748 -0.2437 -0.6884
  162SOPE   H9118154   1.530   5.427   9.875  0.4987 -1.1836 -0.6054
  162SOPE  C21018155   1.444   5.562   9.747 -0.0545  0.1324  0.1327
  162SOPE  H10118156   1.470   5.650   9.808  0.8419 -0.7408  1.0223
  162SOPE  C21118157   1.370   5.616   9.628 -0.3171  0.4591 -0.3652
  162SOPE  H11R18158   1.287   5.685   9.652 -1.5185  0.0427 -3.1634
  162SOPE  H11S18159   1.326   5.538   9.562  2.0138 -0.3703 -0.9907
  162SOPE  C21218160   1.458   5.706   9.539 -0.5950 -0.6701  0.1392
  162SOPE  H12R18161   1.553   5.666   9.498 -1.2010 -2.2943  0.3075
  162SOPE  H12S18162   1.483   5.796   9.600 -0.4283 -0.4519 -0.2473
  162SOPE  C21318163   1.375   5.764   9.426  0.5404  0.4248  0.2105
  162SOPE  H13R18164   1.435   5.840   9.371  0.1581 -0.2449 -1.1745
  162SOPE  H13S18165   1.276   5.803   9.457  0.4881 -0.4671  1.1859
  162SOPE  C21418166   1.338   5.674   9.309 -0.0075 -0.9749  0.1154
  162SOPE  H14R18167   1.277   5.740   9.244  2.6000  1.3097 -0.1207
  162SOPE  H14S18168   1.273   5.593   9.350 -0.4981 -0.1326  1.0361
  162SOPE  C21518169   1.463   5.612   9.239 -0.2497  0.1474 -0.4274
  162SOPE  H15R18170   1.492   5.524   9.300 -1.3001  0.1689  0.1152
  162SOPE  H15S18171   1.543   5.688   9.227 -1.1293  0.9212 -1.4323
  162SOPE  C21618172   1.418   5.547   9.102 -0.0947  0.4831 -0.6589
  162SOPE  H16R18173   1.331   5.480   9.120  0.8134 -0.8967 -1.3026
  162SOPE  H16S18174   1.509   5.488   9.078  0.8089  1.1626  0.9896
  162SOPE  C21718175   1.401   5.650   8.990 -0.7052 -0.5016 -0.4412
  162SOPE  H17R18176   1.488   5.718   8.981  0.2557 -1.7432 -0.6365
  162SOPE  H17S18177   1.314   5.716   9.009 -2.0945 -1.9593 -1.5858
  162SOPE  C21818178   1.389   5.601   8.846  0.0332 -0.4424 -0.1015
  162SOPE  H18R18179   1.309   5.525   8.832  0.6908 -1.1761  0.0894
  162SOPE  H18S18180   1.481   5.548   8.814  1.5101  1.5275  0.8215
  162SOPE  H18T18181   1.366   5.687   8.780 -2.3805 -0.5535  0.5524
  162SOPE   C3318182   0.684   4.998  10.053  0.0137  0.6645  0.2657
  162SOPE   H3X18183   0.773   5.046  10.099 -0.0176  2.3953 -1.4232
  162SOPE   H3Y18184   0.597   5.067  10.054  0.3187  1.0829 -1.0638
  162SOPE   C3418185   0.725   4.946   9.916  0.3987 -0.3178 -0.1094
  162SOPE   H4X18186   0.642   4.888   9.870 -0.2405  1.3695 -1.1406
  162SOPE   H4Y18187   0.816   4.885   9.933  1.3358  0.9355 -0.5221
  162SOPE   C3518188   0.754   5.064   9.811 -0.1238  0.4876  0.2686
  162SOPE   H5X18189   0.783   5.155   9.868 -2.5308  0.3174  1.8735
  162SOPE   H5Y18190   0.663   5.104   9.762 -0.5624  0.0157  0.6884
  162SOPE   C3618191   0.856   5.025   9.702  0.4612 -0.2509  0.0838
  162SOPE   H6X18192   0.802   4.959   9.630 -0.8154  2.0215 -1.0894
  162SOPE   H6Y18193   0.948   4.983   9.749  0.4650 -1.0964 -0.6760
  162SOPE   C3718194   0.907   5.146   9.618  0.4999 -0.0329  0.1028
  162SOPE   H7X18195   0.932   5.224   9.693 -0.3857  0.7391 -0.3843
  162SOPE   H7Y18196   0.831   5.199   9.556  0.6148 -2.4563 -2.1953
  162SOPE   C3818197   1.027   5.115   9.534 -0.4784  0.3701 -0.0191
  162SOPE   H8X18198   1.124   5.100   9.586  0.4757  0.1359 -1.8280
  162SOPE   H8Y18199   1.053   5.208   9.478 -2.1854 -0.6650 -2.6036
  162SOPE   C3918200   1.006   5.007   9.423 -0.2546 -0.0719  0.0050
  162SOPE   H9X18201   1.006   4.906   9.471  2.1650  0.9462  2.2419
  162SOPE   H9Y18202   1.099   5.016   9.364 -0.2700 -1.6794 -0.2955
  162SOPE  C31018203   0.879   5.022   9.338 -0.2277  0.2806  0.7967
  162SOPE  H10X18204   0.874   5.117   9.281  2.2350  0.1088  0.2096
  162SOPE  H10Y18205   0.794   5.027   9.409 -2.0219 -2.3874 -1.0632
  162SOPE  C31118206   0.862   4.909   9.241  0.5280 -0.0445 -0.2829
  162SOPE  H11X18207   0.818   4.810   9.269 -0.8168  0.5564 -0.2002
  162SOPE  H11Y18208   0.959   4.890   9.191  1.0063 -0.0409  0.6213
  162SOPE  C31218209   0.762   4.957   9.128 -0.0184  0.3295  0.7816
  162SOPE  H12X18210   0.820   5.032   9.070 -0.8733 -0.1738 -0.7399
  162SOPE  H12Y18211   0.675   5.004   9.178 -0.6659 -0.2646  0.2176
  162SOPE  C31318212   0.719   4.843   9.029  0.3060  0.3676 -0.1525
  162SOPE  H13X18213   0.669   4.763   9.087 -0.7328 -0.1242 -1.7020
  162SOPE  H13Y18214   0.810   4.807   8.977  0.0493  0.7011 -0.8542
  162SOPE  C31418215   0.626   4.887   8.913  0.5300  0.6695 -0.3543
  162SOPE  H14X18216   0.669   4.982   8.873  1.1632  1.0721  1.2528
  162SOPE  H14Y18217   0.531   4.911   8.966  0.7251 -0.6759  0.6003
  162SOPE  C31518218   0.607   4.780   8.801  0.6360  0.1050 -0.2214
  162SOPE  H15X18219   0.704   4.768   8.749  2.2095  4.0535  1.6159
  162SOPE  H15Y18220   0.530   4.823   8.733  0.0251  0.3463  0.6136
  162SOPE  C31618221   0.561   4.635   8.849 -0.3014 -0.0559 -0.0012
  162SOPE  H16X18222   0.459   4.643   8.893  0.0320 -3.0988  1.4675
  162SOPE  H16Y18223   0.620   4.604   8.938 -0.1200 -2.0339 -0.7773
  162SOPE  C31718224   0.572   4.522   8.751  0.4327 -0.8737  0.8167
  162SOPE  H17X18225   0.678   4.497   8.729 -0.0877 -2.4624  0.0388
  162SOPE  H17Y18226   0.512   4.559   8.665  0.7207 -1.7379  0.2299
  162SOPE  C31818227   0.503   4.394   8.793  0.6572  0.0244 -0.2931
  162SOPE  H18X18228   0.397   4.407   8.824  0.2511  1.2718 -2.1580
  162SOPE  H18Y18229   0.558   4.344   8.877 -1.9900  1.8771  2.6303
  162SOPE  H18Z18230   0.499   4.320   8.710  1.1730 -0.9221  0.5031
  163SOPE     N18231   2.838   2.818  10.851 -0.3795 -0.1393 -0.1041
  163SOPE   HN118232   2.857   2.829  10.953 -2.4282 -0.6555  0.3523
  163SOPE   HN218233   2.893   2.734  10.826  2.1529  0.8169  2.0427
  163SOPE   HN318234   2.885   2.886  10.788 -0.0660 -0.2228  0.0376
  163SOPE   C1218235   2.689   2.799  10.825 -0.4223 -0.0169  0.2923
  163SOPE  H12A18236   2.642   2.893  10.791  0.5849  0.8923  1.4044
  163SOPE  H12B18237   2.643   2.768  10.921 -0.5711 -1.0492 -0.0952
  163SOPE   C1118238   2.657   2.688  10.730 -1.6433 -0.2175  0.1996
  163SOPE  H11A18239   2.713   2.596  10.758 -2.2305 -0.9687 -1.0282
  163SOPE  H11B18240   2.708   2.703  10.632 -0.6893  0.6758  0.8258
  163SOPE     P18241   2.441   2.538  10.763 -0.0632 -0.0309  0.0458
  163SOPE   O1318242   2.292   2.553  10.773  0.0126  0.3449 -0.1955
  163SOPE   O1418243   2.512   2.492  10.879  0.0488 -0.1289 -0.0194
  163SOPE   O1218244   2.516   2.669  10.717 -0.9935 -0.4475 -0.7024
  163SOPE   O1118245   2.466   2.436  10.648 -0.5830  0.3105 -0.2101
  163SOPE    C118246   2.467   2.478  10.514 -0.3436  0.0059 -0.5604
  163SOPE    HA18247   2.510   2.392  10.458 -0.8323 -1.4023  1.1381
  163SOPE    HB18248   2.539   2.561  10.506  0.1350 -0.3221  0.2486
  163SOPE    C218249   2.329   2.511  10.450 -0.5715 -0.1058  0.4666
  163SOPE    HS18250   2.279   2.597  10.500  0.5114  0.1979  1.0400
  163SOPE   O2118251   2.254   2.393  10.457  0.1437  0.0402 -0.0084
  163SOPE   C2118252   2.123   2.404  10.485 -0.0354 -0.0153  0.4822
  163SOPE   O2218253   2.065   2.509  10.475 -0.4309  0.4633 -0.0033
  163SOPE   C2218254   2.056   2.276  10.512 -0.0479 -0.4346  0.8585
  163SOPE   H2R18255   2.067   2.270  10.623  1.0585 -0.4222  0.7517
  163SOPE   H2S18256   2.106   2.190  10.462 -2.6398 -2.1415  1.0700
  163SOPE    C318257   2.345   2.569  10.312 -0.1324 -0.2473  0.2198
  163SOPE    HX18258   2.252   2.622  10.284 -0.9245 -1.7155 -0.0199
  163SOPE    HY18259   2.360   2.483  10.242  1.4389  2.8118 -3.3491
  163SOPE   O3118260   2.460   2.655  10.300  0.0060 -0.0691  0.0365
  163SOPE   C3118261   2.445   2.789  10.303  0.1614  0.0655 -0.4383
  163SOPE   O3218262   2.337   2.843  10.296 -0.0651 -0.4042 -0.1944
  163SOPE   C3218263   2.577   2.861  10.314  0.1467 -0.2701 -0.8633
  163SOPE   H2X18264   2.658   2.790  10.340  0.2525  0.3620  0.5928
  163SOPE   H2Y18265   2.561   2.937  10.394  0.3265 -0.5039 -0.6013
  163SOPE   C2318266   1.907   2.287  10.475 -0.4306  0.4553 -0.3482
  163SOPE   H3R18267   1.864   2.374  10.530 -2.2530 -1.2443  1.0005
  163SOPE   H3S18268   1.848   2.201  10.516 -1.8663  0.2126 -2.8448
  163SOPE   C2418269   1.887   2.295  10.316 -0.3661  0.7124  0.1508
  163SOPE   H4R18270   1.928   2.385  10.264  0.5003 -1.0850 -2.3894
  163SOPE   H4S18271   1.926   2.200  10.274  1.2026  0.3876  2.2603
  163SOPE   C2518272   1.741   2.283  10.297  0.2919 -0.2824 -0.6536
  163SOPE   H5R18273   1.696   2.215  10.372  1.6702  0.3144  0.7463
  163SOPE   H5S18274   1.692   2.378  10.328 -0.5282 -1.1690  0.8471
  163SOPE   C2618275   1.692   2.245  10.157 -0.1897 -0.0948  0.7463
  163SOPE   H6R18276   1.730   2.314  10.079 -1.4457  0.5037  0.6390
  163SOPE   H6S18277   1.736   2.147  10.133 -1.6867 -0.5588 -0.1882
  163SOPE   C2718278   1.537   2.240  10.163 -0.1299 -0.1274 -0.4110
  163SOPE   H7R18279   1.513   2.163  10.240  1.7620  0.9126  1.2535
  163SOPE   H7S18280   1.500   2.337  10.202 -1.1526  0.2774 -2.3412
  163SOPE   C2818281   1.466   2.195  10.043 -0.1483  0.1634  0.1857
  163SOPE   H8R18282   1.496   2.090  10.023  0.9618  0.3027  1.1089
  163SOPE   H8S18283   1.359   2.179  10.070  0.5579 -1.7174  1.9840
  163SOPE   C2918284   1.475   2.293   9.927 -0.3790  0.4027 -0.2908
  163SOPE   H9118285   1.486   2.393   9.972 -0.9147  0.2016  0.3052
  163SOPE  C21018286   1.477   2.275   9.798  0.1589  0.9019 -0.2779
  163SOPE  H10118287   1.470   2.365   9.735 -2.7764  1.0871  0.2489
  163SOPE  C21118288   1.469   2.142   9.732 -0.0251 -0.1670 -0.0376
  163SOPE  H11R18289   1.364   2.125   9.702  0.6976 -1.7975 -1.7494
  163SOPE  H11S18290   1.502   2.057   9.796  1.0421 -0.8835 -1.5184
  163SOPE  C21218291   1.542   2.133   9.597 -0.1909  0.4299 -0.2437
  163SOPE  H12R18292   1.650   2.150   9.617  0.2898  0.7557 -2.8813
  163SOPE  H12S18293   1.508   2.223   9.541 -1.1093 -0.6861 -1.5005
  163SOPE  C21318294   1.511   1.997   9.530  0.7471  0.4353  0.5812
  163SOPE  H13R18295   1.406   1.988   9.495  1.0075  0.9167 -0.3225
  163SOPE  H13S18296   1.545   1.922   9.605  3.0309  0.6811 -0.1895
  163SOPE  C21418297   1.603   1.982   9.406  0.7998  0.2192  0.1754
  163SOPE  H14R18298   1.708   1.959   9.436  0.0275 -1.2924  1.7739
  163SOPE  H14S18299   1.611   2.075   9.346 -0.4138 -0.8567 -1.7101
  163SOPE  C21518300   1.548   1.890   9.297 -0.3027  0.2674 -0.2850
  163SOPE  H15R18301   1.508   1.792   9.332 -0.7486 -0.0337 -1.6018
  163SOPE  H15S18302   1.627   1.881   9.219 -1.6148 -2.0175 -1.4138
  163SOPE  C21618303   1.435   1.949   9.210  0.1961 -0.0560  0.6360
  163SOPE  H16R18304   1.462   2.052   9.177 -0.5335  0.3160  1.1901
  163SOPE  H16S18305   1.343   1.953   9.272  1.0159  0.8301  1.8137
  163SOPE  C21718306   1.391   1.857   9.096  0.2727  0.4202  0.9037
  163SOPE  H17R18307   1.352   1.760   9.134 -1.1098 -0.4975 -2.6690
  163SOPE  H17S18308   1.482   1.819   9.045 -0.5076 -0.5870  0.2366
  163SOPE  C21818309   1.293   1.924   9.010  0.2866  0.3517  0.5722
  163SOPE  H18R18310   1.230   1.841   8.972 -0.0626  0.3571  1.1284
  163SOPE  H18S18311   1.336   1.966   8.917 -1.2366 -2.8788 -1.7024
  163SOPE  H18T18312   1.226   2.003   9.052  0.6698  0.6298  0.6584
  163SOPE   C3318313   2.588   2.932  10.177 -0.6774  0.1324  1.1004
  163SOPE   H3X18314   2.673   3.004  10.172  2.0857 -3.1007 -0.5920
  163SOPE   H3Y18315   2.500   2.996  10.153  0.7469  1.6395 -0.2718
  163SOPE   C3418316   2.610   2.829  10.060 -0.5172  0.3714  0.4131
  163SOPE   H4X18317   2.528   2.755  10.048 -0.2126  0.5393 -3.1072
  163SOPE   H4Y18318   2.695   2.758  10.067 -1.3166 -0.6237  0.0746
  163SOPE   C3518319   2.621   2.902   9.922 -0.0656 -0.0201 -0.5308
  163SOPE   H5X18320   2.692   2.985   9.941  1.2636 -1.3871  0.5743
  163SOPE   H5Y18321   2.527   2.956   9.898  1.5308  2.1689 -2.0594
  163SOPE   C3618322   2.658   2.822   9.795  0.4464  0.2038  0.2465
  163SOPE   H6X18323   2.751   2.762   9.810  1.0019  1.1873  0.8118
  163SOPE   H6Y18324   2.680   2.896   9.715  1.6386 -2.3179 -1.8391
  163SOPE   C3718325   2.543   2.734   9.750 -0.5341 -0.2907  0.1234
  163SOPE   H7X18326   2.458   2.804   9.742 -1.1686 -0.9510  0.9357
  163SOPE   H7Y18327   2.526   2.656   9.827  0.1947 -1.8840 -1.2840
  163SOPE   C3818328   2.572   2.664   9.616  0.0982 -0.0556  0.4665
  163SOPE   H8X18329   2.649   2.586   9.628  1.0037  1.0012  1.7305
  163SOPE   H8Y18330   2.603   2.743   9.544 -0.7931 -0.4379 -0.3442
  163SOPE   C3918331   2.457   2.603   9.540  0.1984 -0.1191 -0.3288
  163SOPE   H9X18332   2.374   2.675   9.524  0.6986  0.5782  0.2151
  163SOPE   H9Y18333   2.406   2.530   9.606  0.7447  0.2038  0.4504
  163SOPE  C31018334   2.514   2.541   9.410 -0.1080  0.0415 -0.4103
  163SOPE  H10X18335   2.587   2.459   9.428 -1.6598 -1.1620  0.5235
  163SOPE  H10Y18336   2.557   2.622   9.348 -0.1064  1.0155  0.8597
  163SOPE  C31118337   2.406   2.468   9.330  0.2609  0.3604  0.6792
  163SOPE  H11X18338   2.317   2.531   9.307  0.5376  0.8386  0.8970
  163SOPE  H11Y18339   2.368   2.381   9.388 -0.7848 -0.7222 -1.5741
  163SOPE  C31218340   2.456   2.404   9.196  0.4788  0.0460 -0.7100
  163SOPE  H12X18341   2.537   2.332   9.221  0.3636  1.2770  3.6956
  163SOPE  H12Y18342   2.499   2.483   9.130  1.5829  0.5903  0.6274
  163SOPE  C31318343   2.351   2.329   9.124 -0.5481  0.6666 -0.1235
  163SOPE  H13X18344   2.273   2.397   9.083 -0.5149  1.3653  0.9396
  163SOPE  H13Y18345   2.294   2.260   9.189  0.1243  0.7191  0.5307
  163SOPE  C31418346   2.401   2.242   9.004  0.0670 -0.3683 -0.4727
  163SOPE  H14X18347   2.481   2.172   9.035  0.7121  0.5634  0.0003
  163SOPE  H14Y18348   2.445   2.307   8.925  0.1581  0.5967  0.3560
  163SOPE  C31518349   2.290   2.146   8.945  0.5371 -0.3949  0.5732
  163SOPE  H15X18350   2.204   2.201   8.902  0.6096  0.1365  1.0921
  163SOPE  H15Y18351   2.244   2.094   9.033 -0.2834  2.1744  1.7200
  163SOPE  C31618352   2.334   2.047   8.830 -0.5600 -0.2226  0.5155
  163SOPE  H16X18353   2.417   1.981   8.865 -1.5700 -1.3392  0.8116
  163SOPE  H16Y18354   2.376   2.116   8.754  0.0302 -1.1961 -0.0480
  163SOPE  C31718355   2.215   1.963   8.769 -0.5490  0.5872 -0.0079
  163SOPE  H17X18356   2.241   1.938   8.664 -0.9578 -0.8482  0.2249
  163SOPE  H17Y18357   2.122   2.023   8.759 -0.5646  0.3090 -1.7331
  163SOPE  C31818358   2.184   1.836   8.845 -0.8097  0.0427 -0.4219
  163SOPE  H18X18359   2.150   1.857   8.949 -1.6532  0.9175 -0.8712
  163SOPE  H18Y18360   2.269   1.764   8.850  0.3707  1.3379 -1.1872
  163SOPE  H18Z18361   2.099   1.785   8.795 -1.4035  0.5944  0.0202
  164SOPE     N18362   4.625   6.299  10.857  0.2178 -0.4046 -0.4451
  164SOPE   HN118363   4.630   6.201  10.889 -0.2685  0.1222  1.2571
  164SOPE   HN218364   4.595   6.300  10.757 -0.0344  0.7341 -0.3699
  164SOPE   HN318365   4.719   6.345  10.852 -0.9564  1.9807 -1.6225
  164SOPE   C1218366   4.524   6.379  10.936  0.1028  0.0399 -0.1377
  164SOPE  H12A18367   4.555   6.392  11.042  1.1467  1.5540 -0.6135
  164SOPE  H12B18368   4.441   6.305  10.934  0.3825 -0.2819  0.1017
  164SOPE   C1118369   4.487   6.518  10.874  0.8836  0.3164 -0.1896
  164SOPE  H11A18370   4.402   6.565  10.929  0.8037 -0.5846  0.4549
  164SOPE  H11B18371   4.438   6.500  10.776  0.6057  1.1317 -0.2057
  164SOPE     P18372   4.591   6.734  10.783 -0.1000  0.0104 -0.2002
  164SOPE   O1318373   4.705   6.817  10.826 -0.0142  0.1778 -0.0017
  164SOPE   O1418374   4.464   6.805  10.799 -0.0647 -0.5350 -0.8162
  164SOPE   O1218375   4.601   6.600  10.866  0.0616  0.4802  0.2775
  164SOPE   O1118376   4.612   6.694  10.638  0.1990 -0.0608 -0.0577
  164SOPE    C118377   4.728   6.614  10.613  0.0376  0.3877  0.5665
  164SOPE    HA18378   4.711   6.507  10.635 -3.0311  0.5590 -0.7737
  164SOPE    HB18379   4.815   6.650  10.673 -0.0839  0.1320  0.8961
  164SOPE    C218380   4.764   6.630  10.462  0.2987  0.1529  0.4787
  164SOPE    HS18381   4.844   6.555  10.442  0.7270  0.6437  0.3259
  164SOPE   O2118382   4.799   6.763  10.434 -0.2472  0.1895  0.0617
  164SOPE   C2118383   4.915   6.814  10.466  0.6311  0.2278 -0.1848
  164SOPE   O2218384   5.011   6.745  10.504  0.0178 -0.0124  0.3977
  164SOPE   C2218385   4.920   6.961  10.451  0.4722  0.5827 -1.3438
  164SOPE   H2R18386   4.997   7.015  10.510 -1.3643 -0.4344  2.1488
  164SOPE   H2S18387   4.817   6.999  10.470 -0.1443 -1.2114 -0.9169
  164SOPE    C318388   4.642   6.595  10.370 -0.0526 -0.2967  0.1050
  164SOPE    HX18389   4.549   6.650  10.393 -0.9009 -0.9984 -1.5756
  164SOPE    HY18390   4.609   6.490  10.383  0.9324 -0.4938  1.0364
  164SOPE   O3118391   4.687   6.617  10.236 -0.5597  0.0198  0.1683
  164SOPE   C3118392   4.643   6.726  10.178 -1.0581  0.4110  0.1671
  164SOPE   O3218393   4.582   6.817  10.227 -0.2970  0.0593  0.2226
  164SOPE   C3218394   4.689   6.718  10.030 -0.0486  0.4013  0.3120
  164SOPE   H2X18395   4.705   6.612  10.002 -1.4415  1.1075 -3.4903
  164SOPE   H2Y18396   4.785   6.772  10.017  1.0945 -1.5650  0.4615
  164SOPE   C2318397   4.970   6.973  10.306  0.5049 -0.2352 -0.1706
  164SOPE   H3R18398   4.981   7.080  10.280  1.7685 -0.4844 -0.6942
  164SOPE   H3S18399   4.894   6.937  10.233  0.6844  0.2519 -0.5998
  164SOPE   C2418400   5.108   6.913  10.280  0.4956  0.0519  0.5803
  164SOPE   H4R18401   5.179   6.959  10.351  2.3067 -1.0845 -0.4330
  164SOPE   H4S18402   5.100   6.803  10.293 -2.7308  0.3357  1.3628
  164SOPE   C2518403   5.168   6.940  10.135 -0.7713  0.7202 -0.2073
  164SOPE   H5R18404   5.144   7.046  10.112 -1.0622  0.9480  1.1110
  164SOPE   H5S18405   5.279   6.930  10.141 -0.5907  2.2803 -0.9010
  164SOPE   C2618406   5.106   6.865  10.015 -0.3608  0.2353  1.0612
  164SOPE   H6R18407   5.131   6.762  10.047 -1.4706  0.3381  2.2762
  164SOPE   H6S18408   4.998   6.889  10.016  0.1047  2.5131  0.2422
  164SOPE   C2718409   5.166   6.893   9.865 -0.6493  0.2050 -0.1870
  164SOPE   H7R18410   5.270   6.912   9.899  1.1152 -1.1539 -4.4786
  164SOPE   H7S18411   5.165   6.811   9.790  2.5629  1.5749 -1.7969
  164SOPE   C2818412   5.102   7.017   9.806  0.3486  0.7865 -0.3631
  164SOPE   H8R18413   5.089   7.094   9.885 -0.4450 -1.0445  1.3189
  164SOPE   H8S18414   5.172   7.052   9.727 -1.5658  0.0420 -2.4684
  164SOPE   C2918415   4.974   6.983   9.735  0.2506  0.1211 -0.1082
  164SOPE   H9118416   4.926   6.891   9.772  0.4188  1.1113  2.6338
  164SOPE  C21018417   4.930   7.045   9.626  0.1473 -0.1293 -0.2973
  164SOPE  H10118418   4.844   7.000   9.575  0.2691 -0.9202  0.1769
  164SOPE  C21118419   4.996   7.166   9.562 -0.1867 -0.1533  0.2726
  164SOPE  H11R18420   5.087   7.199   9.617 -0.1472 -1.4018  0.9792
  164SOPE  H11S18421   4.930   7.255   9.566 -0.4021 -0.3862  2.3312
  164SOPE  C21218422   5.047   7.141   9.422  0.3774 -0.5214 -0.8595
  164SOPE  H12R18423   4.961   7.096   9.369  0.9063 -2.2586 -0.2994
  164SOPE  H12S18424   5.134   7.071   9.420  0.7905 -0.2082  2.4152
  164SOPE  C21318425   5.101   7.269   9.350 -0.5564 -0.0484  0.6759
  164SOPE  H13R18426   5.192   7.313   9.396 -0.7465 -0.1911  1.1848
  164SOPE  H13S18427   5.017   7.341   9.350 -0.5724 -0.0652  0.0877
  164SOPE  C21418428   5.123   7.238   9.202 -0.6463 -0.5114  0.6222
  164SOPE  H14R18429   5.039   7.230   9.131  1.4786 -0.4012 -2.0081
  164SOPE  H14S18430   5.173   7.138   9.207  0.1790 -0.0650  1.6660
  164SOPE  C21518431   5.223   7.339   9.145 -1.0663  0.4672  0.3967
  164SOPE  H15R18432   5.319   7.335   9.201 -0.1997 -0.0414 -1.0921
  164SOPE  H15S18433   5.189   7.444   9.152 -2.9210 -0.1723  1.2329
  164SOPE  C21618434   5.262   7.310   9.001 -0.0220 -0.1172  0.0282
  164SOPE  H16R18435   5.294   7.206   8.980  1.3674 -0.1367  2.0885
  164SOPE  H16S18436   5.355   7.365   8.978  0.0612  0.1114  0.8964
  164SOPE  C21718437   5.158   7.346   8.893 -0.5489  0.2828 -0.6109
  164SOPE  H17R18438   5.147   7.455   8.879  0.9218  0.5008 -0.0957
  164SOPE  H17S18439   5.053   7.319   8.917 -1.0303  2.3876 -0.2924
  164SOPE  C21818440   5.204   7.291   8.758  0.3891 -0.0364  0.0645
  164SOPE  H18R18441   5.202   7.181   8.774  0.1207  0.1056  1.0588
  164SOPE  H18S18442   5.305   7.326   8.730 -0.2678 -0.5015 -3.1135
  164SOPE  H18T18443   5.140   7.332   8.677 -0.7643  0.6474  1.2857
  164SOPE   C3318444   4.579   6.777   9.938 -0.1401 -0.0543 -0.6269
  164SOPE   H3X18445   4.568   6.881   9.974  1.6652 -0.1191  0.1907
  164SOPE   H3Y18446   4.483   6.722   9.943 -0.8693  1.1621 -0.9664
  164SOPE   C3418447   4.612   6.775   9.788 -0.0180  0.4654 -0.0460
  164SOPE   H4X18448   4.624   6.674   9.744 -0.7094  0.6534 -0.6788
  164SOPE   H4Y18449   4.714   6.817   9.784  0.1409 -0.0806 -1.9965
  164SOPE   C3518450   4.526   6.865   9.702  0.6466  0.2774 -0.8462
  164SOPE   H5X18451   4.542   6.966   9.745 -0.9825 -0.7380  2.3729
  164SOPE   H5Y18452   4.418   6.836   9.703  1.1015 -1.5210 -1.6436
  164SOPE   C3618453   4.573   6.860   9.555  0.4034 -0.7766  0.1525
  164SOPE   H6X18454   4.554   6.765   9.501  1.2258 -1.1696  0.5395
  164SOPE   H6Y18455   4.684   6.850   9.547  0.3370 -2.3932  1.1474
  164SOPE   C3718456   4.509   6.975   9.475  0.3554  0.0165  0.3868
  164SOPE   H7X18457   4.526   7.072   9.526  1.9786  0.0412 -0.1769
  164SOPE   H7Y18458   4.398   6.972   9.473  0.3250  1.4248 -2.1884
  164SOPE   C3818459   4.555   6.978   9.327 -0.9241  0.1093  0.8397
  164SOPE   H8X18460   4.518   6.889   9.271  0.9035  1.1081 -2.0604
  164SOPE   H8Y18461   4.666   6.976   9.331 -0.9725  0.1492  2.1967
  164SOPE   C3918462   4.507   7.101   9.243 -0.4145 -0.5243  0.3339
  164SOPE   H9X18463   4.527   7.186   9.312 -1.6147  0.2614 -0.2696
  164SOPE   H9Y18464   4.396   7.095   9.243 -0.4964  0.5911  1.5904
  164SOPE  C31018465   4.580   7.110   9.108  0.4803 -0.4379  0.4381
  164SOPE  H10X18466   4.572   7.023   9.039 -2.5655  1.7912 -2.1912
  164SOPE  H10Y18467   4.685   7.136   9.130  0.4636  0.8474 -0.9719
  164SOPE  C31118468   4.522   7.233   9.023 -0.3054  0.0771  0.0644
  164SOPE  H11X18469   4.542   7.330   9.074 -0.3829  0.3547 -0.4330
  164SOPE  H11Y18470   4.411   7.227   9.024 -0.3678  0.7366 -1.0111
  164SOPE  C31218471   4.578   7.241   8.883 -0.3873  0.1384 -0.5332
  164SOPE  H12X18472   4.549   7.146   8.832 -0.2925 -0.0017 -0.3295
  164SOPE  H12Y18473   4.689   7.241   8.890 -0.4175 -2.0774  0.4267
  164SOPE  C31318474   4.538   7.364   8.815  0.1945  0.5823 -0.3168
  164SOPE  H13X18475   4.554   7.446   8.888 -1.4582  1.1933 -0.6352
  164SOPE  H13Y18476   4.429   7.356   8.799  0.4495 -0.4220 -1.6016
  164SOPE  C31418477   4.595   7.403   8.675 -0.3381 -0.3214  0.5506
  164SOPE  H14X18478   4.595   7.325   8.596  1.3976  1.7174 -1.5585
  164SOPE  H14Y18479   4.696   7.449   8.690 -1.3485  1.4331  2.1867
  164SOPE  C31518480   4.512   7.522   8.605  0.0748 -0.9704 -1.2529
  164SOPE  H15X18481   4.529   7.613   8.666  0.6486 -2.5914  1.0564
  164SOPE  H15Y18482   4.408   7.486   8.618 -0.8891  2.3017  0.7905
  164SOPE  C31618483   4.544   7.536   8.460 -0.4882 -0.4650 -0.5381
  164SOPE  H16X18484   4.474   7.611   8.418 -0.6951  0.8160  1.9491
  164SOPE  H16Y18485   4.531   7.444   8.400 -1.2438 -0.4885 -0.3470
  164SOPE  C31718486   4.683   7.594   8.436  0.4388 -0.0948  0.6135
  164SOPE  H17X18487   4.756   7.534   8.494 -1.3545 -1.3702  1.6211
  164SOPE  H17Y18488   4.685   7.699   8.471 -1.5373  0.7348 -1.6030
  164SOPE  C31818489   4.730   7.593   8.289  0.2599 -0.0865  0.2483
  164SOPE  H18X18490   4.835   7.620   8.268  0.5728 -0.3140  1.4763
  164SOPE  H18Y18491   4.654   7.646   8.228 -1.3742 -1.7456  0.7853
  164SOPE  H18Z18492   4.711   7.492   8.246  0.4458  0.8876 -2.1624
  165SOPE     N18493   2.734   1.649  10.789 -0.0883  0.1441 -0.4670
  165SOPE   HN118494   2.697   1.740  10.823 -1.8554 -1.2201  1.4244
  165SOPE   HN218495   2.821   1.665  10.735 -0.9831  1.2804 -1.5827
  165SOPE   HN318496   2.660   1.604  10.731 -0.3984  0.6910 -0.4928
  165SOPE   C1218497   2.770   1.566  10.909  0.6667  0.3424 -0.3873
  165SOPE  H12A18498   2.681   1.541  10.972  2.6085 -0.4847  2.1294
  165SOPE  H12B18499   2.839   1.622  10.975  0.0327  0.1896  0.4242
  165SOPE   C1118500   2.828   1.434  10.868  0.5070 -0.6963  0.6610
  165SOPE  H11A18501   2.753   1.372  10.814  0.2932  1.4900 -1.6295
  165SOPE  H11B18502   2.849   1.372  10.958 -2.0505 -0.7625  1.2392
  165SOPE     P18503   3.074   1.368  10.795 -0.2097 -0.5689 -0.1478
  165SOPE   O1318504   3.120   1.376  10.934  0.0123 -0.5542 -0.1265
  165SOPE   O1418505   3.161   1.421  10.691 -0.7722  0.2492  0.2590
  165SOPE   O1218506   2.938   1.443  10.779  0.4705 -0.2994 -1.2837
  165SOPE   O1118507   3.042   1.218  10.763  0.0307  0.4417  0.3562
  165SOPE    C118508   3.150   1.123  10.788 -0.1610  0.0380 -0.0834
  165SOPE    HA18509   3.108   1.021  10.799  0.9171 -0.2142  1.9007
  165SOPE    HB18510   3.219   1.158  10.868 -1.2348  1.8012  0.0932
  165SOPE    C218511   3.232   1.108  10.661  0.7958 -0.0692 -0.7068
  165SOPE    HS18512   3.286   1.204  10.644 -1.4676  1.0033 -1.9968
  165SOPE   O2118513   3.139   1.083  10.549  0.1271  0.0142 -0.2657
  165SOPE   C2118514   3.165   1.149  10.439  0.4316  0.1821 -0.0625
  165SOPE   O2218515   3.252   1.236  10.428  0.0833 -0.0693 -0.4922
  165SOPE   C2218516   3.064   1.106  10.336 -0.2332  0.4679  0.0386
  165SOPE   H2R18517   2.970   1.155  10.369  0.2373 -0.4129  2.8294
  165SOPE   H2S18518   3.045   0.997  10.352 -2.7645  0.9170  0.1789
  165SOPE    C318519   3.342   1.002  10.663 -0.1028  0.5112 -0.1508
  165SOPE    HX18520   3.290   0.907  10.640  1.2167 -0.0334 -0.9640
  165SOPE    HY18521   3.394   0.999  10.762 -0.6205 -0.7886  0.1015
  165SOPE   O3118522   3.440   1.027  10.561  0.5630 -0.0779 -0.3507
  165SOPE   C3118523   3.525   1.124  10.565  0.0090 -1.3003  0.4589
  165SOPE   O3218524   3.520   1.218  10.646  0.4058  0.4006 -0.6401
  165SOPE   C3218525   3.635   1.114  10.465  0.0281 -0.4712 -0.0509
  165SOPE   H2X18526   3.700   1.025  10.475 -0.4087 -1.0470 -2.1371
  165SOPE   H2Y18527   3.717   1.188  10.482  3.3152 -3.9869  0.0635
  165SOPE   C2318528   3.101   1.139  10.190  0.0889  0.0729 -0.1930
  165SOPE   H3R18529   3.206   1.103  10.177  0.3316  0.8237 -0.3550
  165SOPE   H3S18530   3.101   1.249  10.173  0.1080  0.0644 -0.2466
  165SOPE   C2418531   3.009   1.079  10.087  0.1821 -0.5076 -0.1269
  165SOPE   H4R18532   3.012   0.969  10.103 -1.0867 -0.5064  0.1997
  165SOPE   H4S18533   2.908   1.122  10.103 -0.1471 -1.7114  1.0949
  165SOPE   C2518534   3.061   1.102   9.945  0.0383  0.0029 -0.7135
  165SOPE   H5R18535   3.012   1.192   9.902 -1.2218  0.3672  1.4255
  165SOPE   H5S18536   3.171   1.110   9.947  0.0375 -0.1660 -0.0208
  165SOPE   C2618537   3.023   0.983   9.859 -0.2597 -0.5380  0.4725
  165SOPE   H6R18538   3.080   0.894   9.892 -1.0765 -1.5746 -0.8605
  165SOPE   H6S18539   2.913   0.977   9.875 -0.4281 -3.0511 -1.2379
  165SOPE   C2718540   3.040   1.008   9.709 -0.2332 -0.2070 -0.3508
  165SOPE   H7R18541   2.971   1.089   9.677 -2.2497 -1.7006  0.1069
  165SOPE   H7S18542   3.148   1.030   9.691 -0.4541  0.7946 -0.4969
  165SOPE   C2818543   2.994   0.888   9.622  0.6478  0.3619 -0.4252
  165SOPE   H8R18544   3.016   0.915   9.516 -0.5317  2.3010 -0.1963
  165SOPE   H8S18545   3.048   0.800   9.661 -0.8167  0.6700  2.4504
  165SOPE   C2918546   2.854   0.853   9.641 -0.1078  0.7636 -0.2663
  165SOPE   H9118547   2.838   0.787   9.728  1.9705 -0.9098 -1.1128
  165SOPE  C21018548   2.750   0.876   9.563 -0.4636  0.9686 -0.1438
  165SOPE  H10118549   2.657   0.841   9.612 -0.6784 -0.9812 -1.8406
  165SOPE  C21118550   2.737   0.951   9.436  0.4060 -0.7705 -0.1557
  165SOPE  H11R18551   2.830   1.011   9.418 -0.2543  0.9017  1.8518
  165SOPE  H11S18552   2.652   1.023   9.434  0.5680 -0.5575  0.6160
  165SOPE  C21218553   2.725   0.859   9.319  0.2800  0.0255  0.2620
  165SOPE  H12R18554   2.635   0.794   9.321  0.1258  0.2515  0.6140
  165SOPE  H12S18555   2.802   0.779   9.325  0.6354  0.2861 -0.6597
  165SOPE  C21318556   2.740   0.922   9.183 -0.3897  0.5542  0.4340
  165SOPE  H13R18557   2.846   0.938   9.155  0.1300 -0.7165  1.6614
  165SOPE  H13S18558   2.691   1.022   9.186  0.6507  1.1044 -0.6088
  165SOPE  C21418559   2.671   0.849   9.068 -0.5041 -0.2310 -0.5779
  165SOPE  H14R18560   2.561   0.857   9.082 -0.2238  0.9721  1.1271
  165SOPE  H14S18561   2.701   0.744   9.090 -0.0462  0.2459  1.2129
  165SOPE  C21518562   2.712   0.898   8.930  1.1499 -0.1179  0.2233
  165SOPE  H15R18563   2.815   0.860   8.913  0.7529 -0.0299 -2.5853
  165SOPE  H15S18564   2.718   1.009   8.928  2.1324 -0.1622  0.4386
  165SOPE  C21618565   2.624   0.834   8.812 -0.2997 -0.2618 -0.1797
  165SOPE  H16R18566   2.516   0.854   8.824 -0.3789 -0.4922 -0.5136
  165SOPE  H16S18567   2.637   0.726   8.833 -1.4412 -0.0038  2.0007
  165SOPE  C21718568   2.658   0.857   8.665 -0.0112 -0.3309  0.3668
  165SOPE  H17R18569   2.748   0.795   8.643 -1.3392 -1.7557 -1.1096
  165SOPE  H17S18570   2.676   0.966   8.656  0.0012 -0.2772  0.9785
  165SOPE  C21818571   2.549   0.816   8.557 -0.5032  0.4116  0.6530
  165SOPE  H18R18572   2.557   0.878   8.465  1.7982  1.4985  1.5637
  165SOPE  H18S18573   2.453   0.837   8.610 -1.7001  0.2991 -1.3841
  165SOPE  H18T18574   2.552   0.709   8.527 -1.9582 -0.0006  1.9178
  165SOPE   C3318575   3.576   1.136  10.326 -0.2447 -0.2074  0.8611
  165SOPE   H3X18576   3.533   1.238  10.315  1.1272  0.2200 -0.7688
  165SOPE   H3Y18577   3.494   1.064  10.305  1.5190 -1.6450 -1.3961
  165SOPE   C3418578   3.677   1.143  10.211  0.0675 -0.6644 -0.7263
  165SOPE   H4X18579   3.718   1.041  10.224 -0.5852 -1.2086 -2.7416
  165SOPE   H4Y18580   3.759   1.215  10.229 -0.3797 -0.3019 -0.1111
  165SOPE   C3518581   3.608   1.161  10.078  0.5513 -0.2127 -0.1229
  165SOPE   H5X18582   3.569   1.264  10.068 -1.3647 -0.8135  1.0238
  165SOPE   H5Y18583   3.518   1.096  10.087  0.3556 -0.2016 -1.7817
  165SOPE   C3618584   3.689   1.105   9.963  0.8600  0.5828 -0.4711
  165SOPE   H6X18585   3.681   0.995   9.980  1.1029  0.8942  1.8236
  165SOPE   H6Y18586   3.793   1.142   9.970  0.5497  1.2544  0.7109
  165SOPE   C3718587   3.627   1.161   9.831  0.0097  0.4693  0.2100
  165SOPE   H7X18588   3.636   1.272   9.841  2.6797  0.1419  1.8047
  165SOPE   H7Y18589   3.518   1.139   9.822  0.3448 -1.9174  1.6126
  165SOPE   C3818590   3.702   1.104   9.707 -0.5441 -0.2698 -0.2858
  165SOPE   H8X18591   3.689   0.995   9.690 -0.0070 -0.2652 -0.7553
  165SOPE   H8Y18592   3.807   1.127   9.734 -0.6296  0.3540 -0.4565
  165SOPE   C3918593   3.649   1.164   9.574  0.4583 -0.1477  0.2961
  165SOPE   H9X18594   3.664   1.274   9.565  1.5966 -0.1307  2.1877
  165SOPE   H9Y18595   3.539   1.153   9.564  0.2954  1.1563  0.4732
  165SOPE  C31018596   3.705   1.102   9.451  0.1171  0.0476 -0.7353
  165SOPE  H10X18597   3.683   0.994   9.462  1.7565 -0.1309  0.9018
  165SOPE  H10Y18598   3.815   1.114   9.450  0.1623  0.1124  1.8253
  165SOPE  C31118599   3.638   1.144   9.317 -0.0611 -0.2877 -0.7921
  165SOPE  H11X18600   3.687   1.235   9.277  1.8124  0.3247  2.6477
  165SOPE  H11Y18601   3.533   1.172   9.343  0.4633 -1.8035  3.4931
  165SOPE  C31218602   3.636   1.036   9.211  0.5432  0.4985 -0.5086
  165SOPE  H12X18603   3.586   0.943   9.246  1.3147 -0.3533 -1.6364
  165SOPE  H12Y18604   3.744   1.013   9.195  0.3824  0.4557 -1.5701
  165SOPE  C31318605   3.575   1.078   9.082 -0.2359 -0.4147  0.0222
  165SOPE  H13X18606   3.641   1.156   9.038 -0.3298 -0.3536 -0.0093
  165SOPE  H13Y18607   3.475   1.122   9.098 -0.4906 -1.4459  1.3269
  165SOPE  C31418608   3.574   0.964   8.975  0.2981 -0.0547  0.7773
  165SOPE  H14X18609   3.533   0.875   9.026 -1.0332  0.1056  0.0120
  165SOPE  H14Y18610   3.679   0.951   8.941 -0.7387 -3.1245 -1.5138
  165SOPE  C31518611   3.469   0.993   8.854 -0.3367  0.3127  0.5889
  165SOPE  H15X18612   3.497   1.090   8.809  0.2132 -0.5195 -0.8790
  165SOPE  H15Y18613   3.377   1.018   8.912  1.3658  0.5346  3.3280
  165SOPE  C31618614   3.455   0.870   8.769  0.1719  0.1139 -0.1209
  165SOPE  H16X18615   3.433   0.773   8.820  0.7719  1.2793  2.4197
  165SOPE  H16Y18616   3.547   0.842   8.714 -0.1747 -1.2275 -0.0589
  165SOPE  C31718617   3.355   0.899   8.656 -0.5317 -0.2182  0.1334
  165SOPE  H17X18618   3.384   0.995   8.608 -0.0778 -0.4295 -0.0203
  165SOPE  H17Y18619   3.254   0.907   8.701  1.2754  2.2793  4.0032
  165SOPE  C31818620   3.353   0.795   8.537 -0.6888 -0.1395  0.2316
  165SOPE  H18X18621   3.265   0.812   8.472  1.2813  0.8387 -2.2454
  165SOPE  H18Y18622   3.345   0.689   8.570 -0.6104 -0.2425 -0.0886
  165SOPE  H18Z18623   3.445   0.801   8.476  0.4160 -1.8181  1.6988
  166SOPE     N18624   6.647   2.163  11.027 -0.1583  0.1910  0.3487
  166SOPE   HN118625   6.549   2.185  11.058 -0.3794 -1.0062  0.5183
  166SOPE   HN218626   6.664   2.069  11.066 -2.8808 -0.8914 -0.9177
  166SOPE   HN318627   6.718   2.235  11.053 -0.4413  0.8482 -0.6783
  166SOPE   C1218628   6.638   2.154  10.879  0.2459  1.1939  0.5622
  166SOPE  H12A18629   6.736   2.131  10.832  0.1130 -1.1620  1.3558
  166SOPE  H12B18630   6.598   2.251  10.842  1.5301  1.2600 -0.6801
  166SOPE   C1118631   6.535   2.049  10.833 -0.6330 -0.7286 -0.0773
  166SOPE  H11A18632   6.559   1.964  10.900 -0.3025  0.5202  1.4392
  166SOPE  H11B18633   6.539   2.038  10.723 -1.7169 -0.6202 -0.1311
  166SOPE     P18634   6.281   2.014  10.861  0.1271 -0.1817  0.0357
  166SOPE   O1318635   6.163   2.103  10.876  0.4224  0.1508 -0.6709
  166SOPE   O1418636   6.324   1.920  10.965 -0.4063 -0.3446  0.1024
  166SOPE   O1218637   6.408   2.111  10.854  0.9002 -0.1092  0.4094
  166SOPE   O1118638   6.276   1.939  10.717  0.0004 -0.6187  0.5779
  166SOPE    C118639   6.252   1.795  10.734  0.6035 -0.2223 -0.0970
  166SOPE    HA18640   6.193   1.764  10.646  2.1523 -1.1882 -0.8205
  166SOPE    HB18641   6.190   1.769  10.823 -0.1820 -0.7711 -0.8002
  166SOPE    C218642   6.379   1.709  10.755  0.0870  0.3749 -0.0265
  166SOPE    HS18643   6.422   1.745  10.851 -1.5829 -1.1613  1.3356
  166SOPE   O2118644   6.469   1.728  10.641  0.2981  0.0680 -0.3424
  166SOPE   C2118645   6.584   1.659  10.631 -0.8968 -1.1106 -0.7448
  166SOPE   O2218646   6.638   1.594  10.722  0.0405  0.2759  0.5182
  166SOPE   C2218647   6.644   1.685  10.493 -0.2060  0.1148  0.8958
  166SOPE   H2R18648   6.753   1.665  10.498 -0.1880 -0.0839 -0.0820
  166SOPE   H2S18649   6.628   1.793  10.471  2.1149  0.3766  0.3647
  166SOPE    C318650   6.333   1.561  10.771 -0.0215 -0.0630 -0.3255
  166SOPE    HX18651   6.266   1.551  10.858 -1.6295  1.9085 -1.3111
  166SOPE    HY18652   6.421   1.495  10.786 -0.8309 -0.9917  0.3628
  166SOPE   O3118653   6.254   1.521  10.657 -0.5660 -0.1056 -0.0108
  166SOPE   C3118654   6.309   1.441  10.567  0.4820  0.1519  0.5575
  166SOPE   O3218655   6.423   1.393  10.574 -0.4224  0.2371  0.1158
  166SOPE   C3218656   6.224   1.414  10.444  0.1486  0.0173 -0.0075
  166SOPE   H2X18657   6.142   1.488  10.433  0.7131  0.4972 -1.1321
  166SOPE   H2Y18658   6.183   1.311  10.456  2.2430 -0.8238  0.2929
  166SOPE   C2318659   6.582   1.599  10.382 -0.8835 -0.3371 -0.2336
  166SOPE   H3R18660   6.472   1.606  10.363 -0.3702 -2.0171 -4.4018
  166SOPE   H3S18661   6.592   1.490  10.405 -2.2118 -0.3957  0.1380
  166SOPE   C2418662   6.651   1.645  10.251 -0.0300  0.0084 -0.1022
  166SOPE   H4R18663   6.652   1.754  10.234 -1.3596 -0.0869 -0.9104
  166SOPE   H4S18664   6.756   1.611  10.262  0.0735 -0.3519 -1.9915
  166SOPE   C2518665   6.584   1.568  10.128 -1.0791 -0.5225  0.7665
  166SOPE   H5R18666   6.573   1.464  10.165  2.9935 -0.7278  1.6237
  166SOPE   H5S18667   6.480   1.607  10.119 -0.3418  1.1311 -0.8209
  166SOPE   C2618668   6.663   1.567   9.994 -0.4604 -0.3965 -0.2985
  166SOPE   H6R18669   6.687   1.674   9.977 -0.6037  0.0066  1.9157
  166SOPE   H6S18670   6.768   1.530   9.997  0.5517  2.4447  2.1066
  166SOPE   C2718671   6.577   1.482   9.896  0.3769  0.3538  0.0903
  166SOPE   H7R18672   6.588   1.374   9.920 -0.4794 -0.2967 -2.3061
  166SOPE   H7S18673   6.479   1.523   9.929  0.7187  0.1246  1.4249
  166SOPE   C2818674   6.611   1.507   9.750  0.2347 -0.8655 -0.0903
  166SOPE   H8R18675   6.628   1.616   9.737 -1.0335 -0.9188 -2.4071
  166SOPE   H8S18676   6.706   1.461   9.714  0.6589  0.6340 -0.9569
  166SOPE   C2918677   6.490   1.448   9.675  0.7362 -0.1628  0.3445
  166SOPE   H9118678   6.447   1.357   9.718 -3.2304  1.3534 -0.2196
  166SOPE  C21018679   6.444   1.486   9.554 -0.4434  0.4987 -0.4678
  166SOPE  H10118680   6.366   1.424   9.507  0.3008 -1.1618  0.4270
  166SOPE  C21118681   6.486   1.600   9.466 -0.4598 -0.1372  0.3306
  166SOPE  H11R18682   6.528   1.685   9.524 -0.0007  0.8632 -1.4134
  166SOPE  H11S18683   6.395   1.636   9.414 -1.6306 -0.9358  1.8018
  166SOPE  C21218684   6.595   1.547   9.369 -0.0580 -0.4207 -0.0059
  166SOPE  H12R18685   6.553   1.463   9.310 -1.6028  0.5274 -0.3119
  166SOPE  H12S18686   6.679   1.511   9.432  0.2726  0.8616  0.3101
  166SOPE  C21318687   6.645   1.658   9.281 -0.6166  0.2347  0.2456
  166SOPE  H13R18688   6.754   1.648   9.262 -0.4614  1.9315  0.1393
  166SOPE  H13S18689   6.649   1.761   9.324  2.0515  0.0248  0.5730
  166SOPE  C21418690   6.575   1.663   9.148  0.4166  0.1131  0.1141
  166SOPE  H14R18691   6.468   1.689   9.163  0.6554 -0.2728  2.8695
  166SOPE  H14S18692   6.566   1.565   9.098  1.4509  0.1155 -0.0954
  166SOPE  C21518693   6.629   1.775   9.057  0.3855 -0.1004  0.1513
  166SOPE  H15R18694   6.724   1.741   9.010 -0.4024 -1.8376 -0.2224
  166SOPE  H15S18695   6.636   1.866   9.120 -0.6023  0.6438 -0.7982
  166SOPE  C21618696   6.541   1.803   8.934  0.0754 -0.2166  0.7873
  166SOPE  H16R18697   6.432   1.806   8.955 -0.0624  0.7869 -0.0031
  166SOPE  H16S18698   6.567   1.724   8.860 -2.6988  1.2911 -1.9338
  166SOPE  C21718699   6.566   1.933   8.853 -0.4973  0.5400  0.0428
  166SOPE  H17R18700   6.616   2.007   8.918  1.2568 -0.7817  0.2466
  166SOPE  H17S18701   6.476   1.968   8.799  0.0306  0.5199 -0.8757
  166SOPE  C21818702   6.679   1.908   8.746 -0.3566 -0.3557  0.5357
  166SOPE  H18R18703   6.766   1.850   8.781 -0.2055 -0.5626 -0.1738
  166SOPE  H18S18704   6.703   2.006   8.700 -1.1241 -0.1388  0.5800
  166SOPE  H18T18705   6.631   1.852   8.663  0.9710  1.1237 -1.2963
  166SOPE   C3318706   6.298   1.408  10.303  0.5345  0.7292 -0.0338
  166SOPE   H3X18707   6.402   1.374  10.317  0.8647  2.1202  0.9742
  166SOPE   H3Y18708   6.281   1.511  10.264 -0.0038  0.6058 -0.1280
  166SOPE   C3418709   6.224   1.315  10.201 -0.0871 -0.7003  0.9035
  166SOPE   H4X18710   6.115   1.332  10.213 -0.1446  0.2708 -0.7495
  166SOPE   H4Y18711   6.243   1.214  10.243  0.5858 -0.5785  0.8966
  166SOPE   C3518712   6.284   1.343  10.068 -0.5136  0.2529 -0.8840
  166SOPE   H5X18713   6.392   1.330  10.087 -1.3122 -1.3642  2.9186
  166SOPE   H5Y18714   6.263   1.445  10.030  0.1886  1.4520  1.8843
  166SOPE   C3618715   6.256   1.234   9.964 -0.1324 -0.4886 -0.0646
  166SOPE   H6X18716   6.280   1.129   9.992 -1.6017 -1.3676 -1.9168
  166SOPE   H6Y18717   6.325   1.256   9.880  0.4680 -2.6772 -0.1844
  166SOPE   C3718718   6.117   1.234   9.910 -0.1098  0.5585  1.1735
  166SOPE   H7X18719   6.086   1.335   9.875  0.0491 -0.4918 -2.1683
  166SOPE   H7Y18720   6.052   1.206   9.995 -0.7280 -1.9939 -0.0985
  166SOPE   C3818721   6.090   1.125   9.804  0.0912  0.0834  0.3175
  166SOPE   H8X18722   6.121   1.031   9.853  0.6773  0.9379  1.5956
  166SOPE   H8Y18723   6.152   1.131   9.712 -1.8480  1.4845 -0.9309
  166SOPE   C3918724   5.939   1.133   9.767  0.0005  0.0465  0.0043
  166SOPE   H9X18725   5.917   1.229   9.716  2.0570  1.2114  1.2167
  166SOPE   H9Y18726   5.877   1.117   9.857 -1.5449  0.3286 -0.9986
  166SOPE  C31018727   5.910   1.031   9.651  0.5292 -0.8015 -0.6175
  166SOPE  H10X18728   5.800   1.021   9.634  0.5667 -4.5492  0.9651
  166SOPE  H10Y18729   5.944   0.928   9.676  1.4245 -0.5963 -0.9951
  166SOPE  C31118730   5.966   1.070   9.520 -0.1240  1.3110  0.6604
  166SOPE  H11X18731   6.077   1.063   9.514 -0.0192  3.5569 -0.4870
  166SOPE  H11Y18732   5.938   1.175   9.498  1.7147  1.6251 -0.3437
  166SOPE  C31218733   5.923   0.988   9.401  0.2488  0.2231  0.2120
  166SOPE  H12X18734   5.931   1.048   9.308 -0.1426  1.1132  0.7474
  166SOPE  H12Y18735   5.815   0.962   9.412  0.2053  0.8326  1.2702
  166SOPE  C31318736   6.009   0.862   9.375  0.6909 -0.1703  0.1574
  166SOPE  H13X18737   5.978   0.774   9.437  0.0208  0.7398  1.1273
  166SOPE  H13Y18738   6.113   0.892   9.401 -0.0894  2.3925  0.4014
  166SOPE  C31418739   6.018   0.824   9.226 -0.4711 -0.2404 -0.1138
  166SOPE  H14X18740   6.107   0.757   9.224  1.1886  1.9077 -0.1634
  166SOPE  H14Y18741   6.045   0.913   9.164  0.7469  0.6190  1.6191
  166SOPE  C31518742   5.897   0.746   9.175 -1.2075  0.8980  0.0416
  166SOPE  H15X18743   5.877   0.652   9.232  0.8109  0.5056  0.1474
  166SOPE  H15Y18744   5.929   0.720   9.072  0.0408 -0.5820  0.7720
  166SOPE  C31618745   5.760   0.819   9.152 -0.3835 -0.0251 -0.3185
  166SOPE  H16X18746   5.783   0.925   9.127  0.5100 -0.4673 -1.4226
  166SOPE  H16Y18747   5.715   0.814   9.253 -0.3334  0.0405 -0.2923
  166SOPE  C31718748   5.660   0.754   9.050  0.0306 -0.2004  0.0041
  166SOPE  H17X18749   5.656   0.646   9.076 -2.0550 -0.1282  0.0897
  166SOPE  H17Y18750   5.701   0.780   8.949 -3.6296 -0.5108 -1.6296
  166SOPE  C31818751   5.515   0.814   9.048 -0.3998  0.5198  0.1384
  166SOPE  H18X18752   5.450   0.769   9.127  0.7952  3.4198  2.9284
  166SOPE  H18Y18753   5.465   0.781   8.955 -1.0226  2.6429 -0.3269
  166SOPE  H18Z18754   5.520   0.922   9.074 -2.8078  0.6255  0.3475
  167SOPE     N18755   2.231   5.568   6.213 -0.2849  0.0193  0.2167
  167SOPE   HN118756   2.308   5.623   6.256 -0.5199 -0.4289  1.2203
  167SOPE   HN218757   2.146   5.584   6.271  0.3057 -1.2065  1.4593
  167SOPE   HN318758   2.249   5.466   6.218 -1.9217 -0.2647  0.5941
  167SOPE   C1218759   2.210   5.605   6.071  0.4888  0.1783  0.0925
  167SOPE  H12A18760   2.146   5.532   6.018 -0.7447  1.9480 -0.9126
  167SOPE  H12B18761   2.308   5.596   6.020  1.0372 -1.7525  1.4267
  167SOPE   C1118762   2.146   5.742   6.060  0.1981  0.3752  0.3179
  167SOPE  H11A18763   2.125   5.748   5.951 -1.5920  4.7320  0.7839
  167SOPE  H11B18764   2.218   5.818   6.096  2.3893 -1.1663 -0.7671
  167SOPE     P18765   1.952   5.882   6.179 -0.2094  0.1311 -0.3412
  167SOPE   O1318766   1.806   5.880   6.142  0.2477 -0.1168  0.3920
  167SOPE   O1418767   2.021   6.003   6.121 -0.5840  0.3112 -1.0251
  167SOPE   O1218768   2.022   5.750   6.128 -0.4469  0.0166 -0.0990
  167SOPE   O1118769   1.981   5.894   6.332  0.1625 -0.3962  0.1742
  167SOPE    C118770   1.906   5.801   6.416 -0.3427 -0.4394  0.5316
  167SOPE    HA18771   1.961   5.778   6.510  0.6971  1.0025  0.2999
  167SOPE    HB18772   1.891   5.702   6.368  3.4002 -0.5020 -0.6842
  167SOPE    C218773   1.778   5.865   6.463 -0.4355  0.3658  0.4735
  167SOPE    HS18774   1.764   5.938   6.381  1.3667 -0.4896 -0.6279
  167SOPE   O2118775   1.803   5.937   6.587 -0.4140  0.7251 -0.0443
  167SOPE   C2118776   1.707   6.024   6.612  0.2470 -0.1557  0.4444
  167SOPE   O2218777   1.615   6.058   6.540 -0.1625 -0.1683 -0.3358
  167SOPE   C2218778   1.734   6.093   6.744 -0.2126  0.0443 -0.2165
  167SOPE   H2R18779   1.796   6.183   6.721  2.2331 -1.2950  0.9321
  167SOPE   H2S18780   1.773   6.014   6.812  1.3896  0.6116 -0.4400
  167SOPE    C318781   1.661   5.755   6.471 -0.8026 -0.0450  0.0854
  167SOPE    HX18782   1.647   5.718   6.367 -0.8186 -1.4488  0.5661
  167SOPE    HY18783   1.565   5.805   6.495  0.2557  2.8412 -1.5136
  167SOPE   O3118784   1.702   5.642   6.550  0.2871 -0.1058 -0.7396
  167SOPE   C3118785   1.647   5.635   6.674  0.2726 -0.2766  0.4651
  167SOPE   O3218786   1.553   5.698   6.714 -0.3333 -0.2518  0.0239
  167SOPE   C3218787   1.742   5.543   6.757 -0.2886  0.0922 -0.3275
  167SOPE   H2X18788   1.848   5.550   6.725  0.2867  0.9534  1.6399
  167SOPE   H2Y18789   1.703   5.439   6.762 -0.4688  0.2319  1.4633
  167SOPE   C2318790   1.614   6.168   6.815 -0.2058 -0.0165  0.2024
  167SOPE   H3R18791   1.641   6.195   6.919  0.6179 -0.0703  0.0020
  167SOPE   H3S18792   1.529   6.096   6.818  0.0019 -0.2770 -0.0954
  167SOPE   C2418793   1.579   6.289   6.737  0.5131 -1.3985  0.6685
  167SOPE   H4R18794   1.650   6.363   6.781 -0.8865  0.4163 -0.0494
  167SOPE   H4S18795   1.602   6.288   6.629 -1.0444  0.6783  0.2872
  167SOPE   C2518796   1.439   6.346   6.759  0.1581 -0.5981  0.1427
  167SOPE   H5R18797   1.439   6.438   6.696 -2.0797 -2.9190 -3.3957
  167SOPE   H5S18798   1.384   6.258   6.721  0.7492 -1.1059  0.4420
  167SOPE   C2618799   1.391   6.362   6.904 -0.6643  0.0904 -0.4734
  167SOPE   H6R18800   1.369   6.263   6.947 -1.2249 -0.1062 -1.2114
  167SOPE   H6S18801   1.463   6.410   6.974 -1.4721  1.4485 -0.5507
  167SOPE   C2718802   1.260   6.448   6.918 -0.2421  0.3411  0.2211
  167SOPE   H7R18803   1.280   6.540   6.860 -1.7914 -0.4987 -1.7028
  167SOPE   H7S18804   1.183   6.388   6.865  0.8044 -1.4038  0.6208
  167SOPE   C2818805   1.231   6.487   7.066 -0.0046  0.3164 -0.0187
  167SOPE   H8R18806   1.243   6.401   7.135  1.0545 -1.2446 -2.0912
  167SOPE   H8S18807   1.315   6.550   7.102 -0.2381 -0.5034  2.0419
  167SOPE   C2918808   1.098   6.547   7.098  0.6411  0.7108 -0.2648
  167SOPE   H9118809   1.084   6.636   7.034 -0.7028  1.0038  0.4102
  167SOPE  C21018810   1.011   6.530   7.205  0.1844 -0.2333 -0.1003
  167SOPE  H10118811   0.909   6.569   7.199 -0.4973 -1.9744 -0.2096
  167SOPE  C21118812   1.036   6.430   7.314 -0.5311 -0.6031  0.2113
  167SOPE  H11R18813   1.102   6.352   7.270  0.3472  0.1781  0.1200
  167SOPE  H11S18814   0.942   6.381   7.345 -0.1208 -0.7800  1.2053
  167SOPE  C21218815   1.130   6.472   7.434  0.3423  0.9633  0.3336
  167SOPE  H12R18816   1.075   6.524   7.516  0.6506  0.5712  0.7956
  167SOPE  H12S18817   1.204   6.543   7.391 -0.7979  0.6382 -2.2244
  167SOPE  C21318818   1.206   6.358   7.498 -0.0242 -0.2693 -0.3472
  167SOPE  H13R18819   1.290   6.400   7.558  1.0845  0.7654 -2.5536
  167SOPE  H13S18820   1.263   6.296   7.426  1.3239  0.5515 -0.0083
  167SOPE  C21418821   1.132   6.258   7.580  1.1954 -0.4696  0.1001
  167SOPE  H14R18822   1.199   6.182   7.626 -0.2823 -1.7263  0.2189
  167SOPE  H14S18823   1.068   6.194   7.517  1.9165 -0.7275 -0.3842
  167SOPE  C21518824   1.051   6.315   7.700  0.3875 -0.9670  0.1962
  167SOPE  H15R18825   0.986   6.234   7.738 -0.7523  0.9752  2.5076
  167SOPE  H15S18826   0.974   6.389   7.667  0.1332 -0.3335  2.1575
  167SOPE  C21618827   1.148   6.373   7.808 -0.3498  0.5643 -0.4660
  167SOPE  H16R18828   1.219   6.441   7.757  0.6783  0.4970  0.8813
  167SOPE  H16S18829   1.213   6.289   7.839 -0.4399  0.7850  0.3209
  167SOPE  C21718830   1.083   6.448   7.925  0.4126  0.2927  0.4029
  167SOPE  H17R18831   1.165   6.478   7.994 -1.6099 -0.1673  3.0842
  167SOPE  H17S18832   1.010   6.378   7.972 -0.6614  0.8428 -0.4113
  167SOPE  C21818833   1.012   6.579   7.879 -0.6840  0.0168  0.3520
  167SOPE  H18R18834   0.977   6.574   7.774 -1.0363 -0.0362  0.4691
  167SOPE  H18S18835   1.088   6.659   7.880 -0.0595 -0.5396 -1.1896
  167SOPE  H18T18836   0.930   6.620   7.943 -0.2053  3.3379 -1.0856
  167SOPE   C3318837   1.759   5.607   6.900 -0.3157  0.0148  0.0931
  167SOPE   H3X18838   1.825   5.546   6.964  1.2261 -0.4801 -1.9227
  167SOPE   H3Y18839   1.657   5.596   6.944 -0.5221  1.8742  0.1533
  167SOPE   C3418840   1.811   5.748   6.910 -0.0803 -1.0118  0.2465
  167SOPE   H4X18841   1.832   5.775   7.016  0.9294  3.5710 -0.9843
  167SOPE   H4Y18842   1.726   5.817   6.889 -1.2230 -1.1036  4.0356
  167SOPE   C3518843   1.934   5.793   6.833  0.3415  0.4036  0.1508
  167SOPE   H5X18844   1.956   5.901   6.845 -1.8748  1.0727 -1.4548
  167SOPE   H5Y18845   1.919   5.780   6.724 -1.0693  1.0613  0.2645
  167SOPE   C3618846   2.061   5.713   6.864  0.7190  0.5773  0.0675
  167SOPE   H6X18847   2.140   5.749   6.796  0.9583 -1.4349 -0.7400
  167SOPE   H6Y18848   2.032   5.609   6.842 -1.8504  0.6239  2.8264
  167SOPE   C3718849   2.102   5.719   7.010  0.0177  0.7647 -1.0242
  167SOPE   H7X18850   2.021   5.679   7.074  0.5513  0.1913 -0.6996
  167SOPE   H7Y18851   2.125   5.824   7.036  0.8566 -0.3910  3.3087
  167SOPE   C3818852   2.232   5.637   7.042  0.1269  0.1511  0.3545
  167SOPE   H8X18853   2.330   5.678   7.010  0.3804  1.6535  2.9117
  167SOPE   H8Y18854   2.219   5.534   7.004 -0.4139 -0.3857  1.9619
  167SOPE   C3918855   2.241   5.610   7.199  0.1130 -0.0183 -0.1820
  167SOPE   H9X18856   2.150   5.549   7.219  0.2280  0.2701  1.3383
  167SOPE   H9Y18857   2.224   5.711   7.243 -2.6348  0.3889 -2.0755
  167SOPE  C31018858   2.372   5.562   7.257  0.6528 -0.8518  0.1850
  167SOPE  H10X18859   2.446   5.644   7.259 -1.0081  0.6740  1.0400
  167SOPE  H10Y18860   2.404   5.474   7.197  0.3177 -0.6140 -0.3433
  167SOPE  C31118861   2.349   5.519   7.406  0.4736  0.6012  0.1312
  167SOPE  H11X18862   2.430   5.457   7.449  0.5951  1.3317  0.9960
  167SOPE  H11Y18863   2.255   5.461   7.400  1.5307 -1.0455 -0.9239
  167SOPE  C31218864   2.331   5.636   7.499 -0.4520 -0.7576  0.0370
  167SOPE  H12X18865   2.227   5.674   7.503 -0.3120 -0.2277 -1.1585
  167SOPE  H12Y18866   2.393   5.722   7.464  0.3430 -1.0901  0.6086
  167SOPE  C31318867   2.375   5.599   7.643  0.5406 -0.2197 -0.8010
  167SOPE  H13X18868   2.483   5.572   7.648  0.9525  1.7745  2.0863
  167SOPE  H13Y18869   2.312   5.518   7.684 -0.4505  1.8457  1.9391
  167SOPE  C31418870   2.359   5.723   7.736 -0.0832 -0.0964  0.1398
  167SOPE  H14X18871   2.272   5.789   7.714  0.4679  0.8976  0.9548
  167SOPE  H14Y18872   2.450   5.781   7.711  0.5215 -0.8514  0.5541
  167SOPE  C31518873   2.357   5.693   7.891  0.2144 -0.7928  0.3334
  167SOPE  H15X18874   2.453   5.642   7.913  1.7234  1.8027 -0.1288
  167SOPE  H15Y18875   2.279   5.617   7.913 -0.4919 -0.2864 -0.3788
  167SOPE  C31618876   2.345   5.821   7.975 -0.2535 -0.6538  0.1500
  167SOPE  H16X18877   2.335   5.905   7.903  4.8329  1.6275  1.8502
  167SOPE  H16Y18878   2.441   5.847   8.025 -1.2759  0.8930  1.3580
  167SOPE  C31718879   2.229   5.815   8.085 -0.5297 -0.2438 -0.4772
  167SOPE  H17X18880   2.277   5.728   8.135  1.7511  0.1308 -1.9466
  167SOPE  H17Y18881   2.131   5.779   8.047 -1.9402  0.4328  2.3346
  167SOPE  C31818882   2.219   5.931   8.182 -0.1680  0.3020  0.2835
  167SOPE  H18X18883   2.317   5.949   8.230  0.4878 -0.6583 -0.6954
  167SOPE  H18Y18884   2.164   5.903   8.275  1.1442  1.2895  1.3726
  167SOPE  H18Z18885   2.180   6.029   8.148 -0.2270  0.3743  0.5590
  168SOPE     N18886   1.084   2.856   6.306 -0.2454 -0.2421 -0.0482
  168SOPE   HN118887   1.088   2.960   6.303  0.3347 -0.3037 -1.8347
  168SOPE   HN218888   0.986   2.827   6.323  0.4012 -2.5161 -0.0249
  168SOPE   HN318889   1.139   2.836   6.392 -0.9945  0.2691  0.5523
  168SOPE   C1218890   1.123   2.776   6.191  0.2076 -0.0501 -0.2522
  168SOPE  H12A18891   1.072   2.808   6.097 -0.5739 -0.4744  0.0173
  168SOPE  H12B18892   1.089   2.672   6.212 -2.0856  0.4027 -1.4833
  168SOPE   C1118893   1.274   2.777   6.173 -0.7144  0.8745 -0.0663
  168SOPE  H11A18894   1.304   2.879   6.141 -0.3169  0.4164 -1.1792
  168SOPE  H11B18895   1.310   2.710   6.092  1.2278  2.3126 -0.4386
  168SOPE     P18896   1.429   2.785   6.388  0.1833 -0.2140  0.7329
  168SOPE   O1318897   1.479   2.911   6.330  0.1576 -0.5356 -0.2072
  168SOPE   O1418898   1.547   2.700   6.427 -0.0788 -0.1094  0.5258
  168SOPE   O1218899   1.340   2.722   6.285 -0.2434  0.7135 -0.2433
  168SOPE   O1118900   1.329   2.819   6.497 -0.0944 -0.4482 -0.6774
  168SOPE    C118901   1.310   2.943   6.558  0.1185  0.2840  0.1607
  168SOPE    HA18902   1.214   2.939   6.614  0.2207  0.1820  0.3302
  168SOPE    HB18903   1.284   3.022   6.483 -0.7468 -0.9480 -0.8543
  168SOPE    C218904   1.425   2.989   6.648 -0.0138 -0.4423 -0.2080
  168SOPE    HS18905   1.519   2.962   6.594  0.5477 -2.5349  1.7248
  168SOPE   O2118906   1.409   2.920   6.769 -0.3948 -0.3020 -0.0526
  168SOPE   C2118907   1.522   2.900   6.834 -0.6910 -0.7065 -0.2059
  168SOPE   O2218908   1.632   2.931   6.797 -0.4092 -0.1109  0.5232
  168SOPE   C2218909   1.495   2.824   6.964  0.2777 -0.1583  0.1616
  168SOPE   H2R18910   1.507   2.715   6.943 -1.7221 -0.1969 -0.9184
  168SOPE   H2S18911   1.392   2.846   7.000  0.1847 -0.6280  0.1887
  168SOPE    C318912   1.429   3.146   6.659 -0.4923  0.9186 -0.2979
  168SOPE    HX18913   1.412   3.185   6.556  1.5909 -0.9307 -1.3873
  168SOPE    HY18914   1.533   3.180   6.679 -1.1803  2.1205  1.3272
  168SOPE   O3118915   1.356   3.208   6.765 -0.3379 -0.7464  0.3868
  168SOPE   C3118916   1.235   3.258   6.731  0.3689  0.0547 -0.0948
  168SOPE   O3218917   1.185   3.236   6.622 -0.3396 -0.0398  0.1562
  168SOPE   C3218918   1.163   3.331   6.845 -0.4047  0.7284 -0.1429
  168SOPE   H2X18919   1.060   3.289   6.848 -0.1320 -0.1446 -2.4215
  168SOPE   H2Y18920   1.155   3.441   6.834  0.9502  0.7466 -1.0373
  168SOPE   C2318921   1.610   2.860   7.061 -0.4430 -0.7184 -0.0794
  168SOPE   H3R18922   1.603   2.970   7.077 -1.2387 -0.2177 -3.5929
  168SOPE   H3S18923   1.710   2.832   7.022 -1.1997 -2.8100 -0.5619
  168SOPE   C2418924   1.593   2.801   7.195 -0.1033  0.1824 -0.1851
  168SOPE   H4R18925   1.496   2.808   7.249 -0.1959 -1.6202 -0.0781
  168SOPE   H4S18926   1.593   2.690   7.184  1.2377  0.4194 -3.0680
  168SOPE   C2518927   1.710   2.835   7.302  0.1301  0.3332 -0.0594
  168SOPE   H5R18928   1.799   2.782   7.264 -0.9684 -1.1281 -0.6399
  168SOPE   H5S18929   1.717   2.946   7.304 -0.6268  0.3715  1.3824
  168SOPE   C2618930   1.693   2.782   7.442 -0.1433  0.1964  0.3256
  168SOPE   H6R18931   1.652   2.679   7.439 -0.6962  0.4441 -0.7952
  168SOPE   H6S18932   1.796   2.770   7.483  1.3435 -0.8690 -3.5132
  168SOPE   C2718933   1.609   2.874   7.527  0.6429 -0.4663  0.5104
  168SOPE   H7R18934   1.666   2.965   7.557 -0.8780  0.1759  1.5192
  168SOPE   H7S18935   1.521   2.912   7.472  1.7811  0.8363 -0.4394
  168SOPE   C2818936   1.569   2.795   7.650 -0.1097 -0.0284 -0.6924
  168SOPE   H8R18937   1.487   2.860   7.688  1.4042  1.4500  0.1017
  168SOPE   H8S18938   1.522   2.694   7.639 -0.6779  0.3580 -1.9082
  168SOPE   C2918939   1.690   2.798   7.753  0.2499 -0.7700  0.0499
  168SOPE   H9118940   1.787   2.787   7.704  2.0159  1.1280  2.9701
  168SOPE  C21018941   1.682   2.831   7.882  0.7285 -0.0316 -0.3016
  168SOPE  H10118942   1.766   2.815   7.952 -1.0850  0.3080  1.9976
  168SOPE  C21118943   1.558   2.869   7.947  0.0617  0.2021 -0.5578
  168SOPE  H11R18944   1.481   2.798   7.913  1.9933 -1.1464 -2.2707
  168SOPE  H11S18945   1.514   2.966   7.914 -1.8945 -0.0147  1.3777
  168SOPE  C21218946   1.570   2.883   8.097  0.1786  0.2042  0.2514
  168SOPE  H12R18947   1.628   2.974   8.122  0.6582  0.0231 -0.2061
  168SOPE  H12S18948   1.622   2.792   8.136 -1.0706 -0.3689  0.6050
  168SOPE  C21318949   1.433   2.899   8.170  0.1337 -0.0133  1.0489
  168SOPE  H13R18950   1.375   2.806   8.155  0.3377  0.0818 -0.3705
  168SOPE  H13S18951   1.384   2.991   8.133  0.0529 -1.0873 -1.5854
  168SOPE  C21418952   1.457   2.913   8.322  0.3981 -0.1424  0.7067
  168SOPE  H14R18953   1.543   2.983   8.334 -1.5846  2.3715  0.5888
  168SOPE  H14S18954   1.490   2.817   8.368  1.6366 -0.7749 -1.4671
  168SOPE  C21518955   1.349   2.981   8.408  0.5504 -0.2177  0.1530
  168SOPE  H15R18956   1.384   3.009   8.510 -0.4038  2.3437 -0.1850
  168SOPE  H15S18957   1.252   2.926   8.412 -0.6451  1.8043 -0.0644
  168SOPE  C21618958   1.317   3.120   8.344  0.0377  0.4692 -0.0190
  168SOPE  H16R18959   1.273   3.113   8.242 -1.0660 -0.3087  0.4963
  168SOPE  H16S18960   1.414   3.171   8.331 -0.3985  0.5287 -3.7613
  168SOPE  C21718961   1.225   3.204   8.426  0.2333 -0.3727 -0.5153
  168SOPE  H17R18962   1.258   3.225   8.529 -2.0826 -0.5155  0.2962
  168SOPE  H17S18963   1.126   3.155   8.440  0.0836 -0.3607 -1.4790
  168SOPE  C21818964   1.214   3.340   8.360  0.5335  0.4888  1.1488
  168SOPE  H18R18965   1.313   3.391   8.361  0.7604  0.1362 -1.4407
  168SOPE  H18S18966   1.138   3.399   8.416 -1.4439  0.4112 -1.3480
  168SOPE  H18T18967   1.186   3.331   8.253  0.5129 -1.3269  1.2919
  168SOPE   C3318968   1.233   3.299   6.983 -0.7308  0.0181 -0.3189
  168SOPE   H3X18969   1.330   3.352   6.994  0.7040 -1.9401 -2.9814
  168SOPE   H3Y18970   1.264   3.192   6.982  0.6803  0.3955  1.3881
  168SOPE   C3418971   1.153   3.339   7.104 -0.1837 -0.4985  0.3862
  168SOPE   H4X18972   1.084   3.252   7.106 -0.3222 -0.3603  2.5271
  168SOPE   H4Y18973   1.094   3.431   7.081  0.3873  0.0066  0.9262
  168SOPE   C3518974   1.243   3.363   7.223  0.4519  0.1881 -0.1003
  168SOPE   H5X18975   1.295   3.462   7.223  0.8499 -0.0167  0.8013
  168SOPE   H5Y18976   1.322   3.287   7.236  1.1804  1.0018  0.3321
  168SOPE   C3618977   1.160   3.374   7.356 -0.0942 -0.1558 -0.3173
  168SOPE   H6X18978   1.059   3.415   7.332 -0.3326  0.1177  1.0970
  168SOPE   H6Y18979   1.207   3.443   7.430 -0.4882  0.9765 -1.1034
  168SOPE   C3718980   1.148   3.232   7.408 -0.2244 -0.0124  0.1856
  168SOPE   H7X18981   1.235   3.164   7.390 -0.0634  0.3037 -0.2253
  168SOPE   H7Y18982   1.058   3.190   7.359 -0.9032  2.0185 -0.3482
  168SOPE   C3818983   1.125   3.222   7.569 -0.0673 -0.6478  0.2223
  168SOPE   H8X18984   1.040   3.286   7.601  1.2868  1.5197 -0.3964
  168SOPE   H8Y18985   1.215   3.250   7.629  0.4152 -1.8723  0.0839
  168SOPE   C3918986   1.107   3.069   7.613  0.6916  0.0358 -0.0372
  168SOPE   H9X18987   1.121   3.006   7.523  0.6054  0.8614 -0.6407
  168SOPE   H9Y18988   1.004   3.046   7.648  0.0143  3.2599  0.2407
  168SOPE  C31018989   1.199   3.030   7.729  0.7682  0.1920  0.4700
  168SOPE  H10X18990   1.302   3.049   7.691  0.6747 -0.2470 -0.0101
  168SOPE  H10Y18991   1.187   2.921   7.746  1.5562  0.0601  0.1872
  168SOPE  C31118992   1.171   3.098   7.859 -0.1586 -0.0921 -0.3491
  168SOPE  H11X18993   1.174   3.209   7.851 -0.5306  0.0616  1.3025
  168SOPE  H11Y18994   1.262   3.075   7.918 -0.0325  1.7136  0.1919
  168SOPE  C31218995   1.043   3.049   7.932 -0.4673 -0.1255 -0.4653
  168SOPE  H12X18996   1.031   2.939   7.915  1.6212 -0.3083 -0.9210
  168SOPE  H12Y18997   0.955   3.108   7.903 -0.9540 -0.1000  1.0423
  168SOPE  C31318998   1.053   3.052   8.088  0.2425  0.3523  0.0642
  168SOPE  H13X18999   1.075   3.153   8.126 -1.0273  0.7080 -0.1319
  168SOPE  H13Y19000   1.137   2.986   8.118  0.4075 -0.2854 -1.7140
  168SOPE  C31419001   0.920   3.009   8.154  0.3253  0.5631  0.3772
  168SOPE  H14X19002   0.888   2.905   8.131  0.3977  0.4488  0.7846
  168SOPE  H14Y19003   0.839   3.064   8.103 -0.3842 -2.3994 -1.8393
  168SOPE  C31519004   0.911   3.034   8.308 -0.2164  0.5196 -0.1415
  168SOPE  H15X19005   0.908   3.144   8.324  4.5052  0.7945 -0.3526
  168SOPE  H15Y19006   0.990   2.987   8.371 -0.8441 -1.0958 -0.5513
  168SOPE  C31619007   0.772   2.989   8.355 -0.2343  0.1865  0.0370
  168SOPE  H16X19008   0.760   2.879   8.341 -0.7325  0.1141  0.9480
  168SOPE  H16Y19009   0.678   3.029   8.312 -1.3678 -1.2538  1.0815
  168SOPE  C31719010   0.749   2.990   8.511 -0.7817 -0.3658  0.6318
  168SOPE  H17X19011   0.774   3.088   8.556 -1.9166 -0.5357  1.6694
  168SOPE  H17Y19012   0.824   2.919   8.550  0.3338  1.0289  1.0375
  168SOPE  C31819013   0.615   2.956   8.554  0.0091 -0.6644  0.2298
  168SOPE  H18X19014   0.592   2.974   8.662 -1.3162 -1.0050  0.0258
  168SOPE  H18Y19015   0.611   2.848   8.531  1.8914 -0.7614  0.3137
  168SOPE  H18Z19016   0.540   2.996   8.483  0.4837 -0.5830 -0.2194
  169SOPE     N19017   4.092   5.212   6.385 -0.6673 -0.3439  0.3017
  169SOPE   HN119018   4.077   5.223   6.283 -0.8828  0.9279  0.4691
  169SOPE   HN219019   4.023   5.144   6.422 -0.5331 -0.5930  0.1012
  169SOPE   HN319020   4.070   5.298   6.438 -2.2216 -0.7291  0.3035
  169SOPE   C1219021   4.239   5.173   6.416  0.5291  0.4664 -0.6958
  169SOPE  H12A19022   4.264   5.186   6.523  0.2952  1.7277 -0.7833
  169SOPE  H12B19023   4.305   5.246   6.364  1.3033  0.5003  0.3241
  169SOPE   C1119024   4.260   5.031   6.391 -0.4984  0.3310 -0.5742
  169SOPE  H11A19025   4.338   4.998   6.462 -1.4200  3.2945  1.9292
  169SOPE  H11B19026   4.300   5.012   6.289 -1.4853 -1.6762 -0.6123
  169SOPE     P19027   4.088   4.829   6.333 -0.0126  0.5676 -0.1040
  169SOPE   O1319028   4.157   4.817   6.202 -0.9316 -0.4026 -0.1909
  169SOPE   O1419029   3.942   4.832   6.340  0.3454 -1.0653 -0.0756
  169SOPE   O1219030   4.140   4.956   6.410 -0.3552 -0.3271  0.0902
  169SOPE   O1119031   4.123   4.701   6.419 -0.1844 -0.0102 -0.8760
  169SOPE    C119032   4.251   4.689   6.475 -0.9223  0.6134  0.1014
  169SOPE    HA19033   4.322   4.773   6.460  3.0099 -2.6121 -0.2443
  169SOPE    HB19034   4.296   4.596   6.435 -0.1788  1.1877 -0.4077
  169SOPE    C219035   4.237   4.674   6.625  0.0899  0.2446  0.0070
  169SOPE    HS19036   4.335   4.692   6.676 -0.0594  0.6271  0.1595
  169SOPE   O2119037   4.173   4.551   6.649 -0.4029  0.3863  0.4380
  169SOPE   C2119038   4.249   4.437   6.651 -0.0896 -0.1397 -0.2556
  169SOPE   O2219039   4.371   4.430   6.635 -0.0271 -0.4827 -0.0837
  169SOPE   C2219040   4.155   4.315   6.673  0.1402  0.5643 -0.2017
  169SOPE   H2R19041   4.220   4.224   6.673 -0.1421  0.3479  1.3574
  169SOPE   H2S19042   4.100   4.318   6.576  1.4198  0.4721 -0.9336
  169SOPE    C319043   4.151   4.785   6.693 -0.2478  0.2908 -0.4956
  169SOPE    HX19044   4.051   4.795   6.644  0.4724  1.5342 -1.7553
  169SOPE    HY19045   4.197   4.882   6.666 -3.0171  1.3072 -1.7576
  169SOPE   O3119046   4.153   4.780   6.841  0.0261 -0.6904 -0.3498
  169SOPE   C3119047   4.048   4.729   6.891  0.1389 -0.8262 -0.0478
  169SOPE   O3219048   3.952   4.681   6.833  0.2717 -0.3175  0.4119
  169SOPE   C3219049   4.053   4.756   7.047  0.1464 -0.1693  0.5720
  169SOPE   H2X19050   3.987   4.845   7.044 -2.9251 -2.3906  0.2906
  169SOPE   H2Y19051   4.162   4.767   7.065  0.2118  1.7532 -0.7458
  169SOPE   C2319052   4.062   4.319   6.792  0.1697  0.1458  0.1178
  169SOPE   H3R19053   3.996   4.230   6.789  1.6200 -0.9614  0.4552
  169SOPE   H3S19054   3.990   4.403   6.782  1.2125  0.7418 -2.4634
  169SOPE   C2419055   4.140   4.310   6.922  0.4093  0.0429  0.7004
  169SOPE   H4R19056   4.228   4.245   6.903  0.9603  1.7997 -3.3429
  169SOPE   H4S19057   4.189   4.405   6.952 -0.1071  0.9064 -1.1399
  169SOPE   C2519058   4.050   4.262   7.039  0.1898 -0.0823  0.2572
  169SOPE   H5R19059   3.964   4.333   7.042  1.0429  0.9037  1.6136
  169SOPE   H5S19060   4.023   4.155   7.026  2.0393 -0.6826  1.3352
  169SOPE   C2619061   4.129   4.263   7.179 -0.3217 -0.3962 -0.4468
  169SOPE   H6R19062   4.218   4.197   7.178  0.5778  0.8313 -1.1780
  169SOPE   H6S19063   4.170   4.359   7.217  0.2475 -0.8023 -0.0378
  169SOPE   C2719064   4.041   4.215   7.297 -0.1850  0.1128 -0.2862
  169SOPE   H7R19065   4.013   4.108   7.287 -0.9643  0.5143 -2.7546
  169SOPE   H7S19066   4.089   4.231   7.395  0.4447  0.5368 -0.6628
  169SOPE   C2819067   3.911   4.297   7.323  0.1097  0.3464  0.9292
  169SOPE   H8R19068   3.948   4.398   7.351  0.0575 -0.1203  2.6918
  169SOPE   H8S19069   3.842   4.285   7.236  0.5890 -3.0791  0.9721
  169SOPE   C2919070   3.843   4.238   7.445 -0.1161  0.1675 -0.0941
  169SOPE   H9119071   3.846   4.128   7.451  0.6163  0.1967  0.0733
  169SOPE  C21019072   3.789   4.305   7.552 -0.3548 -0.6801  0.1222
  169SOPE  H10119073   3.767   4.240   7.637 -0.3762 -0.9762 -0.1113
  169SOPE  C21119074   3.770   4.455   7.571  0.1571 -0.6625 -0.4909
  169SOPE  H11R19075   3.662   4.479   7.584  0.5950  0.3691  1.3794
  169SOPE  H11S19076   3.798   4.512   7.481  0.4089  0.2694  0.1722
  169SOPE  C21219077   3.845   4.524   7.687 -0.4405 -0.3470 -0.3342
  169SOPE  H12R19078   3.825   4.633   7.691 -0.6712 -0.2992 -2.1998
  169SOPE  H12S19079   3.954   4.515   7.666 -0.3863  0.0986 -0.2240
  169SOPE  C21319080   3.816   4.470   7.827 -0.1368  0.0622 -0.0658
  169SOPE  H13R19081   3.850   4.364   7.824  2.4964  0.8451  0.8324
  169SOPE  H13S19082   3.706   4.476   7.844 -0.6202 -2.0188 -2.0498
  169SOPE  C21419083   3.893   4.538   7.942 -0.3418 -0.1354  0.5379
  169SOPE  H14R19084   3.859   4.644   7.939 -0.3546 -0.1338  0.7390
  169SOPE  H14S19085   4.000   4.546   7.916 -0.0536 -0.4051  1.6294
  169SOPE  C21519086   3.868   4.488   8.084  0.3775 -0.7460 -0.2797
  169SOPE  H15R19087   3.905   4.385   8.104  0.3126 -1.1947 -2.4404
  169SOPE  H15S19088   3.758   4.483   8.100  0.9639 -0.3497  4.8855
  169SOPE  C21619089   3.936   4.580   8.190  0.3194  0.2077  0.0464
  169SOPE  H16R19090   3.937   4.687   8.159 -1.3601 -0.4903 -2.6180
  169SOPE  H16S19091   4.041   4.545   8.203 -0.3818 -1.0599  2.6687
  169SOPE  C21719092   3.875   4.551   8.322  0.1656 -0.5806 -0.1793
  169SOPE  H17R19093   3.899   4.447   8.353 -0.8309 -1.5900 -2.7225
  169SOPE  H17S19094   3.766   4.562   8.306  0.1842 -0.1889 -0.0436
  169SOPE  C21819095   3.920   4.645   8.436  0.0153  0.7180 -0.5742
  169SOPE  H18R19096   3.863   4.616   8.526  0.5742 -0.4608 -0.6001
  169SOPE  H18S19097   3.879   4.743   8.402  0.0086  0.7515 -0.4697
  169SOPE  H18T19098   4.027   4.644   8.464  0.2232 -1.0106 -1.3587
  169SOPE   C3319099   3.990   4.650   7.139 -0.0519 -0.3935 -0.4419
  169SOPE   H3X19100   4.014   4.546   7.108 -1.7530 -1.1361  0.6328
  169SOPE   H3Y19101   3.883   4.674   7.122 -0.5247 -1.9629  0.2310
  169SOPE   C3419102   4.013   4.665   7.290  0.0617 -0.7761 -0.2458
  169SOPE   H4X19103   4.115   4.630   7.317 -0.8374 -1.2188  2.8069
  169SOPE   H4Y19104   3.938   4.595   7.334 -2.4692  0.9383 -1.6992
  169SOPE   C3519105   4.003   4.806   7.357 -0.1969 -0.2941  0.3647
  169SOPE   H5X19106   3.920   4.868   7.318  1.1386  0.4424 -1.3292
  169SOPE   H5Y19107   4.101   4.855   7.339  1.7812 -4.7947 -2.0704
  169SOPE   C3619108   3.983   4.804   7.502 -0.9587  0.2377  0.8893
  169SOPE   H6X19109   4.061   4.747   7.557  1.0926  3.9963  2.0654
  169SOPE   H6Y19110   3.893   4.740   7.515 -0.8803 -0.3498 -1.1504
  169SOPE   C3719111   3.972   4.939   7.565 -0.8869 -0.1832  0.3043
  169SOPE   H7X19112   3.879   4.996   7.544 -1.0792 -0.0049  1.5689
  169SOPE   H7Y19113   4.063   4.990   7.527  0.2744 -1.8584  0.7787
  169SOPE   C3819114   3.987   4.939   7.721 -0.4477 -1.2056 -0.2698
  169SOPE   H8X19115   3.887   4.930   7.770 -0.9485  2.5636 -0.4611
  169SOPE   H8Y19116   4.040   4.847   7.751  1.4269 -0.1465 -0.2658
  169SOPE   C3919117   4.056   5.062   7.776 -0.8738 -0.9858 -0.9376
  169SOPE   H9X19118   3.986   5.147   7.764  1.3216  1.1911  1.2601
  169SOPE   H9Y19119   4.152   5.088   7.726 -1.1064  2.9363  0.4852
  169SOPE  C31019120   4.068   5.055   7.936 -0.3174 -0.3579 -0.0570
  169SOPE  H10X19121   3.967   5.028   7.973 -0.4789 -0.6653 -0.7098
  169SOPE  H10Y19122   4.106   5.154   7.969 -0.3909 -0.5012  0.4464
  169SOPE  C31119123   4.168   4.950   7.991 -0.2182 -0.6216  0.0438
  169SOPE  H11X19124   4.263   4.951   7.933 -0.0500 -1.7046  0.2877
  169SOPE  H11Y19125   4.126   4.850   7.968 -1.1271 -0.0899 -0.5924
  169SOPE  C31219126   4.171   4.961   8.151 -0.2406  0.2978  0.1478
  169SOPE  H12X19127   4.068   4.939   8.187 -0.6568  1.7802 -0.0988
  169SOPE  H12Y19128   4.195   5.068   8.172  1.4355 -0.0610  0.1523
  169SOPE  C31319129   4.277   4.868   8.207  0.1531  0.1022  0.2647
  169SOPE  H13X19130   4.366   4.875   8.141 -0.2718 -1.7075 -0.5189
  169SOPE  H13Y19131   4.236   4.765   8.202  0.0426  0.1686 -0.2344
  169SOPE  C31419132   4.308   4.901   8.352  0.1889 -0.1999 -0.4630
  169SOPE  H14X19133   4.385   4.980   8.342  0.2905 -0.4580 -1.7592
  169SOPE  H14Y19134   4.352   4.816   8.408 -0.9258 -1.0329 -0.8231
  169SOPE  C31519135   4.186   4.939   8.433 -0.4736 -0.3065 -0.0583
  169SOPE  H15X19136   4.097   4.874   8.420  0.5749 -2.3438  2.4571
  169SOPE  H15Y19137   4.152   5.040   8.400  1.3545 -0.3915 -2.3110
  169SOPE  C31619138   4.213   4.950   8.581  0.2189  0.5516  0.0486
  169SOPE  H16X19139   4.297   5.021   8.597  0.3556  0.3845  0.0799
  169SOPE  H16Y19140   4.240   4.855   8.633 -0.0725 -0.4959 -1.6573
  169SOPE  C31719141   4.090   5.014   8.650  0.5273  0.0187 -0.3183
  169SOPE  H17X19142   4.002   4.946   8.641 -0.0498  0.5604  1.0173
  169SOPE  H17Y19143   4.061   5.105   8.594  0.3326 -0.7668 -1.5229
  169SOPE  C31819144   4.118   5.049   8.799 -0.6715 -0.1998  0.1364
  169SOPE  H18X19145   4.178   4.973   8.853 -0.8640 -0.2303  0.3087
  169SOPE  H18Y19146   4.019   5.060   8.850 -0.8144 -0.3416 -0.1087
  169SOPE  H18Z19147   4.173   5.145   8.806 -3.8257  1.8792 -1.9987
  170SOPE     N19148   5.445   3.309   6.534  0.1189  0.0217  0.0730
  170SOPE   HN119149   5.378   3.282   6.459  1.2674 -0.0931 -0.9217
  170SOPE   HN219150   5.473   3.409   6.524 -0.3612  0.3720  1.9652
  170SOPE   HN319151   5.537   3.263   6.526  0.0333  0.1450 -1.8246
  170SOPE   C1219152   5.360   3.287   6.655 -0.8818 -0.3853 -0.1385
  170SOPE  H12A19153   5.396   3.365   6.726  0.8495  1.5897 -3.0958
  170SOPE  H12B19154   5.386   3.187   6.698 -0.0970  0.4904  1.5044
  170SOPE   C1119155   5.212   3.312   6.619 -0.2570 -0.6306 -0.2364
  170SOPE  H11A19156   5.210   3.419   6.591  1.2656 -0.8829 -1.3368
  170SOPE  H11B19157   5.153   3.296   6.712  2.2543 -0.5764  1.4112
  170SOPE     P19158   5.022   3.205   6.489  0.4195  0.2476 -0.0321
  170SOPE   O1319159   5.003   3.154   6.351  0.5012 -0.2772 -0.5904
  170SOPE   O1419160   4.937   3.318   6.526 -0.1183  0.5039  0.1294
  170SOPE   O1219161   5.174   3.224   6.511 -0.3725 -0.2611  0.5505
  170SOPE   O1119162   4.992   3.091   6.596 -0.3149  0.0614 -0.5464
  170SOPE    C119163   4.859   3.042   6.613  0.4568  0.0123 -0.1558
  170SOPE    HA19164   4.857   2.932   6.631  0.6446 -0.0605 -0.5800
  170SOPE    HB19165   4.792   3.056   6.525  1.7031  0.0031 -1.1246
  170SOPE    C219166   4.801   3.090   6.750  0.6460 -0.4044  0.6872
  170SOPE    HS19167   4.791   3.199   6.734 -0.0235 -0.7835 -1.6351
  170SOPE   O2119168   4.895   3.054   6.856 -0.0002  0.8745 -0.2986
  170SOPE   C2119169   4.932   3.151   6.938  0.3849  0.7071  0.2436
  170SOPE   O2219170   4.898   3.267   6.927  0.3595 -0.1216 -0.1440
  170SOPE   C2219171   5.005   3.095   7.055 -0.2847  0.1769 -0.0600
  170SOPE   H2R19172   5.106   3.066   7.018 -0.9468 -2.5298  0.1937
  170SOPE   H2S19173   4.961   2.999   7.088 -0.4502 -0.0184 -0.8412
  170SOPE    C319174   4.658   3.036   6.766  1.0586  0.6582 -0.3365
  170SOPE    HX19175   4.668   2.925   6.759  0.1787  0.5546 -0.0081
  170SOPE    HY19176   4.594   3.078   6.686 -0.3229 -1.5787 -0.4464
  170SOPE   O3119177   4.614   3.049   6.902  0.2148 -0.6132 -0.5431
  170SOPE   C3119178   4.510   3.136   6.921  0.0701  0.5751 -0.3379
  170SOPE   O3219179   4.465   3.211   6.840 -0.2455  0.5931 -0.7449
  170SOPE   C3219180   4.446   3.119   7.053 -0.3265  0.2426 -0.1328
  170SOPE   H2X19181   4.404   3.016   7.059 -0.0194  0.0789 -0.6988
  170SOPE   H2Y19182   4.365   3.194   7.064 -0.0445  0.5305  0.0050
  170SOPE   C2319183   5.010   3.197   7.174 -0.6437  0.8441 -0.9126
  170SOPE   H3R19184   4.907   3.224   7.204 -0.8228  0.9123 -1.5869
  170SOPE   H3S19185   5.062   3.292   7.149 -0.0214  1.0365  0.9606
  170SOPE   C2419186   5.101   3.141   7.291  0.3680  0.6520 -0.8296
  170SOPE   H4R19187   5.069   3.192   7.384  2.5727  0.4445  0.0715
  170SOPE   H4S19188   5.072   3.035   7.309  0.2548  1.1507  2.1779
  170SOPE   C2519189   5.246   3.142   7.250  0.1217  0.2365 -0.5642
  170SOPE   H5R19190   5.271   3.083   7.159  0.0285  1.0325 -1.1091
  170SOPE   H5S19191   5.277   3.248   7.235 -1.1221  0.3991 -2.0083
  170SOPE   C2619192   5.334   3.091   7.358 -0.3103  1.0398 -0.6201
  170SOPE   H6R19193   5.321   2.983   7.382  2.2170  0.8575 -0.0101
  170SOPE   H6S19194   5.433   3.089   7.309 -0.5741 -1.3561 -1.1472
  170SOPE   C2719195   5.333   3.176   7.488 -0.1424  0.1753  0.4348
  170SOPE   H7R19196   5.228   3.211   7.506  0.7795  2.8268  0.9005
  170SOPE   H7S19197   5.351   3.108   7.574 -0.5682  0.1218  0.4868
  170SOPE   C2819198   5.438   3.285   7.489  0.2796 -0.4881  0.3118
  170SOPE   H8R19199   5.527   3.251   7.432  0.3823  3.2522 -1.9231
  170SOPE   H8S19200   5.417   3.370   7.421 -1.0423 -1.5261 -0.6065
  170SOPE   C2919201   5.467   3.333   7.631  0.3481 -0.7910 -0.3071
  170SOPE   H9119202   5.519   3.260   7.695 -0.4386 -0.4075  0.7772
  170SOPE  C21019203   5.441   3.453   7.686 -0.1586  0.5471  0.3033
  170SOPE  H10119204   5.475   3.469   7.789 -1.7944  0.1518  0.9230
  170SOPE  C21119205   5.377   3.570   7.626 -0.0178 -0.0019 -0.3660
  170SOPE  H11R19206   5.366   3.567   7.516  1.0130 -0.4427 -0.4702
  170SOPE  H11S19207   5.441   3.658   7.647 -0.3185 -0.2810  1.8234
  170SOPE  C21219208   5.247   3.597   7.707 -0.7712 -0.9999  0.2664
  170SOPE  H12R19209   5.179   3.510   7.704 -1.6498 -0.3606  1.3452
  170SOPE  H12S19210   5.192   3.679   7.657 -0.2459 -2.2965 -2.5262
  170SOPE  C21319211   5.280   3.636   7.853  0.5328 -0.3307 -0.1679
  170SOPE  H13R19212   5.334   3.734   7.853  0.3655 -0.2347  0.5404
  170SOPE  H13S19213   5.331   3.556   7.910  0.2855 -0.0128  0.5137
  170SOPE  C21419214   5.133   3.651   7.923 -0.0250 -0.1427 -0.5539
  170SOPE  H14R19215   5.078   3.555   7.909 -0.3993  0.2113 -1.5568
  170SOPE  H14S19216   5.078   3.733   7.872 -1.2821 -0.3995  0.3279
  170SOPE  C21519217   5.139   3.691   8.069 -0.3464 -0.2836  0.0236
  170SOPE  H15R19218   5.186   3.791   8.072 -2.7335  0.8851  0.0294
  170SOPE  H15S19219   5.217   3.623   8.109  1.3611  1.1048 -0.8500
  170SOPE  C21619220   5.006   3.669   8.140  0.3912  0.1974  0.5697
  170SOPE  H16R19221   4.966   3.572   8.102 -2.7841  1.3185  0.9237
  170SOPE  H16S19222   4.932   3.745   8.105  0.9068 -0.2474 -1.5798
  170SOPE  C21719223   5.014   3.676   8.291  0.0397 -0.2482  0.2821
  170SOPE  H17R19224   5.090   3.609   8.338  0.9808  1.9696  2.0350
  170SOPE  H17S19225   4.916   3.644   8.331 -0.0281  1.9075  1.8910
  170SOPE  C21819226   5.047   3.813   8.338 -0.0059  0.0786  0.8083
  170SOPE  H18R19227   5.157   3.830   8.330  0.1428 -0.8499  0.8263
  170SOPE  H18S19228   5.022   3.834   8.444 -2.1932 -0.9793  0.5204
  170SOPE  H18T19229   4.985   3.893   8.293  0.7052 -0.3760 -1.0314
  170SOPE   C3319230   4.529   3.151   7.175 -0.0932  0.1934 -0.0124
  170SOPE   H3X19231   4.570   3.254   7.178  1.3189 -0.3312 -1.0402
  170SOPE   H3Y19232   4.622   3.091   7.166 -0.5173 -0.3603 -0.7523
  170SOPE   C3419233   4.460   3.121   7.306  0.0860 -0.8861 -0.5882
  170SOPE   H4X19234   4.428   3.014   7.309 -2.3093 -0.1870  0.6825
  170SOPE   H4Y19235   4.368   3.183   7.314  0.5082 -0.1619 -1.3369
  170SOPE   C3519236   4.535   3.149   7.436  0.4184 -0.3000 -0.6012
  170SOPE   H5X19237   4.563   3.256   7.449  0.2936 -0.2672 -0.6027
  170SOPE   H5Y19238   4.630   3.091   7.434 -0.4089 -1.7326  0.4759
  170SOPE   C3619239   4.461   3.107   7.563  0.0461 -0.0704 -0.2420
  170SOPE   H6X19240   4.357   3.080   7.534  0.1595  0.8194 -1.5501
  170SOPE   H6Y19241   4.440   3.203   7.615 -1.8895  0.7410 -2.4141
  170SOPE   C3719242   4.516   2.998   7.660  0.5433 -0.0737 -0.1703
  170SOPE   H7X19243   4.620   3.020   7.692  0.3436  0.4020  0.1474
  170SOPE   H7Y19244   4.536   2.901   7.608  1.2408  1.2050 -2.3523
  170SOPE   C3819245   4.418   2.995   7.775  0.3274 -0.2180 -0.3681
  170SOPE   H8X19246   4.312   2.986   7.744 -0.1076 -0.1166  1.0420
  170SOPE   H8Y19247   4.412   3.080   7.847  3.1020 -0.5655  0.3221
  170SOPE   C3919248   4.441   2.868   7.867  0.3413 -0.2522  0.2594
  170SOPE   H9X19249   4.436   2.774   7.807 -1.5303  0.7707 -1.2551
  170SOPE   H9Y19250   4.369   2.869   7.952 -0.8858  0.3126 -0.7636
  170SOPE  C31019251   4.585   2.877   7.929 -0.4082  0.0275  0.1772
  170SOPE  H10X19252   4.596   2.969   7.990  2.3603 -0.3831  0.3639
  170SOPE  H10Y19253   4.662   2.886   7.849 -2.7245  0.1706 -2.1053
  170SOPE  C31119254   4.621   2.756   8.012  0.2414 -0.2861  0.1927
  170SOPE  H11X19255   4.728   2.772   8.039  0.1394 -2.6104  2.1489
  170SOPE  H11Y19256   4.614   2.673   7.939 -1.6794 -0.7182  0.8477
  170SOPE  C31219257   4.544   2.728   8.141  0.6628  0.1357 -0.2377
  170SOPE  H12X19258   4.571   2.633   8.192 -2.2598 -0.2724  0.6163
  170SOPE  H12Y19259   4.436   2.730   8.116  0.8929 -2.5878 -1.6223
  170SOPE  C31319260   4.563   2.848   8.245  0.2581  0.6178  0.0317
  170SOPE  H13X19261   4.541   2.942   8.190  3.7435  0.2402 -2.1929
  170SOPE  H13Y19262   4.670   2.842   8.277  0.0518 -2.5078  0.2903
  170SOPE  C31419263   4.478   2.854   8.378  0.1698  0.3579  0.5327
  170SOPE  H14X19264   4.517   2.787   8.458 -0.4930  0.6726  1.1289
  170SOPE  H14Y19265   4.378   2.814   8.351  0.0539  2.0048 -1.5968
  170SOPE  C31519266   4.468   2.990   8.437 -0.2807 -0.5778 -0.1018
  170SOPE  H15X19267   4.448   3.063   8.356  1.3253  1.8523  1.6249
  170SOPE  H15Y19268   4.561   3.013   8.494 -0.6696  0.5113  0.1030
  170SOPE  C31619269   4.345   3.004   8.530  0.1835  0.2489 -0.1821
  170SOPE  H16X19270   4.365   2.928   8.609  0.9327  1.8957  1.2456
  170SOPE  H16Y19271   4.251   2.966   8.485  0.3196 -1.5065  0.9695
  170SOPE  C31719272   4.332   3.146   8.578 -0.5198 -0.6238 -0.2050
  170SOPE  H17X19273   4.340   3.206   8.485  1.7901  2.6153  2.0159
  170SOPE  H17Y19274   4.422   3.179   8.633 -0.9978  1.3559 -0.5607
  170SOPE  C31819275   4.198   3.164   8.645 -0.1345  0.7561  0.4188
  170SOPE  H18X19276   4.190   3.267   8.688  1.0121  0.9860  0.0954
  170SOPE  H18Y19277   4.173   3.097   8.730 -1.1681  1.5290  0.7389
  170SOPE  H18Z19278   4.124   3.147   8.564  0.6397  0.9718 -0.3360
  171SOPE     N19279   4.330   6.418   6.440 -0.3153  0.0282  0.0554
  171SOPE   HN119280   4.371   6.326   6.414  0.1261  0.0334  0.7263
  171SOPE   HN219281   4.363   6.439   6.536 -0.1171  1.1146 -0.2295
  171SOPE   HN319282   4.227   6.403   6.441 -0.6405  1.4864 -3.0070
  171SOPE   C1219283   4.369   6.517   6.328  0.0234 -0.0013 -0.5879
  171SOPE  H12A19284   4.368   6.619   6.372 -0.6557 -0.0878 -0.4028
  171SOPE  H12B19285   4.304   6.512   6.239 -0.7849 -0.2902  0.0087
  171SOPE   C1119286   4.516   6.497   6.287 -0.2584  0.9655  0.3193
  171SOPE  H11A19287   4.545   6.580   6.219 -0.5394  2.6167  2.1629
  171SOPE  H11B19288   4.514   6.403   6.229 -2.2090  1.1079  0.1279
  171SOPE     P19289   4.725   6.570   6.433  0.3396  0.1218 -0.2208
  171SOPE   O1319290   4.670   6.685   6.506  0.2551 -0.3996  0.1638
  171SOPE   O1419291   4.803   6.596   6.312  0.6055  0.1049 -0.5402
  171SOPE   O1219292   4.601   6.476   6.400 -0.1125 -0.4096 -0.0266
  171SOPE   O1119293   4.805   6.478   6.529  0.0931 -0.5480 -0.4787
  171SOPE    C119294   4.742   6.369   6.598  0.1860  0.0386  0.6059
  171SOPE    HA19295   4.733   6.277   6.537  1.2449  0.3959 -0.1064
  171SOPE    HB19296   4.636   6.395   6.617 -0.5189 -0.7699 -1.9889
  171SOPE    C219297   4.800   6.339   6.736 -0.6308 -0.2789  0.7878
  171SOPE    HS19298   4.741   6.257   6.782 -2.7033  0.3172 -0.7290
  171SOPE   O2119299   4.796   6.462   6.816 -0.4554 -0.5155  0.8449
  171SOPE   C2119300   4.683   6.480   6.883 -0.6464  0.7353  0.2726
  171SOPE   O2219301   4.597   6.399   6.897 -0.2941 -0.0776 -0.4823
  171SOPE   C2219302   4.703   6.607   6.960  0.6850  0.2664 -0.6580
  171SOPE   H2R19303   4.611   6.669   6.957 -0.5809 -1.5415 -0.0836
  171SOPE   H2S19304   4.777   6.676   6.914 -0.9382  1.9958 -0.7225
  171SOPE    C319305   4.951   6.302   6.728 -0.7966 -0.2584  0.0802
  171SOPE    HX19306   4.993   6.388   6.671  0.1007 -0.5433  0.3111
  171SOPE    HY19307   4.967   6.203   6.681  0.1130 -0.5122  0.9194
  171SOPE   O3119308   4.997   6.288   6.869 -0.2641 -0.6463 -0.1446
  171SOPE   C3119309   5.116   6.340   6.895  0.2878  0.5175 -0.7554
  171SOPE   O3219310   5.178   6.415   6.829  0.4253 -0.0561 -0.5211
  171SOPE   C3219311   5.166   6.284   7.032 -0.2057  0.1580 -0.1806
  171SOPE   H2X19312   5.166   6.173   7.022  1.8719  0.0884  0.2948
  171SOPE   H2Y19313   5.092   6.320   7.106  0.6411 -2.3542  1.9695
  171SOPE   C2319314   4.738   6.591   7.108  0.7996  0.5244  0.5865
  171SOPE   H3R19315   4.847   6.571   7.120  1.0331  1.1429 -0.4704
  171SOPE   H3S19316   4.671   6.511   7.145 -1.5226  2.5168  0.8356
  171SOPE   C2419317   4.704   6.708   7.216 -0.2463 -0.0754  0.5314
  171SOPE   H4R19318   4.763   6.793   7.178 -0.4899  0.1784  0.7162
  171SOPE   H4S19319   4.597   6.733   7.199 -0.0845  0.2275 -0.0137
  171SOPE   C2519320   4.755   6.666   7.349 -0.8660 -0.3597  0.4579
  171SOPE   H5R19321   4.746   6.556   7.345  1.4150 -0.6033  1.1920
  171SOPE   H5S19322   4.862   6.696   7.346 -0.4168 -1.9665 -3.7452
  171SOPE   C2619323   4.677   6.714   7.475  0.5875  0.8312  0.9296
  171SOPE   H6R19324   4.688   6.825   7.479  0.9474  0.8263  0.2133
  171SOPE   H6S19325   4.570   6.686   7.464  0.2148  2.8323 -0.9616
  171SOPE   C2719326   4.710   6.639   7.604 -0.6612  0.7088  0.7104
  171SOPE   H7R19327   4.701   6.531   7.578 -2.9601  0.5225  2.1986
  171SOPE   H7S19328   4.816   6.670   7.616 -0.8693  1.3560  0.9128
  171SOPE   C2819329   4.619   6.657   7.729 -0.1246  0.3521 -0.4589
  171SOPE   H8R19330   4.618   6.765   7.757 -0.5123  0.3178 -0.3329
  171SOPE   H8S19331   4.520   6.619   7.699  1.7712 -2.9168 -2.9032
  171SOPE   C2919332   4.682   6.586   7.850 -0.3302  0.3211  0.0649
  171SOPE   H9119333   4.784   6.549   7.833 -0.7673 -0.8034 -0.1563
  171SOPE  C21019334   4.600   6.538   7.951  0.4433 -0.4742 -0.0048
  171SOPE  H10119335   4.650   6.466   8.018  1.0432  1.5537  1.7761
  171SOPE  C21119336   4.452   6.564   7.962  0.0996 -0.0072 -1.0370
  171SOPE  H11R19337   4.407   6.575   7.861 -0.3534  2.1228 -0.6433
  171SOPE  H11S19338   4.430   6.655   8.023 -2.3971 -2.3687  1.6996
  171SOPE  C21219339   4.377   6.437   8.026 -0.5771 -0.2185 -0.2455
  171SOPE  H12R19340   4.431   6.402   8.117 -0.4094 -1.2130 -0.7173
  171SOPE  H12S19341   4.395   6.361   7.947  1.7773  0.5245 -0.4608
  171SOPE  C21319342   4.235   6.464   8.071  0.1700  0.1455  0.0197
  171SOPE  H13R19343   4.189   6.526   7.991  0.5553 -0.9236 -1.0500
  171SOPE  H13S19344   4.239   6.537   8.155 -3.2096 -1.0676  1.3103
  171SOPE  C21419345   4.149   6.343   8.112 -0.3153  0.2972 -0.3880
  171SOPE  H14R19346   4.209   6.287   8.187 -1.1175 -4.5024 -3.1113
  171SOPE  H14S19347   4.129   6.271   8.030 -0.8936 -0.6723  0.5845
  171SOPE  C21519348   4.024   6.402   8.192  0.5524 -1.1067  0.0637
  171SOPE  H15R19349   3.956   6.441   8.113  1.1502 -0.3766 -0.0977
  171SOPE  H15S19350   4.058   6.490   8.252  1.4508 -0.7386 -0.9559
  171SOPE  C21619351   3.943   6.293   8.267 -0.4339 -0.1651  0.1583
  171SOPE  H16R19352   3.927   6.206   8.199  2.2169  0.6395 -1.5877
  171SOPE  H16S19353   3.850   6.340   8.306 -0.7658 -1.1490  0.5669
  171SOPE  C21719354   4.016   6.248   8.393  1.2632 -0.1059  0.3454
  171SOPE  H17R19355   4.035   6.335   8.459 -0.9042  0.9177 -0.3396
  171SOPE  H17S19356   4.113   6.202   8.363  1.4166  0.3375  0.1607
  171SOPE  C21819357   3.936   6.142   8.474  0.1702 -0.1237  0.3435
  171SOPE  H18R19358   3.834   6.175   8.503  0.5510 -0.6096  2.3289
  171SOPE  H18S19359   3.993   6.122   8.568  1.9897  0.0645 -0.7098
  171SOPE  H18T19360   3.949   6.047   8.419  1.7624  1.4871 -2.1446
  171SOPE   C3319361   5.302   6.348   7.064  1.9173  0.5012 -0.1589
  171SOPE   H3X19362   5.284   6.458   7.062 -0.1803  0.2015  0.5692
  171SOPE   H3Y19363   5.380   6.324   6.989  1.4278 -1.2110 -0.1297
  171SOPE   C3419364   5.352   6.311   7.209  0.0202 -0.3786 -0.3861
  171SOPE   H4X19365   5.378   6.204   7.226 -2.4287 -0.8137  0.8050
  171SOPE   H4Y19366   5.270   6.320   7.283  0.8530 -0.8460  0.6166
  171SOPE   C3519367   5.471   6.390   7.269 -0.9050 -0.6806 -0.4323
  171SOPE   H5X19368   5.473   6.493   7.228  0.4119 -0.0910  1.0948
  171SOPE   H5Y19369   5.567   6.344   7.237 -0.1820  1.6662 -1.8024
  171SOPE   C3619370   5.470   6.385   7.425  0.5159 -0.0396  0.0646
  171SOPE   H6X19371   5.368   6.417   7.454  0.3484 -0.9860  0.5449
  171SOPE   H6Y19372   5.544   6.461   7.458 -0.4563  0.2915  1.5449
  171SOPE   C3719373   5.510   6.249   7.487  0.1625 -0.3646  0.3467
  171SOPE   H7X19374   5.620   6.241   7.472  0.2136  0.3745  0.3023
  171SOPE   H7Y19375   5.472   6.173   7.416  0.8202 -1.1099  0.7864
  171SOPE   C3819376   5.458   6.239   7.630 -0.3018 -0.0832  0.6768
  171SOPE   H8X19377   5.437   6.134   7.659 -0.9452 -0.3964 -0.9047
  171SOPE   H8Y19378   5.356   6.282   7.645 -0.2960 -0.1158  0.8122
  171SOPE   C3919379   5.556   6.303   7.735 -0.2370  0.0477 -0.0640
  171SOPE   H9X19380   5.530   6.411   7.727 -1.0422 -0.1904 -0.7732
  171SOPE   H9Y19381   5.650   6.271   7.685 -0.4068  0.7852 -0.8626
  171SOPE  C31019382   5.519   6.250   7.874 -0.5080 -0.4941  0.3023
  171SOPE  H10X19383   5.548   6.143   7.878  1.6605  0.0121 -0.9153
  171SOPE  H10Y19384   5.416   6.267   7.911 -1.2040 -0.3445 -1.6746
  171SOPE  C31119385   5.621   6.307   7.978  0.2496  0.1508 -0.3354
  171SOPE  H11X19386   5.595   6.414   7.992  1.7606  0.4621  0.1762
  171SOPE  H11Y19387   5.726   6.315   7.942 -0.3337  0.7219 -1.9386
  171SOPE  C31219388   5.611   6.240   8.123 -0.1553  0.4557 -0.2393
  171SOPE  H12X19389   5.673   6.295   8.197  0.5683 -1.1690  0.3790
  171SOPE  H12Y19390   5.643   6.135   8.110  0.1108  0.6926 -1.6147
  171SOPE  C31319391   5.464   6.251   8.188  0.2120  0.4534 -0.6066
  171SOPE  H13X19392   5.386   6.207   8.122  0.4283 -0.5590 -0.1985
  171SOPE  H13Y19393   5.444   6.360   8.194  2.7407  0.8672  0.7531
  171SOPE  C31419394   5.446   6.196   8.335  0.4128  0.3484 -0.1708
  171SOPE  H14X19395   5.539   6.201   8.395  1.0225  1.1629 -1.1647
  171SOPE  H14Y19396   5.417   6.091   8.313  1.4467  0.0207  0.0025
  171SOPE  C31519397   5.326   6.258   8.406 -0.1349 -0.0104 -0.3810
  171SOPE  H15X19398   5.232   6.245   8.348  0.0454  1.1063 -0.9447
  171SOPE  H15Y19399   5.347   6.367   8.416 -0.5635  0.1572 -1.2813
  171SOPE  C31619400   5.310   6.221   8.559 -0.4653 -0.1328  0.6672
  171SOPE  H16X19401   5.333   6.115   8.581 -0.3430 -0.0718  0.8383
  171SOPE  H16Y19402   5.204   6.239   8.587  0.3160  0.7464  3.1685
  171SOPE  C31719403   5.400   6.296   8.657 -0.5900 -0.5712 -0.4650
  171SOPE  H17X19404   5.504   6.264   8.634 -0.5140  0.4847 -1.6717
  171SOPE  H17Y19405   5.375   6.257   8.758  2.3984 -0.0087  0.5326
  171SOPE  C31819406   5.390   6.449   8.668  0.5849 -0.2619 -0.8795
  171SOPE  H18X19407   5.460   6.485   8.747 -0.0846 -0.3421 -0.2466
  171SOPE  H18Y19408   5.290   6.478   8.705  1.3409  0.2010  0.8760
  171SOPE  H18Z19409   5.415   6.496   8.570  0.8395  1.8766  0.1931
  172SOPE     N19410   5.102   1.196   6.511 -0.2159  0.0409 -0.4743
  172SOPE   HN119411   5.173   1.160   6.443 -0.7357 -0.5792 -0.6902
  172SOPE   HN219412   5.077   1.133   6.589 -0.4194 -0.5465 -1.0124
  172SOPE   HN319413   5.017   1.194   6.452  1.2381 -1.2153 -2.6031
  172SOPE   C1219414   5.150   1.333   6.560  0.4371 -0.6139 -0.4549
  172SOPE  H12A19415   5.067   1.375   6.622 -0.6580 -4.1187  0.5386
  172SOPE  H12B19416   5.171   1.398   6.473 -2.4399 -0.4651 -1.0743
  172SOPE   C1119417   5.274   1.323   6.639 -0.1866  0.0208  0.4803
  172SOPE  H11A19418   5.250   1.269   6.733  1.9734 -1.2654  0.3343
  172SOPE  H11B19419   5.313   1.425   6.662  1.8162 -0.8169  0.8960
  172SOPE     P19420   5.477   1.327   6.463  0.2940 -0.1815 -0.2035
  172SOPE   O1319421   5.403   1.433   6.392  0.4932 -0.2936  0.7195
  172SOPE   O1419422   5.546   1.225   6.385  0.6176 -0.0287  0.1989
  172SOPE   O1219423   5.369   1.255   6.558 -0.4223  0.3766  0.1936
  172SOPE   O1119424   5.570   1.406   6.563 -0.3906 -0.1465 -0.1246
  172SOPE    C119425   5.642   1.332   6.663  0.3861 -0.2384  0.5313
  172SOPE    HA19426   5.743   1.321   6.616 -1.0259 -0.8946 -2.4323
  172SOPE    HB19427   5.606   1.229   6.682 -0.1607 -0.1323  0.0544
  172SOPE    C219428   5.660   1.417   6.794 -0.5873  0.9060 -0.3446
  172SOPE    HS19429   5.735   1.359   6.853 -2.0619  0.3989  1.0703
  172SOPE   O2119430   5.534   1.411   6.867  0.4208  0.0838 -0.0960
  172SOPE   C2119431   5.512   1.313   6.954 -0.1161  1.2144  0.2279
  172SOPE   O2219432   5.597   1.227   6.980 -0.7159  0.3284  0.3337
  172SOPE   C2219433   5.376   1.320   7.016  0.3227  0.0675  0.4944
  172SOPE   H2R19434   5.311   1.262   6.948 -0.6904  1.4885  0.2293
  172SOPE   H2S19435   5.344   1.426   7.015  1.6139  0.4677 -0.6536
  172SOPE    C319436   5.692   1.569   6.766  0.3545 -0.1519  1.0748
  172SOPE    HX19437   5.593   1.612   6.740  0.6533 -1.6289 -2.8110
  172SOPE    HY19438   5.760   1.570   6.678 -0.7578 -0.1728  0.2143
  172SOPE   O3119439   5.741   1.641   6.880 -0.1600 -0.2703  0.2458
  172SOPE   C3119440   5.870   1.619   6.915 -0.0287 -0.1556  0.1061
  172SOPE   O3219441   5.946   1.547   6.858 -0.0655  0.2932  0.8855
  172SOPE   C3219442   5.903   1.711   7.031  0.3342  0.6450  0.2766
  172SOPE   H2X19443   5.892   1.814   6.991 -0.9143  0.1935 -0.5774
  172SOPE   H2Y19444   6.008   1.696   7.063  0.7490  1.8324 -0.5005
  172SOPE   C2319445   5.364   1.258   7.164 -0.3549 -0.0651 -0.0803
  172SOPE   H3R19446   5.390   1.151   7.149  3.3177  0.8206 -0.4310
  172SOPE   H3S19447   5.259   1.270   7.199 -0.3834 -0.0744 -0.1614
  172SOPE   C2419448   5.462   1.317   7.272  0.8508 -0.4088 -0.5622
  172SOPE   H4R19449   5.565   1.289   7.242  1.1760 -1.0129  1.1100
  172SOPE   H4S19450   5.455   1.427   7.259  1.7319 -0.0128  1.9824
  172SOPE   C2519451   5.433   1.269   7.414  0.3355  0.1454  0.7454
  172SOPE   H5R19452   5.324   1.281   7.432 -0.3841 -0.8901 -2.6063
  172SOPE   H5S19453   5.453   1.161   7.428 -0.0259  0.1404  1.2142
  172SOPE   C2619454   5.514   1.349   7.510 -0.1623  0.3197  0.4016
  172SOPE   H6R19455   5.622   1.353   7.484  0.4203 -0.6292  2.6114
  172SOPE   H6S19456   5.482   1.455   7.519 -1.2043  0.0672 -0.1807
  172SOPE   C2719457   5.475   1.298   7.647  0.5500 -0.1770 -0.5419
  172SOPE   H7R19458   5.366   1.309   7.664  0.8214 -0.2915  1.4891
  172SOPE   H7S19459   5.508   1.192   7.644  1.0024  0.0136 -2.5279
  172SOPE   C2819460   5.551   1.371   7.765  0.3621 -0.3823  0.5416
  172SOPE   H8R19461   5.564   1.294   7.844  0.3821  0.8410  1.7559
  172SOPE   H8S19462   5.657   1.385   7.735  1.3236 -1.9500  3.0381
  172SOPE   C2919463   5.485   1.493   7.825 -0.3000  0.3047 -0.2136
  172SOPE   H9119464   5.458   1.573   7.755  0.4570  0.8342  0.0844
  172SOPE  C21019465   5.481   1.524   7.954 -0.0527  0.8388  0.0678
  172SOPE  H10119466   5.413   1.605   7.985 -1.1939  0.9430 -2.5994
  172SOPE  C21119467   5.533   1.441   8.070 -0.3289  0.8381 -0.4528
  172SOPE  H11R19468   5.525   1.332   8.052  0.2833  0.5565  0.9265
  172SOPE  H11S19469   5.457   1.453   8.151  2.7041 -1.2113  2.8348
  172SOPE  C21219470   5.670   1.458   8.135  0.2296 -1.0705 -0.0354
  172SOPE  H12R19471   5.727   1.538   8.081 -1.6579  1.3858  1.4962
  172SOPE  H12S19472   5.718   1.358   8.134 -0.4167 -1.3794 -0.7799
  172SOPE  C21319473   5.669   1.516   8.281  0.2611 -0.0284 -0.0399
  172SOPE  H13R19474   5.605   1.606   8.269  0.3341 -0.1250 -1.2081
  172SOPE  H13S19475   5.773   1.549   8.305  0.5132  0.7487 -2.0772
  172SOPE  C21419476   5.628   1.431   8.401  0.7394 -0.4424 -0.0206
  172SOPE  H14R19477   5.525   1.396   8.381  0.4039 -1.0398  2.5876
  172SOPE  H14S19478   5.607   1.495   8.490 -1.5260  0.2085 -0.9738
  172SOPE  C21519479   5.715   1.306   8.439 -0.2059  0.2046  0.9572
  172SOPE  H15R19480   5.807   1.333   8.496  0.4263 -3.5552  1.8849
  172SOPE  H15S19481   5.737   1.264   8.339  0.9175  2.5397  0.2069
  172SOPE  C21619482   5.636   1.213   8.532  0.4602  0.4798 -0.9608
  172SOPE  H16R19483   5.570   1.153   8.466 -1.7977  0.7971  0.9408
  172SOPE  H16S19484   5.568   1.275   8.594  0.9558 -1.3638  1.5156
  172SOPE  C21719485   5.731   1.118   8.613  0.5238  0.2115  0.3383
  172SOPE  H17R19486   5.777   1.178   8.694 -0.4563  1.5552 -0.0644
  172SOPE  H17S19487   5.816   1.095   8.546  0.7040  1.7976 -0.0012
  172SOPE  C21819488   5.659   0.989   8.657 -0.4770  0.2265 -0.2592
  172SOPE  H18R19489   5.558   1.006   8.698  0.1188  0.2000  1.2325
  172SOPE  H18S19490   5.725   0.937   8.730 -3.2380 -0.9879  1.4258
  172SOPE  H18T19491   5.655   0.920   8.570  0.3887  0.9933 -0.9187
  172SOPE   C3319492   5.809   1.681   7.152  0.2569  0.4715  0.2839
  172SOPE   H3X19493   5.802   1.572   7.170  0.9030  0.5763  1.1599
  172SOPE   H3Y19494   5.704   1.708   7.125  0.2437  0.4603  0.3244
  172SOPE   C3419495   5.847   1.732   7.284  0.7953  0.1774 -0.5168
  172SOPE   H4X19496   5.853   1.843   7.288 -1.5068  0.3348 -1.0303
  172SOPE   H4Y19497   5.949   1.698   7.311  0.5435  0.6668  1.1189
  172SOPE   C3519498   5.741   1.691   7.390 -0.2738  0.2074 -0.3567
  172SOPE   H5X19499   5.712   1.589   7.358  0.0044  0.3248 -0.9813
  172SOPE   H5Y19500   5.651   1.753   7.375  0.1773  0.6960 -1.0644
  172SOPE   C3619501   5.777   1.687   7.537 -0.0167  0.6137  0.3066
  172SOPE   H6X19502   5.865   1.620   7.549  0.7387  1.1775 -1.9780
  172SOPE   H6Y19503   5.692   1.646   7.596 -2.7130  2.5916 -2.0599
  172SOPE   C3719504   5.823   1.825   7.581 -0.3707 -0.1656 -0.0024
  172SOPE   H7X19505   5.749   1.906   7.566 -2.8543 -2.0624  1.6300
  172SOPE   H7Y19506   5.912   1.862   7.525 -0.1606  2.0537  1.6957
  172SOPE   C3819507   5.864   1.818   7.726  0.3468  0.2071 -0.0343
  172SOPE   H8X19508   5.935   1.902   7.741 -0.3010  0.7553  0.0347
  172SOPE   H8Y19509   5.920   1.728   7.756  0.2769  0.3566  0.5573
  172SOPE   C3919510   5.757   1.835   7.831 -0.3253 -0.0761 -0.3269
  172SOPE   H9X19511   5.687   1.750   7.813  0.0131 -0.8493  1.8849
  172SOPE   H9Y19512   5.691   1.922   7.813 -1.3210  0.1307  3.9507
  172SOPE  C31019513   5.807   1.841   7.968  0.1390 -0.4419 -0.2459
  172SOPE  H10X19514   5.875   1.929   7.970 -1.7243  1.0245 -0.4607
  172SOPE  H10Y19515   5.851   1.745   8.002  0.3650 -0.8259 -1.6055
  172SOPE  C31119516   5.710   1.857   8.086  0.6256  0.4435  0.2650
  172SOPE  H11X19517   5.655   1.761   8.097 -0.4818  0.9428 -0.7505
  172SOPE  H11Y19518   5.644   1.943   8.059 -1.8498 -2.7649 -4.6502
  172SOPE  C31219519   5.783   1.907   8.214 -0.3060 -0.0621  0.1541
  172SOPE  H12X19520   5.840   2.002   8.204  0.4634 -0.5973 -0.6571
  172SOPE  H12Y19521   5.862   1.836   8.245 -0.2095  0.5258  1.2962
  172SOPE  C31319522   5.679   1.914   8.326  0.1553  0.8199 -0.3000
  172SOPE  H13X19523   5.630   1.816   8.343  0.4051  0.6517 -0.5380
  172SOPE  H13Y19524   5.604   1.991   8.301 -2.0522 -1.7530 -1.8531
  172SOPE  C31419525   5.738   1.938   8.469 -0.4571 -0.0768 -0.1193
  172SOPE  H14X19526   5.762   2.046   8.471 -2.4798  0.4077 -1.0606
  172SOPE  H14Y19527   5.830   1.876   8.480 -1.9665 -3.6598 -5.6343
  172SOPE  C31519528   5.639   1.906   8.576 -0.1807  0.0132 -0.5259
  172SOPE  H15X19529   5.632   1.796   8.567  1.1450  0.1016 -3.3253
  172SOPE  H15Y19530   5.539   1.948   8.554 -0.1744  0.3568  0.0784
  172SOPE  C31619531   5.688   1.938   8.715 -0.4482 -0.0493 -0.2147
  172SOPE  H16X19532   5.602   1.910   8.780 -0.0689 -0.2831  0.1923
  172SOPE  H16Y19533   5.730   2.040   8.723  1.8235 -1.0077  0.6961
  172SOPE  C31719534   5.801   1.851   8.773 -0.2440  0.3475  0.0741
  172SOPE  H17X19535   5.791   1.849   8.884  1.1909 -1.9387  0.1957
  172SOPE  H17Y19536   5.902   1.895   8.763  0.2893 -1.0932 -1.0273
  172SOPE  C31819537   5.801   1.705   8.729 -0.8283  0.6527 -0.1801
  172SOPE  H18X19538   5.702   1.662   8.753 -0.2237  0.4789  2.1461
  172SOPE  H18Y19539   5.879   1.644   8.780 -1.9358 -1.7019 -1.2596
  172SOPE  H18Z19540   5.825   1.699   8.621  1.1536  1.4935  0.1858
  173SAPI   C1219541   6.740   6.253  10.977  0.1944 -0.3312 -0.0198
  173SAPI    H219542   6.755   6.228  10.870  1.4414  0.4310 -0.0331
  173SAPI    O219543   6.635   6.347  10.981  0.2592 -0.3104 -0.3053
  173SAPI   HO219544   6.558   6.319  10.930  0.2355  0.0013 -0.4461
  173SAPI   C1319545   6.711   6.116  11.046 -0.8645  0.2493  0.5218
  173SAPI    H319546   6.795   6.050  11.017 -0.9596 -0.1889  1.2319
  173SAPI    O319547   6.590   6.052  11.002 -0.3629  0.5754 -0.0068
  173SAPI   HO319548   6.521   6.118  11.001 -0.1753  0.7918 -2.0687
  173SAPI   C1419549   6.709   6.135  11.203  0.0933  0.6566  0.4161
  173SAPI    H419550   6.623   6.204  11.214  0.8611  1.9541 -1.4889
  173SAPI    O419551   6.682   6.008  11.272  0.0814 -0.2010  0.4752
  173SAPI   HO419552   6.632   6.019  11.353  0.9127 -0.3003  1.0041
  173SAPI   C1519553   6.834   6.205  11.260 -0.1996  0.1135  0.1914
  173SAPI    H519554   6.911   6.126  11.248 -0.9497 -0.6494  0.2902
  173SAPI    O519555   6.811   6.224  11.400 -0.8802  0.6660 -0.6176
  173SAPI   HO519556   6.891   6.192  11.442 -1.0826  0.3617 -0.4615
  173SAPI   C1619557   6.863   6.337  11.186 -0.2998  0.2418 -0.2988
  173SAPI    H619558   6.781   6.409  11.207 -0.6758 -0.3391  0.2280
  173SAPI    O619559   6.987   6.395  11.236 -0.0101 -0.0568  0.1594
  173SAPI   HO619560   7.016   6.454  11.167 -2.3691  0.2878 -0.5768
  173SAPI   C1119561   6.875   6.308  11.036  0.4722 -0.1104  0.6025
  173SAPI    H119562   6.958   6.234  11.027  1.2427  1.1324 -3.4334
  173SAPI     P19563   7.060   6.449  10.892  0.2322  0.3619  0.2020
  173SAPI   O1319564   7.159   6.411  10.995  0.2386 -0.2597 -0.3047
  173SAPI   O1419565   7.055   6.583  10.835 -0.8936  0.4319 -0.0476
  173SAPI   O1219566   6.909   6.416  10.954  0.3700 -0.4302 -0.1847
  173SAPI   O1119567   7.073   6.341  10.774  0.2445  0.3023  0.0039
  173SAPI    C119568   6.966   6.313  10.684  0.8682 -0.1912 -0.2872
  173SAPI    HA19569   6.934   6.208  10.701 -1.8485  1.0192  2.4200
  173SAPI    HB19570   6.875   6.372  10.707 -0.1271 -1.2257 -1.4503
  173SAPI    C219571   6.997   6.347  10.539 -0.2449 -0.1852  0.1651
  173SAPI    HS19572   7.090   6.287  10.531 -1.6207 -2.9057  3.4762
  173SAPI   O2119573   7.019   6.492  10.529  0.4538 -0.4699  0.1910
  173SAPI   C2119574   7.071   6.544  10.420  0.6131 -0.1557  0.9152
  173SAPI   O2219575   7.102   6.479  10.319  0.1089 -0.2412 -0.3974
  173SAPI   C2219576   7.095   6.702  10.441  0.8735 -1.2752  0.1329
  173SAPI   H2R19577   7.014   6.757  10.494  1.8305  1.2805 -0.9654
  173SAPI   H2S19578   7.189   6.704  10.500  0.8304 -1.8381  0.2253
  173SAPI    C319579   6.880   6.292  10.455  0.4577  0.0629 -0.0094
  173SAPI    HX19580   6.781   6.339  10.472 -0.5258 -1.4773 -1.4093
  173SAPI    HY19581   6.864   6.188  10.490 -1.4523 -0.4543 -2.3261
  173SAPI   O3119582   6.904   6.298  10.309 -0.7213 -0.5072 -0.9864
  173SAPI   C3119583   6.996   6.210  10.257  0.0553 -0.0930  0.2917
  173SAPI   O3219584   7.047   6.115  10.314 -0.3636  0.1042 -0.4441
  173SAPI   C3219585   6.983   6.225  10.104  0.2053  0.4096  0.5574
  173SAPI   H2X19586   6.920   6.312  10.075  0.5241  0.0340 -1.3489
  173SAPI   H2Y19587   6.921   6.143  10.062 -1.6800  0.6111  2.8722
  173SAPI   C2319588   7.118   6.779  10.300 -0.1406 -0.0834 -0.5703
  173SAPI   H3R19589   7.177   6.716  10.230 -0.0898  0.4568 -1.0161
  173SAPI   H3S19590   7.182   6.867  10.321  0.7789 -0.9373  0.2677
  173SAPI   C2419591   6.988   6.822  10.230  1.0268  1.2440  0.0673
  173SAPI   H4R19592   7.020   6.891  10.149  0.9841  1.2055  0.0185
  173SAPI   H4S19593   6.919   6.878  10.297  1.4951  1.5233  0.3191
  173SAPI   C2519594   6.916   6.708  10.163  0.4095 -0.4299  0.8117
  173SAPI   H5R19595   6.822   6.677  10.212 -0.4108  0.4676 -0.1751
  173SAPI   C2619596   6.953   6.642  10.052  0.7586 -0.1056 -0.7333
  173SAPI   H6R19597   6.888   6.562  10.012  0.5496  0.3433 -1.2929
  173SAPI   C2719598   7.080   6.652   9.967 -0.3319 -0.2620  0.1336
  173SAPI   H7R19599   7.080   6.567   9.896  1.2687  0.6317 -0.9573
  173SAPI   H7S19600   7.165   6.634  10.036 -0.7438  0.2433  0.7805
  173SAPI   C2819601   7.098   6.784   9.885  0.3721  0.0356  0.1619
  173SAPI   H8R19602   7.079   6.867   9.954  0.7965  1.0901 -0.9836
  173SAPI   C2919603   7.127   6.805   9.757 -0.6610 -0.4556  0.6791
  173SAPI   H9R19604   7.141   6.909   9.725  1.3393 -0.1031  2.5177
  173SAPI  C21019605   7.151   6.706   9.647 -0.6343  0.4621 -0.0185
  173SAPI  H10R19606   7.076   6.736   9.570 -0.2611  0.4189 -0.3965
  173SAPI  H10S19607   7.137   6.600   9.678 -0.6217  0.2330 -0.7773
  173SAPI  C21119608   7.291   6.718   9.589  0.3041 -0.5635 -0.6515
  173SAPI  H11R19609   7.371   6.679   9.654  1.1135  0.9444 -0.7265
  173SAPI  C21219610   7.319   6.757   9.467 -0.4585 -0.0908 -0.1634
  173SAPI  H12R19611   7.426   6.760   9.442 -0.0766 -3.2834  0.8506
  173SAPI  C21319612   7.217   6.800   9.362 -0.0704  0.5183 -0.6110
  173SAPI  H13R19613   7.284   6.851   9.290  0.0226  0.3313 -0.6547
  173SAPI  H13S19614   7.145   6.877   9.398 -1.5948 -0.6360 -1.0868
  173SAPI  C21419615   7.130   6.688   9.303  0.2795 -0.0418  0.3573
  173SAPI  H14R19616   7.060   6.626   9.361  0.3787 -0.1455  0.3650
  173SAPI  C21519617   7.147   6.646   9.169 -0.2364  0.2700 -0.0237
  173SAPI  H15R19618   7.089   6.560   9.136  0.5203  0.3093 -1.4983
  173SAPI  C21619619   7.233   6.705   9.065  0.1506 -0.5435  0.2345
  173SAPI  H16R19620   7.320   6.760   9.107  0.9134 -0.1946 -1.7402
  173SAPI  H16S19621   7.169   6.780   9.013  2.7178  1.3498 -0.3215
  173SAPI  C21719622   7.272   6.601   8.953 -0.4194  0.0634 -0.4450
  173SAPI  H17R19623   7.181   6.556   8.908 -0.4431 -1.9512  1.5378
  173SAPI  H17S19624   7.338   6.522   8.995  0.7978  1.7510  0.9341
  173SAPI  C21819625   7.357   6.664   8.828  0.0620  0.0397  0.1730
  173SAPI  H18R19626   7.463   6.643   8.850 -0.6758 -3.9720  0.3260
  173SAPI  H18S19627   7.329   6.771   8.829  1.1651  0.3133  1.7265
  173SAPI  C21919628   7.324   6.602   8.694  0.0793  0.4657  0.6644
  173SAPI  H19R19629   7.218   6.634   8.680 -0.5443 -0.8500  2.2744
  173SAPI  H19S19630   7.325   6.491   8.692 -0.2697  0.4688 -0.3342
  173SAPI  C22019631   7.405   6.653   8.574  0.0009 -0.2451  0.0752
  173SAPI  H20R19632   7.512   6.633   8.596  0.8434  1.9170 -1.7870
  173SAPI  H20S19633   7.396   6.764   8.568  1.2542 -0.0117  2.1237
  173SAPI  H20T19634   7.384   6.611   8.474 -1.9070  0.0944  0.3173
  173SAPI   C3319635   7.116   6.238  10.019 -0.9199 -0.2856 -0.0029
  173SAPI   H3X19636   7.168   6.140  10.020 -1.2587 -0.4578  2.4950
  173SAPI   H3Y19637   7.179   6.300  10.087 -2.5404 -0.0211  1.2701
  173SAPI   C3419638   7.101   6.276   9.875 -0.0972 -0.5355 -0.7290
  173SAPI   H4X19639   7.190   6.340   9.859  1.0632 -2.0835 -0.5533
  173SAPI   H4Y19640   7.013   6.340   9.854  0.5063 -0.3682 -2.8274
  173SAPI   C3519641   7.095   6.156   9.786 -0.1265  0.5665 -0.3263
  173SAPI   H5X19642   6.994   6.111   9.795  0.4350 -1.1898 -2.2409
  173SAPI   H5Y19643   7.164   6.077   9.823 -1.7022 -1.2052 -1.0129
  173SAPI   C3619644   7.124   6.186   9.638 -0.7244 -0.1851 -0.5743
  173SAPI   H6X19645   7.111   6.086   9.591  0.8522  0.8238 -3.3334
  173SAPI   H6Y19646   7.230   6.219   9.631 -0.8501  0.4834  0.6156
  173SAPI   C3719647   7.039   6.302   9.584  0.0963 -0.4669  0.6747
  173SAPI   H7X19648   7.065   6.390   9.646  0.1688  0.5805 -0.8165
  173SAPI   H7Y19649   6.932   6.275   9.571  0.7477 -2.6240 -0.4503
  173SAPI   C3819650   7.073   6.339   9.440 -0.3008 -0.0999 -0.2505
  173SAPI   H8X19651   7.172   6.388   9.446  0.7887 -2.1607 -0.8761
  173SAPI   H8Y19652   7.005   6.421   9.408  0.6920  1.8229  2.4256
  173SAPI   C3919653   7.085   6.226   9.333  0.3770 -0.0163 -0.6357
  173SAPI   H9X19654   6.991   6.168   9.344  1.7309 -2.0128  0.7673
  173SAPI   H9Y19655   7.173   6.162   9.354 -0.3140 -0.5123  0.8285
  173SAPI  C31019656   7.090   6.278   9.190  0.5458  0.3836 -0.0576
  173SAPI  H10X19657   7.162   6.362   9.177  0.3090  0.4306 -1.1165
  173SAPI  H10Y19658   6.992   6.323   9.161 -0.0907 -1.2706 -0.4893
  173SAPI  C31119659   7.115   6.169   9.088  0.1764 -0.4671  0.8170
  173SAPI  H11X19660   7.024   6.106   9.097  1.3114 -1.9822  1.8473
  173SAPI  H11Y19661   7.196   6.105   9.129  1.1197  0.5768  0.6144
  173SAPI  C31219662   7.141   6.236   8.957  0.1271 -0.3712 -0.0086
  173SAPI  H12X19663   7.232   6.299   8.966 -0.5445  0.4621  1.0558
  173SAPI  H12Y19664   7.058   6.304   8.927  1.4110  0.7770 -1.0719
  173SAPI  C31319665   7.156   6.129   8.846  0.0095  0.5046 -0.0367
  173SAPI  H13X19666   7.083   6.049   8.868  1.7976 -1.3597 -0.6980
  173SAPI  H13Y19667   7.256   6.082   8.860  0.0576  0.3747 -0.7780
  173SAPI  C31419668   7.140   6.175   8.698  0.0310 -0.0479  0.1248
  173SAPI  H14X19669   7.142   6.088   8.629 -2.2923  0.4207 -0.5645
  173SAPI  H14Y19670   7.229   6.241   8.685  0.9616 -1.3653 -0.2971
  173SAPI  C31519671   7.014   6.250   8.644  0.1115  0.6954 -0.2919
  173SAPI  H15X19672   7.000   6.258   8.534 -1.0391 -2.4944 -0.4348
  173SAPI  H15Y19673   7.020   6.354   8.683  1.3417  0.6834 -0.4084
  173SAPI  C31619674   6.887   6.188   8.693  0.1547 -0.0703  0.0244
  173SAPI  H16X19675   6.871   6.198   8.803  0.0606  2.4261 -0.1801
  173SAPI  H16Y19676   6.884   6.083   8.656  0.5023  0.1029 -0.4855
  173SAPI  C31719677   6.771   6.268   8.619  0.1480  0.4064  0.2783
  173SAPI  H17X19678   6.811   6.299   8.520  2.8231  2.0425  1.8159
  173SAPI  H17Y19679   6.745   6.354   8.683  0.6593  0.0883  0.9162
  173SAPI  C31819680   6.643   6.184   8.610 -0.7247 -0.1616  0.2879
  173SAPI  H18X19681   6.653   6.116   8.523  5.2428 -1.4229  1.7488
  173SAPI  H18Y19682   6.555   6.252   8.607  0.7649  1.7668 -0.1598
  173SAPI  H18Z19683   6.630   6.122   8.702 -1.6321 -0.3443  0.0406
  174SAPI   C1219684   3.257   0.346  11.066  1.2657 -0.5059  0.4856
  174SAPI    H219685   3.225   0.298  10.972 -1.7677 -1.5303  1.9635
  174SAPI    O219686   3.375   0.436  11.045 -0.1410 -0.0946 -0.4508
  174SAPI   HO219687   3.454   0.401  11.088  0.0681  1.5568  0.5404
  174SAPI   C1319688   3.136   0.416  11.131  0.3941  0.1272  0.2520
  174SAPI    H319689   3.048   0.349  11.140 -1.4878  2.4673 -0.2238
  174SAPI    O319690   3.086   0.518  11.039  0.0756 -0.2486 -0.1334
  174SAPI   HO319691   3.150   0.578  11.001 -1.3115  0.9154 -0.7184
  174SAPI   C1419692   3.168   0.473  11.265  0.5878  1.2453 -0.0943
  174SAPI    H419693   3.252   0.545  11.262  0.0124  1.9728  0.7231
  174SAPI    O419694   3.052   0.535  11.320 -0.2342  0.3360 -0.1101
  174SAPI   HO419695   2.980   0.475  11.342  0.2930 -0.6546 -1.0201
  174SAPI   C1519696   3.217   0.359  11.357  0.0865 -0.4752 -0.1776
  174SAPI    H519697   3.136   0.283  11.364  0.2375 -0.7670 -1.4601
  174SAPI    O519698   3.239   0.399  11.487 -0.5789 -0.1801 -0.5458
  174SAPI   HO519699   3.162   0.367  11.535 -0.8689 -2.5407 -2.5107
  174SAPI   C1619700   3.339   0.288  11.301  0.0060  0.0059 -0.4782
  174SAPI    H619701   3.428   0.355  11.301  0.2016 -0.2363 -1.6071
  174SAPI    O619702   3.377   0.175  11.376 -0.5768 -0.5467 -0.8800
  174SAPI   HO619703   3.404   0.112  11.309  1.0738  0.8264 -1.5197
  174SAPI   C1119704   3.307   0.236  11.159 -0.4917 -0.3528  0.2068
  174SAPI    H119705   3.221   0.168  11.176 -0.7323  0.0262  0.4939
  174SAPI     P19706   3.386   0.039  10.977 -0.0881  0.0115  0.1608
  174SAPI   O1319707   3.268  -0.039  11.022 -0.0305 -0.1378  0.5412
  174SAPI   O1419708   3.516  -0.034  10.951  0.3173 -0.4972 -0.4603
  174SAPI   O1219709   3.407   0.153  11.091  0.2214 -0.4232 -0.1028
  174SAPI   O1119710   3.348   0.126  10.855 -0.7105 -0.0296  0.3077
  174SAPI    C119711   3.444   0.216  10.801  0.8817  0.1064  0.3672
  174SAPI    HA19712   3.463   0.297  10.875  0.9771  0.6609 -0.2562
  174SAPI    HB19713   3.535   0.161  10.772  0.4315 -0.5831  0.2478
  174SAPI    C219714   3.395   0.288  10.666 -0.0074 -0.1235  0.2007
  174SAPI    HS19715   3.309   0.355  10.691  1.1783  0.9209  1.6022
  174SAPI   O2119716   3.355   0.188  10.570 -0.4491  0.3155  0.4911
  174SAPI   C2119717   3.221   0.172  10.568 -0.6311 -0.1487  0.5102
  174SAPI   O2219718   3.137   0.215  10.648  0.1910  0.0718  0.3352
  174SAPI   C2219719   3.194   0.085  10.445  0.2114 -0.0814 -1.0178
  174SAPI   H2R19720   3.287   0.050  10.397  1.1069  1.8394 -0.7288
  174SAPI   H2S19721   3.147  -0.010  10.480  1.6232 -0.7132 -0.8303
  174SAPI    C319722   3.515   0.374  10.617  0.2611  0.8333  0.1133
  174SAPI    HX19723   3.599   0.303  10.604  0.3962  0.8263  1.0263
  174SAPI    HY19724   3.526   0.454  10.693  0.6392  0.6064  0.2989
  174SAPI   O3119725   3.481   0.427  10.485  0.4003 -0.2004  0.1490
  174SAPI   C3119726   3.403   0.536  10.487  0.2033 -0.2199  0.3032
  174SAPI   O3219727   3.346   0.587  10.585 -0.2448 -0.1277  0.1389
  174SAPI   C3219728   3.400   0.599  10.347  0.8691 -0.0774 -0.7463
  174SAPI   H2X19729   3.331   0.549  10.275  0.1859 -2.5699  1.5632
  174SAPI   H2Y19730   3.501   0.581  10.304  0.0518 -3.6007 -1.3783
  174SAPI   C2319731   3.104   0.152  10.343 -0.0065  0.5358  0.4161
  174SAPI   H3R19732   3.001   0.157  10.383 -1.3241 -1.0336 -2.6795
  174SAPI   H3S19733   3.098   0.102  10.244 -1.2198  0.4257  0.5450
  174SAPI   C2419734   3.158   0.285  10.298  0.0182 -0.2100 -0.2287
  174SAPI   H4R19735   3.153   0.349  10.389  0.2278  2.0521 -1.7668
  174SAPI   H4S19736   3.089   0.336  10.227  0.9603  1.4379  0.0047
  174SAPI   C2519737   3.305   0.276  10.244 -0.1714  0.1473 -0.3363
  174SAPI   H5R19738   3.384   0.286  10.319 -1.0034  0.6835  0.4860
  174SAPI   C2619739   3.331   0.244  10.115 -0.2511  0.2191  0.1240
  174SAPI   H6R19740   3.437   0.227  10.089  0.3344  2.6011  0.8294
  174SAPI   C2719741   3.232   0.231   9.999 -0.3613  0.3709 -0.5934
  174SAPI   H7R19742   3.220   0.326   9.942 -0.6794  0.1231 -0.9483
  174SAPI   H7S19743   3.135   0.205  10.047 -0.3100  1.9447  0.3964
  174SAPI   C2819744   3.259   0.124   9.903  0.7915  0.2096 -0.1165
  174SAPI   H8R19745   3.317   0.044   9.951  1.1555 -1.4641 -3.2035
  174SAPI   C2919746   3.210   0.116   9.776  0.2292 -0.0718 -0.0761
  174SAPI   H9R19747   3.224   0.029   9.710 -0.5941 -0.4130  0.1872
  174SAPI  C21019748   3.125   0.232   9.718 -0.4723 -0.3067  0.2257
  174SAPI  H10R19749   3.054   0.267   9.796 -0.6863 -1.1985  0.4364
  174SAPI  H10S19750   3.046   0.194   9.649 -0.3748  1.0977 -0.6940
  174SAPI  C21119751   3.199   0.348   9.659  0.0980  0.4195  0.0020
  174SAPI  H11R19752   3.240   0.422   9.729  0.8251 -1.5955  1.7636
  174SAPI  C21219753   3.218   0.369   9.526  0.0538 -0.4256  0.7169
  174SAPI  H12R19754   3.278   0.454   9.493  1.1391 -1.3108  0.3693
  174SAPI  C21319755   3.176   0.280   9.409 -0.4176  0.5991  0.6934
  174SAPI  H13R19756   3.131   0.344   9.331  2.2239  1.6682 -0.0263
  174SAPI  H13S19757   3.095   0.211   9.441  0.3002 -1.8556 -2.6006
  174SAPI  C21419758   3.299   0.195   9.358  0.2299 -0.3940 -0.1529
  174SAPI  H14R19759   3.340   0.132   9.438 -1.3026 -1.2027  0.0278
  174SAPI  C21519760   3.370   0.201   9.245  0.0134  0.3878 -0.0334
  174SAPI  H15R19761   3.458   0.134   9.245 -1.1690 -1.2064  0.0893
  174SAPI  C21619762   3.351   0.294   9.128 -0.6732  0.6040 -0.5238
  174SAPI  H16R19763   3.453   0.332   9.105  0.6371 -2.6196 -0.2648
  174SAPI  H16S19764   3.286   0.383   9.146 -0.0960  1.0209 -0.4619
  174SAPI  C21719765   3.294   0.210   9.017  0.0294 -0.1547  0.3635
  174SAPI  H17R19766   3.257   0.285   8.944  3.4499  2.2019  0.9378
  174SAPI  H17S19767   3.203   0.160   9.056  1.0698 -1.9141  0.5751
  174SAPI  C21819768   3.392   0.112   8.948 -0.0647 -0.0023  0.1946
  174SAPI  H18R19769   3.436   0.031   9.009  3.4606  0.9723 -0.9351
  174SAPI  H18S19770   3.471   0.183   8.914 -0.3292 -0.6000 -1.7405
  174SAPI  C21919771   3.330   0.042   8.828 -0.4019  0.6731 -0.7905
  174SAPI  H19R19772   3.293   0.122   8.761 -1.0208  4.0856  3.3799
  174SAPI  H19S19773   3.238  -0.005   8.867  0.1697 -0.1507 -0.4079
  174SAPI  C22019774   3.415  -0.050   8.750  0.1198 -0.2911  0.1378
  174SAPI  H20R19775   3.504   0.009   8.717  0.8263 -0.7594  1.1766
  174SAPI  H20S19776   3.367  -0.095   8.661 -0.7331  0.3814  0.2454
  174SAPI  H20T19777   3.456  -0.134   8.810 -1.3847 -1.5907 -0.6290
  174SAPI   C3319778   3.370   0.755  10.349  0.0114  0.7804 -0.5817
  174SAPI   H3X19779   3.422   0.795  10.439 -2.7911 -0.8895  1.8771
  174SAPI   H3Y19780   3.262   0.759  10.376  0.3903  2.2441  0.7930
  174SAPI   C3419781   3.403   0.821  10.205 -0.0586  0.2620 -0.8166
  174SAPI   H4X19782   3.514   0.827  10.199  0.0242 -1.9933 -1.9604
  174SAPI   H4Y19783   3.369   0.926  10.218  0.7462  0.4142  0.1697
  174SAPI   C3519784   3.353   0.755  10.071  0.0297  0.1020  0.2708
  174SAPI   H5X19785   3.243   0.745  10.072  0.1680 -1.5845 -0.0722
  174SAPI   H5Y19786   3.392   0.653  10.050 -0.5988 -0.0797 -0.0161
  174SAPI   C3619787   3.383   0.837   9.950 -0.1693  0.4008 -0.1834
  174SAPI   H6X19788   3.490   0.866   9.945  0.5390 -1.5713  2.2021
  174SAPI   H6Y19789   3.327   0.933   9.944  2.3620  1.9581  0.4237
  174SAPI   C3719790   3.366   0.757   9.818 -0.0470  0.0398 -0.1105
  174SAPI   H7X19791   3.268   0.706   9.817  0.3220 -0.6562 -0.9655
  174SAPI   H7Y19792   3.440   0.675   9.821  0.1986  0.1638 -2.4558
  174SAPI   C3819793   3.374   0.843   9.703 -0.2014 -0.3077  0.4060
  174SAPI   H8X19794   3.478   0.881   9.697 -0.1524 -0.4444  0.3791
  174SAPI   H8Y19795   3.319   0.939   9.713  0.0814 -0.1820  0.7669
  174SAPI   C3919796   3.332   0.774   9.567 -0.0108 -0.1137  0.0934
  174SAPI   H9X19797   3.238   0.714   9.570 -1.7509  2.5307  0.2075
  174SAPI   H9Y19798   3.408   0.702   9.529  1.0885  1.6769 -1.1298
  174SAPI  C31019799   3.327   0.879   9.450 -0.0201  0.4890 -0.1134
  174SAPI  H10X19800   3.429   0.922   9.455 -0.4333  1.3696  0.7970
  174SAPI  H10Y19801   3.249   0.957   9.462  0.7226  1.4055 -1.1299
  174SAPI  C31119802   3.320   0.820   9.315  0.3740  0.2341  0.6035
  174SAPI  H11X19803   3.420   0.775   9.294  0.8770  0.8842  1.5861
  174SAPI  H11Y19804   3.294   0.899   9.241 -3.6901 -0.1133  1.5445
  174SAPI  C31219805   3.205   0.717   9.299  1.1877  0.3541 -0.6008
  174SAPI  H12X19806   3.122   0.762   9.357  1.5013 -0.0741  0.1923
  174SAPI  H12Y19807   3.230   0.631   9.365  0.0022  2.1535  2.3179
  174SAPI  C31319808   3.164   0.671   9.155  0.2973 -0.6749 -0.0023
  174SAPI  H13X19809   3.057   0.640   9.163  0.8009 -1.9518  2.0280
  174SAPI  H13Y19810   3.226   0.587   9.117  3.3443  1.0975  0.9658
  174SAPI  C31419811   3.172   0.783   9.042 -0.3415  0.5029 -0.5914
  174SAPI  H14X19812   3.281   0.794   9.025 -0.4739  2.1295 -0.4317
  174SAPI  H14Y19813   3.135   0.880   9.081  1.1459  0.5074  0.8560
  174SAPI  C31519814   3.101   0.741   8.917  0.1183 -0.0865 -0.2223
  174SAPI  H15X19815   3.095   0.822   8.841 -2.6282  0.2528  0.3072
  174SAPI  H15Y19816   2.997   0.718   8.948 -0.2340 -0.2005 -1.4621
  174SAPI  C31619817   3.169   0.616   8.847  0.3683  0.0206 -0.0571
  174SAPI  H16X19818   3.187   0.546   8.931  1.8143  2.4756  1.7638
  174SAPI  H16Y19819   3.274   0.646   8.826  1.0938 -1.5055  1.3257
  174SAPI  C31719820   3.090   0.563   8.727  0.2917  0.8129  0.4983
  174SAPI  H17X19821   3.090   0.643   8.650 -0.1085  0.0063 -0.3578
  174SAPI  H17Y19822   2.985   0.540   8.754  0.5519 -2.1895 -0.7725
  174SAPI  C31819823   3.169   0.451   8.670  0.0522 -0.0888 -0.0279
  174SAPI  H18X19824   3.260   0.476   8.611  0.3732  0.4140  0.6818
  174SAPI  H18Y19825   3.102   0.394   8.602  0.2629  0.6311 -0.8490
  174SAPI  H18Z19826   3.205   0.374   8.742  0.0739 -0.8838 -0.8827
  175SAPI   C1219827   5.767   5.776   5.845  0.2087 -0.0371 -0.3299
  175SAPI    H219828   5.877   5.782   5.855  0.4250  2.4702 -3.2994
  175SAPI    O219829   5.717   5.906   5.899  0.1818  0.1096  0.0098
  175SAPI   HO219830   5.793   5.947   5.941  0.1271  1.4939 -1.1797
  175SAPI   C1319831   5.736   5.762   5.697  1.1512  0.2216 -0.3853
  175SAPI    H319832   5.785   5.672   5.655  0.4632 -0.7390  0.8597
  175SAPI    O319833   5.793   5.873   5.624 -0.4071 -0.1499  0.2174
  175SAPI   HO319834   5.765   5.959   5.656  0.0611  0.1403 -0.1504
  175SAPI   C1419835   5.586   5.754   5.666 -0.4019  0.1119 -0.3941
  175SAPI    H419836   5.542   5.852   5.696  2.3461  1.3921 -0.2939
  175SAPI    O419837   5.563   5.736   5.525 -0.1055  0.1726  0.5932
  175SAPI   HO419838   5.470   5.745   5.502  0.2166  1.9395 -0.0997
  175SAPI   C1519839   5.518   5.644   5.759 -0.2850 -0.0678 -0.0913
  175SAPI    H519840   5.551   5.541   5.734 -2.4996 -1.6532  3.1889
  175SAPI    O519841   5.379   5.633   5.727 -0.0955 -0.1167  0.0585
  175SAPI   HO519842   5.360   5.546   5.691 -1.1760 -0.3416  1.1528
  175SAPI   C1619843   5.553   5.670   5.903  0.6387 -0.1401  0.8938
  175SAPI    H619844   5.526   5.773   5.935 -1.8718 -0.1814 -0.8939
  175SAPI    O619845   5.482   5.573   5.979 -0.5230  0.0887 -0.2208
  175SAPI   HO619846   5.400   5.618   5.999 -1.1821 -0.3675 -1.8288
  175SAPI   C1119847   5.704   5.664   5.925  0.2822 -0.6071  0.3072
  175SAPI    H119848   5.735   5.565   5.886  3.2419  0.3246  0.2194
  175SAPI     P19849   5.860   5.628   6.149 -0.4308  0.5216 -0.0248
  175SAPI   O1319850   5.902   5.734   6.246 -0.4015  0.4684 -0.0098
  175SAPI   O1419851   5.960   5.584   6.052  0.0258 -0.0863  0.5497
  175SAPI   O1219852   5.729   5.682   6.059 -0.5179 -0.1163 -0.8147
  175SAPI   O1119853   5.816   5.501   6.233 -0.2861 -0.2675  0.2850
  175SAPI    C119854   5.684   5.517   6.293 -1.1648 -0.0383 -0.8030
  175SAPI    HA19855   5.676   5.607   6.358  1.2574  0.1756 -0.7777
  175SAPI    HB19856   5.600   5.512   6.221 -2.1073 -2.3502  0.3733
  175SAPI    C219857   5.674   5.396   6.399 -0.1835  0.5636 -0.7050
  175SAPI    HS19858   5.573   5.409   6.444  0.3713 -0.2792  0.8375
  175SAPI   O2119859   5.777   5.396   6.505  0.0903 -0.8653 -0.1605
  175SAPI   C2119860   5.752   5.478   6.602 -0.4152 -0.8520 -0.4572
  175SAPI   O2219861   5.653   5.549   6.604  0.5378 -0.1302 -0.1715
  175SAPI   C2219862   5.860   5.460   6.718 -0.7737 -1.0645 -0.9587
  175SAPI   H2R19863   5.854   5.359   6.764  0.0998 -0.8589 -0.3837
  175SAPI   H2S19864   5.955   5.449   6.662  0.1567 -0.3781  0.4478
  175SAPI    C319865   5.665   5.259   6.334  0.4643  0.6568 -0.1026
  175SAPI    HX19866   5.758   5.255   6.274 -0.4038  2.8704 -1.6324
  175SAPI    HY19867   5.580   5.259   6.263  1.7866 -1.7837 -1.7601
  175SAPI   O3119868   5.666   5.155   6.437 -0.1736  0.2128  0.1340
  175SAPI   C3119869   5.551   5.133   6.501 -0.4299  0.6926  0.8941
  175SAPI   O3219870   5.451   5.203   6.482  0.2475 -0.7006  0.1453
  175SAPI   C3219871   5.558   5.019   6.604  0.7809 -1.2298 -0.0947
  175SAPI   H2X19872   5.594   4.929   6.549 -1.8599 -1.8691 -0.8622
  175SAPI   H2Y19873   5.452   5.017   6.636 -0.2343 -2.4146 -3.3433
  175SAPI   C2319874   5.860   5.569   6.825 -0.3556 -0.5304  0.0354
  175SAPI   H3R19875   5.765   5.548   6.879 -0.3343  0.2016  0.3678
  175SAPI   H3S19876   5.850   5.669   6.776  0.9393 -1.2854 -1.7916
  175SAPI   C2419877   5.985   5.579   6.911 -0.0774  0.3924  0.1323
  175SAPI   H4R19878   6.071   5.592   6.842  0.3416  1.0591  0.7632
  175SAPI   H4S19879   6.003   5.483   6.964  1.5398  0.4895 -0.2070
  175SAPI   C2519880   5.963   5.688   7.017  0.4580 -0.5556 -0.9152
  175SAPI   H5R19881   5.964   5.792   6.979  0.1305 -0.2266 -0.0474
  175SAPI   C2619882   5.929   5.666   7.145 -0.0390  0.1791 -0.4442
  175SAPI   H6R19883   5.918   5.752   7.212 -0.6858 -0.1012 -0.1903
  175SAPI   C2719884   5.895   5.534   7.207 -0.1128  0.6990 -0.2123
  175SAPI   H7R19885   5.842   5.469   7.136  1.1327 -0.2158 -0.3252
  175SAPI   H7S19886   5.822   5.543   7.291 -2.3384  0.3713 -2.0651
  175SAPI   C2819887   6.016   5.466   7.260 -0.8998  0.1765 -0.9206
  175SAPI   H8R19888   6.055   5.387   7.195 -0.1318 -1.5067  1.5362
  175SAPI   C2919889   6.058   5.471   7.389 -0.7380  0.5012 -0.4763
  175SAPI   H9R19890   6.155   5.423   7.410 -0.4703  0.5547 -1.5322
  175SAPI  C21019891   5.999   5.540   7.511 -0.1031  0.2787 -0.2410
  175SAPI  H10R19892   5.943   5.462   7.567 -1.1094  0.5632 -0.8241
  175SAPI  H10S19893   5.923   5.612   7.472 -1.8356 -0.1999  2.1537
  175SAPI  C21119894   6.089   5.617   7.604  0.5118  0.4524 -0.0007
  175SAPI  H11R19895   6.130   5.710   7.563  1.9386  0.4709  1.4282
  175SAPI  C21219896   6.146   5.560   7.711  0.1691  0.0300  0.1847
  175SAPI  H12R19897   6.207   5.618   7.780 -0.2158 -1.3049  1.6804
  175SAPI  C21319898   6.129   5.418   7.753 -1.0074  0.1806 -0.6651
  175SAPI  H13R19899   6.172   5.352   7.674  1.2518 -2.0342  2.3170
  175SAPI  H13S19900   6.020   5.401   7.762 -1.1499  1.9270  1.4345
  175SAPI  C21419901   6.213   5.386   7.876 -0.0670 -0.2621 -0.6139
  175SAPI  H14R19902   6.320   5.384   7.850  0.2841 -0.8448  0.7751
  175SAPI  C21519903   6.189   5.367   8.007 -0.3867  0.5383 -0.5930
  175SAPI  H15R19904   6.277   5.342   8.068 -0.7729 -1.3105 -0.7829
  175SAPI  C21619905   6.053   5.359   8.073 -0.2060  0.0145 -0.5833
  175SAPI  H16R19906   6.043   5.263   8.128  2.4081  0.5664  0.9498
  175SAPI  H16S19907   5.972   5.354   7.997  0.6299  2.4856 -1.7117
  175SAPI  C21719908   6.009   5.470   8.159  0.1346  0.0101 -0.0812
  175SAPI  H17R19909   5.908   5.457   8.204  0.8428 -0.4828  1.3920
  175SAPI  H17S19910   6.006   5.567   8.104  0.0652  0.3433  0.5053
  175SAPI  C21819911   6.110   5.496   8.277  0.8447  0.4903 -0.1264
  175SAPI  H18R19912   6.087   5.599   8.311  1.5709  0.0119  1.9031
  175SAPI  H18S19913   6.213   5.500   8.236  0.5513 -0.3252 -0.9481
  175SAPI  C21919914   6.100   5.398   8.400  0.0049 -0.3595  0.1219
  175SAPI  H19R19915   6.197   5.393   8.455 -0.7561 -2.4256  1.3370
  175SAPI  H19S19916   6.071   5.297   8.362  1.6203 -0.6238 -0.4571
  175SAPI  C22019917   6.000   5.454   8.494 -0.0850 -0.1129 -1.1273
  175SAPI  H20R19918   6.024   5.555   8.532 -4.4368  1.3285 -1.9116
  175SAPI  H20S19919   5.990   5.385   8.581  1.5513  0.9703 -0.0631
  175SAPI  H20T19920   5.900   5.450   8.445 -1.2935  2.8132  0.9520
  175SAPI   C3319921   5.664   5.060   6.703  0.2601  0.5965  0.1029
  175SAPI   H3X19922   5.659   5.161   6.748  2.0953  0.0251  1.6487
  175SAPI   H3Y19923   5.756   5.060   6.642 -0.6295  0.6456 -1.2657
  175SAPI   C3419924   5.683   4.974   6.825  0.0264 -0.0540 -0.0537
  175SAPI   H4X19925   5.713   4.869   6.805  0.0725  0.0412 -0.4720
  175SAPI   H4Y19926   5.587   4.966   6.881 -0.5269 -2.4356 -1.2861
  175SAPI   C3519927   5.778   5.053   6.926  0.4056  0.1128  0.0385
  175SAPI   H5X19928   5.737   5.153   6.952 -0.0801  0.0223 -0.3736
  175SAPI   H5Y19929   5.878   5.055   6.879 -0.3765 -1.7504 -1.7976
  175SAPI   C3619930   5.790   4.969   7.052 -0.0822  0.5630 -0.8264
  175SAPI   H6X19931   5.814   4.864   7.024  1.3731  1.7581 -4.4399
  175SAPI   H6Y19932   5.701   4.970   7.118 -1.4237 -0.6907 -2.5769
  175SAPI   C3719933   5.906   5.023   7.143 -0.0633 -0.6226  0.5523
  175SAPI   H7X19934   5.878   5.129   7.162 -0.0260 -0.8177  1.7790
  175SAPI   H7Y19935   6.006   5.024   7.095 -0.7654  0.7031 -0.9190
  175SAPI   C3819936   5.932   4.946   7.276 -0.3035  0.1366 -0.2533
  175SAPI   H8X19937   5.988   4.852   7.258 -0.9745  0.1510 -2.5941
  175SAPI   H8Y19938   5.833   4.941   7.325 -0.2894 -0.4726 -0.2872
  175SAPI   C3919939   6.034   5.027   7.379 -0.2657  0.1919 -0.5417
  175SAPI   H9X19940   5.995   5.128   7.404  2.1765  0.8229  0.8291
  175SAPI   H9Y19941   6.131   5.033   7.325  1.1434  0.1394  1.9355
  175SAPI  C31019942   6.054   4.948   7.502  0.6860  0.5505 -0.0622
  175SAPI  H10X19943   6.092   4.847   7.473 -0.7152 -0.4077  1.3099
  175SAPI  H10Y19944   5.954   4.934   7.549  0.5500  0.1355 -0.4720
  175SAPI  C31119945   6.150   5.013   7.605 -0.0012  0.0425  0.3727
  175SAPI  H11X19946   6.128   5.121   7.616 -0.5291 -0.2430  2.3084
  175SAPI  H11Y19947   6.256   5.006   7.572 -0.5450 -2.3809 -0.9674
  175SAPI  C31219948   6.150   4.934   7.739 -0.3476  0.0279 -0.1629
  175SAPI  H12X19949   6.255   4.901   7.759 -0.9039 -1.3608  0.5295
  175SAPI  H12Y19950   6.102   4.838   7.711 -1.7377  1.0119 -1.2238
  175SAPI  C31319951   6.079   5.014   7.848 -0.9099 -0.3026  0.0951
  175SAPI  H13X19952   5.984   5.055   7.807 -0.0707  1.3974 -0.1976
  175SAPI  H13Y19953   6.142   5.105   7.858  0.0836 -0.8877 -0.7981
  175SAPI  C31419954   6.069   4.951   7.982  0.2491 -0.4878 -0.2110
  175SAPI  H14X19955   6.065   5.030   8.060  1.4779 -0.9009  0.2831
  175SAPI  H14Y19956   6.165   4.899   7.998  1.4266  0.8870 -2.6052
  175SAPI  C31519957   5.949   4.851   7.993 -1.1094  0.2135 -0.0055
  175SAPI  H15X19958   5.978   4.744   8.007 -1.1034  0.3030  0.6918
  175SAPI  H15Y19959   5.872   4.851   7.913 -2.2877  0.2144  1.0977
  175SAPI  C31619960   5.883   4.887   8.125 -0.9069 -0.0486  0.1230
  175SAPI  H16X19961   5.839   4.989   8.124  0.9628  0.7675  0.4477
  175SAPI  H16Y19962   5.969   4.891   8.195 -1.0520 -2.6291  0.4934
  175SAPI  C31719963   5.774   4.796   8.177  0.4004  0.2725  0.1633
  175SAPI  H17X19964   5.829   4.700   8.186  0.6156  0.5193  1.5521
  175SAPI  H17Y19965   5.695   4.772   8.103 -0.1705  0.7109  0.6247
  175SAPI  C31819966   5.720   4.827   8.316 -0.1485  0.3977  0.2466
  175SAPI  H18X19967   5.655   4.742   8.346  1.5320 -1.1976 -0.5280
  175SAPI  H18Y19968   5.664   4.923   8.317 -0.1325  0.4051  0.4552
  175SAPI  H18Z19969   5.804   4.843   8.387  2.0007  2.2937 -2.5815
  176SAPI   C1219970   6.376   3.489   6.449 -0.4351 -0.1701  0.0314
  176SAPI    H219971   6.295   3.502   6.524 -1.4659 -0.1011 -1.0898
  176SAPI    O219972   6.494   3.522   6.522  0.2883  0.2230 -0.5242
  176SAPI   HO219973   6.478   3.605   6.568 -0.2219  1.6506 -3.1744
  176SAPI   C1319974   6.384   3.341   6.395 -0.1198  0.3959  0.0037
  176SAPI    H319975   6.290   3.318   6.341  0.6088 -0.4534 -0.9395
  176SAPI    O319976   6.388   3.250   6.513  0.2102 -0.6198 -0.3336
  176SAPI   HO319977   6.436   3.298   6.581 -0.2509  0.3134 -0.6490
  176SAPI   C1419978   6.499   3.330   6.304  0.1324  0.1739 -0.2663
  176SAPI    H419979   6.595   3.346   6.356  0.3101 -2.1803  0.2052
  176SAPI    O419980   6.498   3.199   6.241 -0.0757 -0.2451 -0.1405
  176SAPI   HO419981   6.575   3.146   6.264  0.4375  0.3256 -0.5243
  176SAPI   C1519982   6.498   3.434   6.191  0.5831 -0.1243 -0.7926
  176SAPI    H519983   6.406   3.409   6.133  0.3220 -2.8195  0.7010
  176SAPI    O519984   6.612   3.421   6.104  0.5615 -0.0569 -0.5485
  176SAPI   HO519985   6.686   3.434   6.165  0.5284 -0.1654 -0.4867
  176SAPI   C1619986   6.486   3.576   6.243 -0.0301  0.3112  0.6469
  176SAPI    H619987   6.565   3.599   6.317 -0.7744  1.1004  1.2053
  176SAPI    O619988   6.482   3.671   6.138  0.2555 -0.2986  0.0503
  176SAPI   HO619989   6.473   3.629   6.052  1.0360  0.2965 -0.3328
  176SAPI   C1119990   6.354   3.583   6.324  1.3989  0.1440  0.1023
  176SAPI    H119991   6.273   3.548   6.257  1.9063 -0.4308 -0.2110
  176SAPI     P19992   6.183   3.760   6.436 -0.5260  0.2842  0.1231
  176SAPI   O1319993   6.077   3.708   6.348  0.1313  0.6269  0.5157
  176SAPI   O1419994   6.192   3.905   6.457  0.4956  0.8397  0.4166
  176SAPI   O1219995   6.329   3.712   6.370  0.1741 -0.1549 -0.2156
  176SAPI   O1119996   6.183   3.696   6.579  0.2959 -0.2103 -0.0671
  176SAPI    C119997   6.063   3.643   6.630  0.1966  0.3084 -0.0493
  176SAPI    HA19998   5.981   3.620   6.560  0.1344  0.0670  0.0988
  176SAPI    HB19999   6.098   3.547   6.675  1.4985  0.7417 -0.1172
  176SAPI    C220000   5.998   3.722   6.743 -0.5181 -0.1323  0.5378
  176SAPI    HS20001   5.971   3.824   6.710  0.0963 -0.3228 -0.5558
  176SAPI   O2120002   6.085   3.722   6.856 -0.2251  0.0155 -0.3184
  176SAPI   C2120003   6.059   3.816   6.945  0.8763 -0.0154 -1.4727
  176SAPI   O2220004   5.982   3.911   6.927 -0.6677 -0.1732  0.1375
  176SAPI   C2220005   6.135   3.782   7.076 -0.4487 -0.0109 -0.6458
  176SAPI   H2R20006   6.070   3.702   7.117 -0.4641  0.4674  0.2987
  176SAPI   H2S20007   6.228   3.737   7.036 -0.5181 -0.4261 -0.3374
  176SAPI    C320008   5.859   3.658   6.775 -0.8873 -0.6366  0.6797
  176SAPI    HX20009   5.880   3.556   6.814  1.3665 -1.2623 -2.0196
  176SAPI    HY20010   5.817   3.643   6.673  1.3183  1.5082 -0.6160
  176SAPI   O3120011   5.771   3.740   6.855  0.4390 -0.0924 -0.3708
  176SAPI   C3120012   5.668   3.795   6.810 -0.2640  0.2935 -0.6688
  176SAPI   O3220013   5.633   3.798   6.692  0.2767 -0.2886 -0.1810
  176SAPI   C3220014   5.591   3.867   6.923 -0.5893  0.6437 -0.1526
  176SAPI   H2X20015   5.562   3.792   7.000 -0.8867  0.5313 -0.3786
  176SAPI   H2Y20016   5.500   3.902   6.871 -0.3446 -0.8545 -1.6457
  176SAPI   C2320017   6.157   3.888   7.179  0.2705 -0.0085 -0.4767
  176SAPI   H3R20018   6.056   3.903   7.222  0.1939 -2.1043  0.1166
  176SAPI   H3S20019   6.197   3.981   7.135 -1.2424  1.6715  1.6253
  176SAPI   C2420020   6.261   3.837   7.286 -0.1468 -0.2661 -0.1504
  176SAPI   H4R20021   6.358   3.826   7.233  0.7722  1.7093  1.0586
  176SAPI   H4S20022   6.225   3.738   7.320 -0.4080  0.2825  1.1984
  176SAPI   C2520023   6.272   3.912   7.414  0.2554 -0.2746  0.4110
  176SAPI   H5R20024   6.194   3.893   7.489 -0.6264 -2.8188 -1.1107
  176SAPI   C2620025   6.375   3.994   7.454  0.1703  0.1197 -0.1575
  176SAPI   H6R20026   6.371   4.041   7.553  0.0547 -1.1775  0.4625
  176SAPI   C2720027   6.501   4.026   7.372  0.0926 -0.2716 -0.0608
  176SAPI   H7R20028   6.489   3.995   7.266  1.6132 -0.5200 -0.1638
  176SAPI   H7S20029   6.595   3.989   7.417  1.6465  0.4304 -2.6523
  176SAPI   C2820030   6.514   4.180   7.371  0.0732  0.1650 -0.7305
  176SAPI   H8R20031   6.467   4.230   7.285 -0.1811 -2.3419 -2.1054
  176SAPI   C2920032   6.560   4.262   7.468  0.7345  0.3110  0.4371
  176SAPI   H9R20033   6.562   4.371   7.452 -1.8001  0.4990  1.2128
  176SAPI  C21020034   6.620   4.209   7.600  0.1294 -0.0809  0.4449
  176SAPI  H10R20035   6.729   4.227   7.603  0.0984  0.0358  0.8747
  176SAPI  H10S20036   6.611   4.098   7.600  0.4396 -0.1572 -2.3345
  176SAPI  C21120037   6.559   4.264   7.725 -0.0529  0.5527 -0.0672
  176SAPI  H11R20038   6.470   4.329   7.720  0.0693  0.5335 -3.3565
  176SAPI  C21220039   6.607   4.264   7.851 -0.4610 -0.6751  0.0814
  176SAPI  H12R20040   6.547   4.308   7.932  0.2118  1.9644 -0.8130
  176SAPI  C21320041   6.741   4.200   7.886 -0.3318 -0.2611  0.7196
  176SAPI  H13R20042   6.751   4.101   7.835 -1.1724  0.5134 -0.9792
  176SAPI  H13S20043   6.740   4.178   7.995  1.1249  2.0320  1.2156
  176SAPI  C21420044   6.862   4.288   7.868 -0.2933 -0.5192  1.2365
  176SAPI  H14R20045   6.860   4.365   7.789  0.1384  1.1597  2.8343
  176SAPI  C21520046   6.981   4.286   7.942 -0.1848 -1.0013  0.9556
  176SAPI  H15R20047   7.059   4.359   7.918 -0.5066 -0.9147  0.1693
  176SAPI  C21620048   7.015   4.188   8.051 -0.6393 -0.7412 -0.7070
  176SAPI  H16R20049   7.124   4.170   8.038 -1.1278 -2.6755 -2.3065
  176SAPI  H16S20050   6.966   4.094   8.019 -0.6101  0.1840 -3.6309
  176SAPI  C21720051   6.983   4.225   8.195  0.0404 -0.2530  0.1558
  176SAPI  H17R20052   6.875   4.234   8.215  0.3266  3.4179  0.5465
  176SAPI  H17S20053   7.023   4.329   8.199 -0.2039 -0.0659 -1.7959
  176SAPI  C21820054   7.050   4.128   8.296 -0.4248 -0.3427 -0.8167
  176SAPI  H18R20055   7.154   4.132   8.259 -0.5697  1.9969 -1.0280
  176SAPI  H18S20056   7.007   4.025   8.289  0.1636 -0.6420 -0.1058
  176SAPI  C21920057   7.052   4.165   8.445  0.6903  0.2447 -0.1373
  176SAPI  H19R20058   7.068   4.275   8.452 -1.7245  0.6330 -0.2917
  176SAPI  H19S20059   7.128   4.111   8.506 -0.4424 -2.3383 -0.9902
  176SAPI  C22020060   6.912   4.149   8.504 -0.3635 -0.1394  0.5612
  176SAPI  H20R20061   6.852   4.058   8.483 -0.4889  0.0599  0.0526
  176SAPI  H20S20062   6.854   4.233   8.461 -0.5571 -1.0812 -1.0679
  176SAPI  H20T20063   6.913   4.160   8.614  0.2685 -1.0828  0.6572
  176SAPI   C3320064   5.676   3.984   6.984  0.0198 -0.1060 -0.5492
  176SAPI   H3X20065   5.720   4.049   6.905 -1.5146 -0.2758 -1.5762
  176SAPI   H3Y20066   5.762   3.945   7.041  0.0996  0.1266 -0.5096
  176SAPI   C3420067   5.588   4.061   7.079  0.2858  0.5737 -0.0854
  176SAPI   H4X20068   5.521   3.997   7.140 -1.1264 -1.3931 -3.5529
  176SAPI   H4Y20069   5.525   4.117   7.008  1.1254 -0.3896 -1.6286
  176SAPI   C3520070   5.666   4.156   7.170 -0.0534  0.4357 -0.2321
  176SAPI   H5X20071   5.592   4.224   7.217  0.3387 -0.1572  1.2728
  176SAPI   H5Y20072   5.741   4.212   7.109  0.3583 -0.0785 -0.2000
  176SAPI   C3620073   5.744   4.080   7.278  0.9962  0.3948 -0.7659
  176SAPI   H6X20074   5.825   4.021   7.230  0.4893  0.0363 -1.1929
  176SAPI   H6Y20075   5.682   4.001   7.326 -1.5424  2.5119 -0.4829
  176SAPI   C3720076   5.801   4.178   7.380 -0.0002  0.0404 -0.6470
  176SAPI   H7X20077   5.720   4.235   7.432  1.6995  0.5260  1.5130
  176SAPI   H7Y20078   5.883   4.236   7.334 -0.5870  1.6409  0.2879
  176SAPI   C3820079   5.870   4.091   7.489 -0.0829  0.3149 -0.0816
  176SAPI   H8X20080   5.915   4.000   7.445  1.1550  0.5357  0.7291
  176SAPI   H8Y20081   5.790   4.049   7.554  1.3229 -0.9353  0.8598
  176SAPI   C3920082   5.974   4.158   7.576 -0.5941 -0.0205  0.0811
  176SAPI   H9X20083   5.935   4.255   7.614  0.7783  1.1556 -1.4260
  176SAPI   H9Y20084   6.064   4.193   7.522  0.6298 -0.1044  2.0377
  176SAPI  C31020085   6.001   4.077   7.705  0.6389 -0.4340 -0.6696
  176SAPI  H10X20086   6.019   3.972   7.672  1.1743 -0.2379 -1.0116
  176SAPI  H10Y20087   5.916   4.076   7.777  1.6924  2.3477  0.6978
  176SAPI  C31120088   6.129   4.132   7.772 -0.2338  0.3431 -0.4015
  176SAPI  H11X20089   6.112   4.238   7.802  1.3151 -0.0063  1.8129
  176SAPI  H11Y20090   6.213   4.128   7.700  0.2811  0.0683  0.2055
  176SAPI  C31220091   6.172   4.058   7.904 -1.3203  0.2167  0.0490
  176SAPI  H12X20092   6.269   4.101   7.937  0.1599 -1.3197 -2.1962
  176SAPI  H12Y20093   6.193   3.955   7.871 -1.1786  0.6353 -1.1997
  176SAPI  C31320094   6.064   4.057   8.017 -0.5250  0.2020 -0.7010
  176SAPI  H13X20095   5.970   4.011   7.980  1.4677 -4.7755  0.0584
  176SAPI  H13Y20096   6.046   4.164   8.042  0.4987  0.2800 -0.2965
  176SAPI  C31420097   6.107   3.985   8.133  0.4552  0.5310  0.4717
  176SAPI  H14X20098   6.205   4.022   8.171  1.3141 -0.9169 -0.2776
  176SAPI  H14Y20099   6.131   3.879   8.113  1.7942  0.4501  2.3951
  176SAPI  C31520100   6.003   3.972   8.243  0.2359  0.5009 -0.1490
  176SAPI  H15X20101   5.931   3.893   8.215  1.7676 -0.8254 -0.3844
  176SAPI  H15Y20102   5.966   4.077   8.249  1.9779  1.2268 -1.6201
  176SAPI  C31620103   6.063   3.933   8.377  0.3816 -0.3049  0.8536
  176SAPI  H16X20104   6.159   3.981   8.404 -0.3816  0.9873  1.3076
  176SAPI  H16Y20105   6.082   3.825   8.359 -2.3604 -0.5596 -0.7230
  176SAPI  C31720106   5.966   3.940   8.497 -0.3559 -0.3350  0.1032
  176SAPI  H17X20107   5.877   3.880   8.466  0.5512  0.1321 -3.7249
  176SAPI  H17Y20108   5.926   4.042   8.517  2.5329  0.6855  0.8616
  176SAPI  C31820109   6.016   3.888   8.623 -0.7587  0.4305 -0.0715
  176SAPI  H18X20110   6.091   3.949   8.678  0.7372 -0.3124 -1.2474
  176SAPI  H18Y20111   6.065   3.790   8.606 -0.0957  0.9867 -1.3899
  176SAPI  H18Z20112   5.940   3.875   8.704 -0.4381  0.2145  0.1950
  177SLPC     N20113   5.122   0.681  11.238 -0.4456 -0.3915 -0.5007
  177SLPC   C1320114   5.034   0.732  11.132 -0.1671 -0.6789 -0.0847
  177SLPC  H13A20115   5.017   0.838  11.141  2.3795 -0.4234  2.4251
  177SLPC  H13B20116   5.076   0.700  11.038 -1.1504 -0.6066 -0.5475
  177SLPC  H13C20117   4.938   0.683  11.142  0.4656 -1.6771  1.3537
  177SLPC   C1420118   5.054   0.703  11.370  0.4614  0.0399  0.1077
  177SLPC  H14A20119   4.970   0.635  11.378  1.8774 -1.6781  0.5698
  177SLPC  H14B20120   5.125   0.660  11.439  0.9458  0.2303 -0.2763
  177SLPC  H14C20121   5.012   0.800  11.392 -1.3604 -0.3768 -1.3729
  177SLPC   C1520122   5.246   0.761  11.239 -0.0290 -0.4153 -0.3680
  177SLPC  H15A20123   5.310   0.753  11.152 -0.0663  0.4285 -0.4751
  177SLPC  H15B20124   5.220   0.864  11.255 -2.2771 -1.2306  1.3051
  177SLPC  H15C20125   5.304   0.731  11.325 -0.4707 -0.2450 -0.0136
  177SLPC   C1220126   5.156   0.532  11.223  0.7655 -0.2566 -0.8584
  177SLPC  H12A20127   5.209   0.495  11.310  0.1841 -1.8882 -1.1862
  177SLPC  H12B20128   5.225   0.525  11.140  0.3213  0.0711 -1.2559
  177SLPC   C1120129   5.032   0.445  11.195 -0.5967  0.2520  0.1354
  177SLPC  H11A20130   4.965   0.465  11.281  1.8637  1.8879  1.7243
  177SLPC  H11B20131   5.067   0.340  11.206  0.6336  0.6793  0.3463
  177SLPC     P20132   5.053   0.431  10.938 -0.2742  0.6861 -0.4406
  177SLPC   O1320133   5.198   0.451  10.949 -0.3267  0.2932  0.2392
  177SLPC   O1420134   5.008   0.302  10.893 -0.5844  0.1436  0.3523
  177SLPC   O1220135   4.972   0.465  11.068  0.7415  0.1373 -0.6371
  177SLPC   O1120136   5.003   0.547  10.838 -0.5154  0.3030 -0.2390
  177SLPC    C120137   4.876   0.535  10.779 -0.2735  0.3040 -0.5192
  177SLPC    HA20138   4.797   0.493  10.844  0.2634 -0.5698 -0.4252
  177SLPC    HB20139   4.847   0.641  10.760  2.2774  1.6115  2.4019
  177SLPC    C220140   4.870   0.468  10.638 -0.7025 -0.8747 -0.2659
  177SLPC    HS20141   4.923   0.370  10.644 -1.3722 -1.1766  0.8637
  177SLPC   O2120142   4.940   0.551  10.550  0.8505 -0.0060 -0.2151
  177SLPC   C2120143   5.071   0.530  10.543 -0.0454 -0.2476 -0.8517
  177SLPC   O2220144   5.131   0.429  10.574 -0.1771 -0.2292 -0.8249
  177SLPC   C2220145   5.134   0.642  10.459  0.6388  0.1994  0.2997
  177SLPC   H2R20146   5.093   0.733  10.510  1.1710 -0.3434  1.7249
  177SLPC   H2S20147   5.245   0.638  10.462  1.0003  4.9747 -1.9958
  177SLPC    C320148   4.721   0.442  10.579  0.5070 -0.7637 -0.9370
  177SLPC    HX20149   4.675   0.541  10.602  2.3756  0.2171 -1.3145
  177SLPC    HY20150   4.658   0.366  10.632  0.3595  0.9179  1.4120
  177SLPC   O3120151   4.738   0.396  10.439  0.1498 -0.3643 -0.6782
  177SLPC   C3120152   4.637   0.442  10.360  0.3458 -0.3056 -0.7085
  177SLPC   O3220153   4.546   0.521  10.389 -0.0846  0.1368  0.2267
  177SLPC   C3220154   4.648   0.368  10.223 -0.9308  0.3024  0.6687
  177SLPC   H2X20155   4.545   0.345  10.188 -0.4747 -0.4584 -0.1927
  177SLPC   H2Y20156   4.704   0.274  10.239  2.2347  1.7712 -1.2170
  177SLPC   C2320157   5.093   0.635  10.310  0.4651  0.0620 -0.7540
  177SLPC   H3R20158   4.987   0.612  10.287 -0.1951  1.1244  1.1679
  177SLPC   H3S20159   5.150   0.556  10.257  0.2559  1.0166 -2.4273
  177SLPC   C2420160   5.125   0.771  10.241  0.6607  0.4041 -0.2743
  177SLPC   H4R20161   5.232   0.791  10.262  1.4082 -0.6238 -2.9071
  177SLPC   H4S20162   5.058   0.849  10.284 -0.0523 -0.8847  1.0192
  177SLPC   C2520163   5.106   0.758  10.086 -0.0610 -0.4985 -0.2467
  177SLPC   H5R20164   4.995   0.758  10.083 -0.0866  2.8832 -1.2901
  177SLPC   H5S20165   5.159   0.671  10.043  0.0652  0.8880 -2.9995
  177SLPC   C2620166   5.173   0.874  10.012  0.4138  0.3663  0.5401
  177SLPC   H6R20167   5.276   0.869  10.054  1.8837  1.4284 -2.7712
  177SLPC   H6S20168   5.126   0.968  10.048  1.1268  0.1724  2.0289
  177SLPC   C2720169   5.184   0.861   9.856  0.1689  0.1380  0.4456
  177SLPC   H7R20170   5.202   0.757   9.821  1.2526 -0.0624  1.5508
  177SLPC   H7S20171   5.273   0.920   9.825 -0.5986  3.0967  3.5484
  177SLPC   C2820172   5.064   0.921   9.784 -0.1100 -0.0025 -0.6734
  177SLPC   H8R20173   5.110   1.014   9.743  1.2444 -0.1173  0.5196
  177SLPC   H8S20174   4.989   0.963   9.854  0.3927  2.2095 -1.4176
  177SLPC   C2920175   5.009   0.828   9.687 -0.6494  0.1797  0.7931
  177SLPC   H9R20176   4.949   0.748   9.732  0.0986 -0.9211 -0.1489
  177SLPC  C21020177   5.034   0.823   9.553  0.0354  0.1613  0.5671
  177SLPC  H10R20178   4.983   0.747   9.493  0.1839  2.2821 -2.3991
  177SLPC  C21120179   5.132   0.914   9.479  0.2162 -0.3004 -0.0986
  177SLPC  H11R20180   5.094   1.018   9.480 -0.2604 -0.4806  1.7059
  177SLPC  H11S20181   5.234   0.920   9.522 -0.0245  0.8025  0.3335
  177SLPC  C21220182   5.169   0.880   9.333  0.2266  0.4492 -0.4017
  177SLPC  H12R20183   5.239   0.797   9.319 -0.9700 -0.1623 -3.0788
  177SLPC  C21320184   5.133   0.943   9.218  0.1267 -0.1420  0.0272
  177SLPC  H13R20185   5.156   0.900   9.120 -0.7733 -0.0850 -0.2113
  177SLPC  C21420186   5.039   1.063   9.216 -0.5661  0.1386 -0.4608
  177SLPC  H14R20187   5.001   1.092   9.316 -1.1468  1.4365 -1.0459
  177SLPC  H14S20188   4.950   1.035   9.156 -0.2929  0.6403 -1.1131
  177SLPC  C21520189   5.104   1.192   9.148 -0.5125 -0.1117  0.5116
  177SLPC  H15R20190   5.027   1.269   9.131 -1.9237 -1.8152 -1.0771
  177SLPC  H15S20191   5.142   1.171   9.046 -2.2596  1.7868 -0.5488
  177SLPC  C21620192   5.198   1.263   9.248 -0.1115  0.0764  0.2745
  177SLPC  H16R20193   5.300   1.224   9.232 -0.8382 -1.5097 -0.6390
  177SLPC  H16S20194   5.172   1.228   9.351 -3.7876  1.2849 -0.1666
  177SLPC  C21720195   5.193   1.411   9.221 -0.1189 -0.4534  0.3677
  177SLPC  H17R20196   5.089   1.448   9.229 -0.0078 -0.3299  1.3043
  177SLPC  H17S20197   5.223   1.437   9.117  1.2732 -0.9914  0.6169
  177SLPC  C21820198   5.283   1.482   9.313  0.1756  0.5628  0.8586
  177SLPC  H18R20199   5.271   1.461   9.422 -0.0208  1.3265  0.9899
  177SLPC  H18S20200   5.268   1.592   9.304  0.5766  0.6722  1.5014
  177SLPC  H18T20201   5.386   1.457   9.280 -1.1607 -2.2522 -1.3548
  177SLPC   C3320202   4.700   0.466  10.119  0.1159  0.1859  0.3767
  177SLPC   H3X20203   4.786   0.523  10.161  1.4190  0.1890 -2.2291
  177SLPC   H3Y20204   4.628   0.546  10.095 -0.1950  0.3128  1.6531
  177SLPC   C3420205   4.759   0.406   9.990  0.7789  0.0945 -0.8825
  177SLPC   H4X20206   4.678   0.348   9.942  0.4931 -0.4265  0.1977
  177SLPC   H4Y20207   4.840   0.332  10.006 -0.6204 -1.0068  1.4144
  177SLPC   C3520208   4.809   0.512   9.886 -0.4682  0.5640  0.0446
  177SLPC   H5X20209   4.847   0.443   9.807 -0.5190  0.8472 -0.2257
  177SLPC   H5Y20210   4.893   0.571   9.928  0.0626 -0.8770  1.0395
  177SLPC   C3620211   4.707   0.607   9.816 -1.0808  0.5219 -0.6438
  177SLPC   H6X20212   4.748   0.706   9.783  0.4998  0.4776  1.0828
  177SLPC   H6Y20213   4.632   0.641   9.891 -1.3980  1.1788 -1.2520
  177SLPC   C3720214   4.641   0.563   9.693 -0.2007 -0.6730  0.1583
  177SLPC   H7X20215   4.592   0.466   9.720  0.6185 -1.5533 -1.4517
  177SLPC   H7Y20216   4.714   0.540   9.613 -0.5499  0.2427 -0.4192
  177SLPC   C3820217   4.549   0.671   9.628 -0.0614 -0.0370 -0.6720
  177SLPC   H8X20218   4.599   0.770   9.631  0.8436 -0.5131  1.5858
  177SLPC   H8Y20219   4.466   0.675   9.702  0.0918  0.3642 -0.5199
  177SLPC   C3920220   4.500   0.646   9.487  0.1774 -0.5567 -0.1141
  177SLPC   H9X20221   4.393   0.674   9.483 -0.5265 -3.4384 -3.1502
  177SLPC   H9Y20222   4.509   0.538   9.465 -2.0370 -0.7264 -0.2594
  177SLPC  C31020223   4.563   0.731   9.378  0.3734  0.2383  0.0897
  177SLPC  H10X20224   4.534   0.836   9.400  1.2571  0.0167  2.4201
  177SLPC  H10Y20225   4.519   0.702   9.280 -4.1520  0.4957  1.9030
  177SLPC  C31120226   4.713   0.707   9.370 -0.0236  0.0313 -0.1613
  177SLPC  H11X20227   4.735   0.600   9.387 -0.7659  0.1585  1.7114
  177SLPC  H11Y20228   4.764   0.760   9.454 -3.1007 -2.1533  3.2748
  177SLPC  C31220229   4.801   0.757   9.243  0.3116 -0.2432  0.3936
  177SLPC  H12X20230   4.910   0.762   9.264  0.0133  2.0780  1.5346
  177SLPC  H12Y20231   4.772   0.864   9.231  1.2448  0.0640  0.8592
  177SLPC  C31320232   4.769   0.677   9.115 -0.8463 -0.1658 -0.3500
  177SLPC  H13X20233   4.661   0.682   9.091 -0.7030  0.9120 -0.7891
  177SLPC  H13Y20234   4.795   0.571   9.133 -0.1683  0.3154  1.6169
  177SLPC  C31420235   4.849   0.724   8.984  0.3003 -0.7200 -0.4322
  177SLPC  H14X20236   4.829   0.643   8.911  0.6610  0.2805 -1.6685
  177SLPC  H14Y20237   4.959   0.730   8.996  0.2932  1.6620 -1.3432
  177SLPC  C31520238   4.801   0.856   8.921 -0.2813 -0.3952  0.0950
  177SLPC  H15X20239   4.790   0.929   9.005  0.2727 -0.7446  0.4749
  177SLPC  H15Y20240   4.701   0.842   8.876 -0.9874 -0.0713  1.5341
  177SLPC  C31620241   4.913   0.914   8.830  0.0983  0.4799 -0.1135
  177SLPC  H16X20242   4.941   0.837   8.756  0.9740  0.5883  0.1008
  177SLPC  H16Y20243   5.001   0.939   8.893  1.8949  0.2535 -2.4850
  177SLPC  C31720244   4.867   1.044   8.762 -0.2934 -0.0519 -0.4916
  177SLPC  H17X20245   4.775   1.014   8.708  0.1292 -2.2959 -0.0315
  177SLPC  H17Y20246   4.945   1.089   8.698 -0.4750 -0.3404 -0.9103
  177SLPC  C31820247   4.830   1.150   8.871 -1.0075 -0.8580 -0.7075
  177SLPC  H18X20248   4.722   1.163   8.893 -1.0419 -2.7723  0.3138
  177SLPC  H18Y20249   4.874   1.248   8.842 -0.7213 -1.5960 -2.8391
  177SLPC  H18Z20250   4.873   1.126   8.971 -1.8165 -1.4304 -0.4956
  178SLPC     N20251   0.285   3.803  10.867  0.5797  0.0159  0.0154
  178SLPC   C1320252   0.394   3.889  10.918  0.4312 -0.1356 -0.6732
  178SLPC  H13A20253   0.492   3.848  10.895  0.8062  0.4582 -0.1625
  178SLPC  H13B20254   0.403   3.984  10.867 -1.1753 -0.2733 -1.2229
  178SLPC  H13C20255   0.386   3.924  11.019  1.4702  1.1411 -1.0193
  178SLPC   C1420256   0.275   3.685  10.956  0.1622  0.3782 -0.4042
  178SLPC  H14A20257   0.363   3.624  10.944 -1.5985 -2.1367 -1.0709
  178SLPC  H14B20258   0.275   3.722  11.058  0.8036  1.6154 -0.8319
  178SLPC  H14C20259   0.192   3.618  10.942  0.8819 -0.7161  0.5157
  178SLPC   C1520260   0.313   3.762  10.731  0.5112  0.2056 -0.0686
  178SLPC  H15A20261   0.385   3.682  10.730 -1.6710 -1.8356  0.4431
  178SLPC  H15B20262   0.227   3.717  10.683  2.9597 -3.5956 -1.0644
  178SLPC  H15C20263   0.349   3.838  10.664 -1.3835  0.9233 -0.3127
  178SLPC   C1220264   0.158   3.891  10.873  0.0228  0.1980  0.1527
  178SLPC  H12A20265   0.178   3.977  10.811  0.6334  0.1500  0.2778
  178SLPC  H12B20266   0.144   3.910  10.978  1.0172  0.0744  0.3084
  178SLPC   C1120267   0.023   3.828  10.828  0.4819  0.1521 -0.4912
  178SLPC  H11A20268   0.032   3.778  10.729  2.8063  0.3111 -0.4015
  178SLPC  H11B20269  -0.054   3.908  10.831  0.3352 -0.0623  2.8159
  178SLPC     P20270  -0.163   3.651  10.906  0.0460 -0.0141 -0.4746
  178SLPC   O1320271  -0.174   3.535  10.996  0.5636 -0.3218  0.4452
  178SLPC   O1420272  -0.273   3.746  10.929 -0.4642  0.0967  0.3342
  178SLPC   O1220273  -0.021   3.730  10.928  0.2613 -0.5247  0.2260
  178SLPC   O1120274  -0.165   3.601  10.755 -0.4704 -0.4892 -0.2426
  178SLPC    C120275  -0.066   3.509  10.714  1.2015  0.1740  0.0955
  178SLPC    HA20276   0.038   3.548  10.725  0.5767  2.3300 -1.2666
  178SLPC    HB20277  -0.070   3.413  10.769  1.8364 -0.2605 -0.6144
  178SLPC    C220278  -0.084   3.469  10.562 -0.6185 -0.4660  0.1121
  178SLPC    HS20279   0.010   3.415  10.538  0.0997  0.8530 -0.0759
  178SLPC   O2120280  -0.107   3.578  10.477 -0.3864 -0.3136 -0.4654
  178SLPC   C2120281   0.005   3.651  10.461  0.7327 -0.7081 -0.4185
  178SLPC   O2220282   0.111   3.627  10.507 -0.0279  0.1149 -0.5029
  178SLPC   C2220283  -0.025   3.755  10.350 -0.0812 -0.1720  0.6741
  178SLPC   H2R20284  -0.132   3.785  10.359  0.3229  2.2225 -1.7287
  178SLPC   H2S20285   0.023   3.852  10.373 -0.2206  0.0199  0.1597
  178SLPC    C320286  -0.194   3.366  10.550  0.2783  0.7502  0.1893
  178SLPC    HX20287  -0.297   3.404  10.567  0.2587 -0.0989  2.0363
  178SLPC    HY20288  -0.174   3.284  10.622 -0.4730 -0.4043 -0.8855
  178SLPC   O3120289  -0.185   3.304  10.422  0.7956  0.1868 -0.6023
  178SLPC   C3120290  -0.277   3.201  10.399  0.5458 -0.3061  0.0449
  178SLPC   O3220291  -0.365   3.173  10.477 -0.0556  0.1266  0.4944
  178SLPC   C3220292  -0.243   3.132  10.272  0.3448  0.1652 -0.5395
  178SLPC   H2X20293  -0.315   3.048  10.261 -1.5432  1.7142 -0.1851
  178SLPC   H2Y20294  -0.136   3.102  10.281  0.7371  1.8644  0.6078
  178SLPC   C2320295  -0.005   3.690  10.206  0.7465 -0.7614  0.2240
  178SLPC   H3R20296  -0.039   3.585  10.195  0.3391 -0.7865  1.6570
  178SLPC   H3S20297   0.104   3.679  10.188  0.4509 -1.5006 -1.2098
  178SLPC   C2420298  -0.064   3.773  10.093  0.2609  1.2376 -0.0215
  178SLPC   H4R20299  -0.013   3.871  10.087  0.9716  1.0820  2.8019
  178SLPC   H4S20300  -0.171   3.791  10.116  0.3476  1.4849  0.1826
  178SLPC   C2520301  -0.036   3.718   9.949  0.5014  0.3282 -0.3857
  178SLPC   H5R20302  -0.110   3.638   9.924  0.5490  0.3501 -0.6001
  178SLPC   H5S20303   0.060   3.660   9.951  0.0335 -0.5351 -1.8197
  178SLPC   C2620304  -0.034   3.821   9.838  0.3156 -0.0466 -0.2597
  178SLPC   H6R20305   0.066   3.861   9.813 -0.3852  2.8903  1.3282
  178SLPC   H6S20306  -0.089   3.915   9.864 -0.9672 -0.8281 -0.0839
  178SLPC   C2720307  -0.087   3.783   9.697 -0.0139  0.1478  0.4250
  178SLPC   H7R20308  -0.077   3.865   9.623 -0.9152  0.6344  0.8353
  178SLPC   H7S20309  -0.196   3.761   9.696 -0.5155  2.5817 -0.2322
  178SLPC   C2820310  -0.031   3.646   9.635  0.5130 -0.5734  0.0976
  178SLPC   H8R20311  -0.070   3.570   9.706 -0.9130 -0.9827 -1.0966
  178SLPC   H8S20312   0.080   3.650   9.638  0.5342 -0.9557 -0.1718
  178SLPC   C2920313  -0.087   3.623   9.495  0.4960  0.2981 -0.3974
  178SLPC   H9R20314  -0.190   3.584   9.503  0.4308  0.7546  1.3681
  178SLPC  C21020315  -0.025   3.621   9.375  0.0248 -0.1313 -0.2384
  178SLPC  H10R20316  -0.081   3.600   9.282 -2.7647  0.1196  1.3397
  178SLPC  C21120317   0.123   3.639   9.361 -0.9000  0.2970 -0.0544
  178SLPC  H11R20318   0.155   3.537   9.333 -1.5879  0.2714 -0.7870
  178SLPC  H11S20319   0.170   3.665   9.458  0.3131  1.5502 -0.9563
  178SLPC  C21220320   0.171   3.732   9.256  0.0746  0.2066  0.3736
  178SLPC  H12R20321   0.164   3.838   9.283 -2.1225  0.1000  0.3225
  178SLPC  C21320322   0.192   3.683   9.127 -0.6841 -0.4031  0.8390
  178SLPC  H13R20323   0.237   3.748   9.050  1.0248 -1.1824  1.1579
  178SLPC  C21420324   0.178   3.547   9.078  0.2348  0.1216 -0.2896
  178SLPC  H14R20325   0.105   3.486   9.136 -0.2497 -0.9375 -1.9764
  178SLPC  H14S20326   0.274   3.492   9.077 -0.2582 -0.7743 -2.5978
  178SLPC  C21520327   0.132   3.550   8.929 -0.1782 -0.3898  0.1676
  178SLPC  H15R20328   0.139   3.451   8.878  0.5998 -0.4406  0.3650
  178SLPC  H15S20329   0.201   3.617   8.875  1.2116  0.2808  2.7221
  178SLPC  C21620330  -0.015   3.590   8.911  0.1179  0.5539  0.2489
  178SLPC  H16R20331  -0.034   3.697   8.935 -0.5711  0.3315  0.6985
  178SLPC  H16S20332  -0.077   3.531   8.981 -2.4025  0.3609 -2.0817
  178SLPC  C21720333  -0.066   3.566   8.771 -0.6836 -0.4322 -1.0636
  178SLPC  H17R20334  -0.036   3.463   8.743 -0.2009  0.0148 -2.2401
  178SLPC  H17S20335  -0.006   3.637   8.710  1.3435 -0.7916  0.4831
  178SLPC  C21820336  -0.209   3.615   8.752  0.2992 -0.7377  0.3229
  178SLPC  H18R20337  -0.269   3.557   8.826 -0.1730  0.4210  0.8590
  178SLPC  H18S20338  -0.240   3.580   8.652  2.4480  0.0991 -0.6692
  178SLPC  H18T20339  -0.228   3.721   8.779  0.5794  0.1940 -2.9525
  178SLPC   C3320340  -0.268   3.219  10.145 -1.5164 -0.4019 -0.5861
  178SLPC   H3X20341  -0.192   3.300  10.138  0.6205 -2.1584  1.4283
  178SLPC   H3Y20342  -0.369   3.263  10.160 -0.8632  0.9897 -0.1309
  178SLPC   C3420343  -0.246   3.142  10.018 -0.0007  0.5539  0.1628
  178SLPC   H4X20344  -0.310   3.052  10.005  2.6776 -1.6599  1.8318
  178SLPC   H4Y20345  -0.143   3.101  10.016 -0.4603 -0.5820 -0.7063
  178SLPC   C3520346  -0.274   3.238   9.909 -0.1202 -0.0687  0.2298
  178SLPC   H5X20347  -0.206   3.326   9.919 -0.5150  0.3450 -0.7686
  178SLPC   H5Y20348  -0.373   3.286   9.893  0.0883  0.0104 -0.8222
  178SLPC   C3620349  -0.244   3.170   9.778 -0.4127  0.6211 -0.0369
  178SLPC   H6X20350  -0.319   3.091   9.757  0.4454 -0.8220  2.1765
  178SLPC   H6Y20351  -0.144   3.122   9.772  0.1347  1.8690 -1.3686
  178SLPC   C3720352  -0.261   3.271   9.662  0.1248  0.2129 -0.2352
  178SLPC   H7X20353  -0.181   3.347   9.656  0.7384 -0.3618  0.6191
  178SLPC   H7Y20354  -0.363   3.316   9.668  0.2666  0.4900  0.0863
  178SLPC   C3820355  -0.243   3.205   9.521  1.3041 -0.5896  0.2476
  178SLPC   H8X20356  -0.302   3.110   9.522 -0.2311  0.3096  3.8201
  178SLPC   H8Y20357  -0.141   3.163   9.513  2.3363  1.9647 -0.4501
  178SLPC   C3920358  -0.284   3.294   9.403 -0.4437  0.2796 -0.1139
  178SLPC   H9X20359  -0.207   3.374   9.397 -0.0264 -0.1189 -0.1037
  178SLPC   H9Y20360  -0.379   3.345   9.431 -0.9251 -0.5131 -0.2677
  178SLPC  C31020361  -0.287   3.228   9.269 -0.4917 -0.1260 -0.4390
  178SLPC  H10X20362  -0.338   3.299   9.201 -0.9689  0.1733  0.2374
  178SLPC  H10Y20363  -0.357   3.142   9.278  0.4154 -0.7040  1.4507
  178SLPC  C31120364  -0.144   3.191   9.210 -0.4323 -0.4654  0.0125
  178SLPC  H11X20365  -0.103   3.117   9.282 -0.3775 -1.2734 -0.8396
  178SLPC  H11Y20366  -0.082   3.282   9.191  0.0289 -0.5835  0.9356
  178SLPC  C31220367  -0.150   3.125   9.078  0.5064  0.3363 -0.2797
  178SLPC  H12X20368  -0.229   3.048   9.088 -1.2591  2.4325  2.6252
  178SLPC  H12Y20369  -0.052   3.077   9.056 -0.9864 -4.0404  2.0632
  178SLPC  C31320370  -0.197   3.221   8.961  0.2331 -0.4117 -0.0727
  178SLPC  H13X20371  -0.121   3.302   8.951 -0.1789  0.2842  2.1997
  178SLPC  H13Y20372  -0.295   3.266   8.988 -0.6141 -1.2185 -1.7860
  178SLPC  C31420373  -0.191   3.156   8.819  0.8114  0.0702  0.1827
  178SLPC  H14X20374  -0.261   3.201   8.745  1.2581 -2.6277 -1.9742
  178SLPC  H14Y20375  -0.227   3.051   8.827  0.0507  0.5090  3.3113
  178SLPC  C31520376  -0.048   3.136   8.769  0.1751  0.5089 -0.1490
  178SLPC  H15X20377  -0.011   3.228   8.721  0.4866  0.4226 -0.0735
  178SLPC  H15Y20378   0.021   3.118   8.854 -0.7274  3.9496  1.3803
  178SLPC  C31620379  -0.029   3.023   8.664  0.2879 -0.0318  0.0014
  178SLPC  H16X20380  -0.094   3.053   8.579  1.5655 -1.4769 -1.5363
  178SLPC  H16Y20381  -0.072   2.929   8.704 -0.2421  0.8371  1.4813
  178SLPC  C31720382   0.118   3.017   8.601  0.5129  0.1935 -0.1483
  178SLPC  H17X20383   0.148   3.124   8.599  0.6448  0.1586  0.0306
  178SLPC  H17Y20384   0.105   2.974   8.499 -2.5325 -0.5845  0.5173
  178SLPC  C31820385   0.208   2.924   8.682 -0.1275 -0.6019  0.0272
  178SLPC  H18X20386   0.310   2.898   8.647  0.7676  0.2067  1.9857
  178SLPC  H18Y20387   0.160   2.824   8.685  1.4322 -1.3928 -0.9223
  178SLPC  H18Z20388   0.222   2.968   8.784  2.5626 -0.3028 -0.4258
  179SLPC     N20389   0.720   1.322  10.374 -0.5270  0.1806  0.3310
  179SLPC   C1320390   0.710   1.434  10.276  0.2941  0.8180  0.4500
  179SLPC  H13A20391   0.706   1.408  10.171  0.4478 -2.1793  1.1570
  179SLPC  H13B20392   0.624   1.498  10.288 -1.3035 -1.1540 -0.2523
  179SLPC  H13C20393   0.800   1.492  10.292 -1.2463  3.2297  0.5881
  179SLPC   C1420394   0.618   1.213  10.340 -0.4021 -0.2773  0.5731
  179SLPC  H14A20395   0.516   1.244  10.357 -0.5156  0.2773 -1.0061
  179SLPC  H14B20396   0.622   1.202  10.233  2.5664 -1.9953  0.8151
  179SLPC  H14C20397   0.638   1.119  10.389  0.7164 -0.4371 -0.1786
  179SLPC   C1520398   0.687   1.374  10.505 -0.8348  0.0065 -0.1576
  179SLPC  H15A20399   0.590   1.420  10.517 -2.2023 -3.0596  1.0332
  179SLPC  H15B20400   0.681   1.287  10.569  0.5364  0.2143  0.2815
  179SLPC  H15C20401   0.771   1.431  10.543 -0.0622  0.1076 -1.9378
  179SLPC   C1220402   0.865   1.268  10.384 -0.2629  0.3090  0.2980
  179SLPC  H12A20403   0.940   1.343  10.406 -0.3287  0.0116  1.5893
  179SLPC  H12B20404   0.904   1.231  10.290  3.2009 -0.8600  2.1167
  179SLPC   C1120405   0.894   1.152  10.491 -0.4454  0.0269  0.6729
  179SLPC  H11A20406   0.860   1.180  10.593 -0.5150  0.0658  0.6383
  179SLPC  H11B20407   1.004   1.155  10.505 -0.5552  0.3989  1.4990
  179SLPC     P20408   0.917   0.932  10.354  0.0512 -0.1742  0.1385
  179SLPC   O1320409   1.043   0.902  10.420  0.7070 -0.0030  0.2284
  179SLPC   O1420410   0.830   0.816  10.324 -0.6126 -0.8104 -0.3496
  179SLPC   O1220411   0.841   1.024  10.462  0.3622 -0.3082  0.3810
  179SLPC   O1120412   0.940   1.030  10.237  0.2133 -0.4460  0.1014
  179SLPC    C120413   1.074   1.057  10.184  1.3469  0.0615  0.0854
  179SLPC    HA20414   1.072   1.145  10.116 -1.2345  0.5416  0.7113
  179SLPC    HB20415   1.153   1.088  10.255  0.7420  0.5491  0.5496
  179SLPC    C220416   1.127   0.938  10.094  0.7464  0.5965 -0.0984
  179SLPC    HS20417   1.110   0.844  10.151  1.3471  0.4137 -0.2125
  179SLPC   O2120418   1.268   0.962  10.070 -0.0313  0.3579 -0.1899
  179SLPC   C2120419   1.336   0.856  10.047  1.0281  0.1206 -0.2054
  179SLPC   O2220420   1.312   0.737  10.049  0.0777 -0.3819  0.2091
  179SLPC   C2220421   1.477   0.915  10.010 -0.0662 -0.2926 -0.3934
  179SLPC   H2R20422   1.457   1.008   9.953 -1.8516 -1.4005 -1.6078
  179SLPC   H2S20423   1.529   0.934  10.106 -1.6537 -0.4633  0.5160
  179SLPC    C320424   1.030   0.921   9.967  0.1078 -0.1363  1.0464
  179SLPC    HX20425   1.039   1.013   9.905  1.4796 -0.9747 -0.0017
  179SLPC    HY20426   0.927   0.922  10.007  0.0901 -1.0023  1.0320
  179SLPC   O3120427   1.062   0.812   9.878 -0.0308  0.2948  0.3890
  179SLPC   C3120428   1.037   0.693   9.938 -0.4542  0.1632  0.0186
  179SLPC   O3220429   0.995   0.684  10.053 -0.1864 -0.2063 -0.1125
  179SLPC   C3220430   1.075   0.578   9.847  0.3292  0.2996  0.3960
  179SLPC   H2X20431   1.084   0.493   9.918 -2.9090  0.0916  0.6682
  179SLPC   H2Y20432   1.177   0.585   9.806  0.3617  0.6191  0.5334
  179SLPC   C2320433   1.567   0.814   9.937  0.8362 -0.2189  0.4967
  179SLPC   H3R20434   1.524   0.783   9.839  2.9450  0.2976 -0.6200
  179SLPC   H3S20435   1.577   0.726  10.004 -1.1777  0.4164  1.6890
  179SLPC   C2420436   1.706   0.880   9.912 -0.3780  0.3684  0.0709
  179SLPC   H4R20437   1.792   0.810   9.918 -0.2636  0.6733  2.5106
  179SLPC   H4S20438   1.729   0.934  10.006  3.5220  1.3097 -1.3313
  179SLPC   C2520439   1.709   0.978   9.795 -0.1357  0.0035  0.2532
  179SLPC   H5R20440   1.780   1.063   9.809  0.9586 -1.1681  1.8806
  179SLPC   H5S20441   1.609   1.027   9.786  0.7967  2.0880  0.8686
  179SLPC   C2620442   1.745   0.907   9.657  0.8113 -0.3201  0.2715
  179SLPC   H6R20443   1.672   0.826   9.637 -2.2579  2.3178  0.3515
  179SLPC   H6S20444   1.846   0.861   9.653  0.7937 -0.4045  0.7617
  179SLPC   C2720445   1.738   1.014   9.539 -0.4785 -0.1857  0.5080
  179SLPC   H7R20446   1.807   1.097   9.565  0.5534 -0.5756 -0.9189
  179SLPC   H7S20447   1.635   1.054   9.545 -0.7248 -0.5022 -1.2672
  179SLPC   C2820448   1.769   0.948   9.403 -0.3203  0.6961  0.1811
  179SLPC   H8R20449   1.709   0.856   9.389  1.3309 -0.4904  0.7720
  179SLPC   H8S20450   1.872   0.908   9.407 -0.5951 -0.1664 -1.2450
  179SLPC   C2920451   1.744   1.037   9.285 -0.6339 -0.3847 -0.3426
  179SLPC   H9R20452   1.833   1.096   9.258 -1.0257  0.4801  0.2433
  179SLPC  C21020453   1.633   1.039   9.207  0.4780 -0.8701 -0.7207
  179SLPC  H10R20454   1.631   1.109   9.122 -0.5187  0.0949  0.0853
  179SLPC  C21120455   1.500   0.970   9.227 -0.0325  0.1165 -0.6700
  179SLPC  H11R20456   1.460   1.001   9.326 -1.9146 -1.2108 -0.9743
  179SLPC  H11S20457   1.529   0.863   9.239  0.1919  0.3463  0.9401
  179SLPC  C21220458   1.404   0.999   9.113 -0.0552 -0.2430  0.7929
  179SLPC  H12R20459   1.334   1.080   9.134 -1.1218 -1.0523  0.3897
  179SLPC  C21320460   1.397   0.914   9.008 -0.0634  0.3103  0.4181
  179SLPC  H13R20461   1.343   0.945   8.917  2.4481  1.7328 -0.6432
  179SLPC  C21420462   1.490   0.795   8.985 -0.2351  0.1534  0.2853
  179SLPC  H14R20463   1.465   0.720   9.063 -0.9807  0.7884  0.6701
  179SLPC  H14S20464   1.597   0.823   8.990  0.1002 -0.4195 -2.7342
  179SLPC  C21520465   1.473   0.735   8.850  0.2587  0.2976 -0.5085
  179SLPC  H15R20466   1.368   0.714   8.819  1.2273  0.1687 -4.0048
  179SLPC  H15S20467   1.534   0.642   8.845 -2.3030 -1.3248 -4.3604
  179SLPC  C21620468   1.525   0.825   8.726  0.2719  0.2094 -0.2689
  179SLPC  H16R20469   1.629   0.852   8.755  0.1140  1.5379 -0.9011
  179SLPC  H16S20470   1.477   0.925   8.730 -1.5802 -0.7442  2.0488
  179SLPC  C21720471   1.519   0.758   8.591 -0.2247  0.7447  0.1075
  179SLPC  H17R20472   1.413   0.750   8.557 -0.1157 -2.7381  0.4422
  179SLPC  H17S20473   1.565   0.657   8.589 -0.8153  0.4781 -0.4153
  179SLPC  C21820474   1.588   0.838   8.489 -0.1461 -0.1409 -0.4395
  179SLPC  H18R20475   1.557   0.945   8.494 -0.5463 -0.3355  3.3364
  179SLPC  H18S20476   1.579   0.797   8.386 -0.5556 -2.7722  0.6009
  179SLPC  H18T20477   1.696   0.823   8.511 -0.0912 -0.4762 -0.9461
  179SLPC   C3320478   0.965   0.537   9.747  0.6560 -0.5652 -0.8588
  179SLPC   H3X20479   0.870   0.505   9.795  0.6175 -0.4044 -0.8256
  179SLPC   H3Y20480   1.003   0.446   9.696  0.2784 -0.8121 -0.6992
  179SLPC   C3420481   0.933   0.643   9.639 -0.1647  0.4167  0.8310
  179SLPC   H4X20482   1.019   0.712   9.626  0.1865 -0.5614 -2.2948
  179SLPC   H4Y20483   0.867   0.720   9.684 -0.0458  0.8024  0.3380
  179SLPC   C3520484   0.886   0.563   9.518  0.7228  0.1313 -0.3486
  179SLPC   H5X20485   0.824   0.476   9.548  0.7681  0.4109  0.5601
  179SLPC   H5Y20486   0.976   0.520   9.468  1.4517  1.1057  0.1155
  179SLPC   C3620487   0.810   0.652   9.417 -0.5618 -0.1197 -0.2756
  179SLPC   H6X20488   0.877   0.734   9.384  1.0361 -1.4339 -0.3444
  179SLPC   H6Y20489   0.724   0.698   9.471  0.7124 -0.3104  2.0147
  179SLPC   C3720490   0.761   0.571   9.297 -0.5047  1.1116  0.2050
  179SLPC   H7X20491   0.734   0.467   9.323  2.8416  0.3737  1.0128
  179SLPC   H7Y20492   0.852   0.554   9.235  1.0159 -0.7129  2.8349
  179SLPC   C3820493   0.661   0.640   9.204 -0.2637 -0.1449 -0.0361
  179SLPC   H8X20494   0.676   0.750   9.198  1.2327 -0.3233  0.2168
  179SLPC   H8Y20495   0.568   0.627   9.264 -0.9763 -1.1199 -1.3330
  179SLPC   C3920496   0.647   0.561   9.070  0.5365  0.6546 -0.8414
  179SLPC   H9X20497   0.622   0.454   9.091  0.3654  0.9594  0.5244
  179SLPC   H9Y20498   0.749   0.553   9.026  0.5712  0.6022 -0.7520
  179SLPC  C31020499   0.566   0.620   8.954 -0.2134 -0.3415 -0.1927
  179SLPC  H10X20500   0.591   0.729   8.951  1.5165 -0.7437 -1.5380
  179SLPC  H10Y20501   0.458   0.600   8.967 -0.6152  2.8908  2.2318
  179SLPC  C31120502   0.607   0.547   8.819  0.3516  0.2740 -0.1716
  179SLPC  H11X20503   0.714   0.576   8.808  0.4772 -0.4165 -0.9148
  179SLPC  H11Y20504   0.562   0.596   8.730 -0.3841  0.2226  0.1650
  179SLPC  C31220505   0.607   0.394   8.821 -0.8770 -0.1361 -0.4168
  179SLPC  H12X20506   0.644   0.358   8.919  2.0070 -0.1331 -1.4493
  179SLPC  H12Y20507   0.684   0.346   8.756 -0.5978 -0.3525  0.0692
  179SLPC  C31320508   0.471   0.334   8.803  0.5141  0.4258  0.1623
  179SLPC  H13X20509   0.391   0.401   8.840 -1.6230 -1.7081 -0.5115
  179SLPC  H13Y20510   0.463   0.238   8.858  1.4736  0.6356  0.6878
  179SLPC  C31420511   0.427   0.312   8.655  0.0353 -0.4949 -0.1170
  179SLPC  H14X20512   0.426   0.412   8.606  0.3603  1.8182  4.3839
  179SLPC  H14Y20513   0.324   0.271   8.659 -0.3410  0.1941 -2.0578
  179SLPC  C31520514   0.513   0.220   8.574 -0.2523 -0.5259  0.0709
  179SLPC  H15X20515   0.550   0.133   8.633 -0.3549  0.6109  1.8395
  179SLPC  H15Y20516   0.608   0.265   8.538 -0.1825 -2.5584 -2.4315
  179SLPC  C31620517   0.438   0.169   8.455 -0.2539 -0.3651  0.3143
  179SLPC  H16X20518   0.334   0.151   8.489 -0.5338  1.2079  0.3178
  179SLPC  H16Y20519   0.477   0.074   8.411  0.1474  0.9529 -2.2508
  179SLPC  C31720520   0.428   0.265   8.339  0.1149  0.2736 -0.1742
  179SLPC  H17X20521   0.526   0.262   8.286  1.2043  1.1989  1.7551
  179SLPC  H17Y20522   0.402   0.368   8.371 -3.1398 -0.7484  0.6050
  179SLPC  C31820523   0.342   0.217   8.227  0.2874 -0.7102 -0.5611
  179SLPC  H18X20524   0.248   0.166   8.256  1.4400 -2.5674 -0.0073
  179SLPC  H18Y20525   0.401   0.159   8.154  0.8550  0.8610 -1.3892
  179SLPC  H18Z20526   0.308   0.305   8.168  0.8975  0.9674  1.5169
  180SLPC     N20527   2.616   4.614  11.243 -0.1009 -0.1695 -0.1977
  180SLPC   C1320528   2.516   4.597  11.364  0.3486  0.7046 -0.6747
  180SLPC  H13A20529   2.574   4.606  11.455 -1.0936  2.4962  0.1049
  180SLPC  H13B20530   2.442   4.675  11.377  0.1020  0.0881  2.0209
  180SLPC  H13C20531   2.461   4.504  11.357 -1.0432  1.0279  3.9866
  180SLPC   C1420532   2.693   4.490  11.230  0.4285  0.1412 -0.3319
  180SLPC  H14A20533   2.624   4.407  11.219  1.1376 -0.4440 -0.3597
  180SLPC  H14B20534   2.754   4.479  11.142  0.8016 -1.3321  0.1058
  180SLPC  H14C20535   2.742   4.475  11.325 -0.5821  2.3662  0.6008
  180SLPC   C1520536   2.715   4.730  11.277  0.3501  0.3127 -0.4710
  180SLPC  H15A20537   2.760   4.712  11.373  0.4456 -0.7532 -0.7008
  180SLPC  H15B20538   2.798   4.739  11.209  0.9685  3.7249  0.6763
  180SLPC  H15C20539   2.663   4.823  11.292  0.2577  0.0667  0.7510
  180SLPC   C1220540   2.530   4.626  11.121 -0.2418 -0.1130  0.4433
  180SLPC  H12A20541   2.443   4.686  11.141  0.9372  1.0713  2.1096
  180SLPC  H12B20542   2.493   4.526  11.104  1.1627 -0.4482 -0.7220
  180SLPC   C1120543   2.604   4.664  10.988 -0.4073  0.0387  0.5040
  180SLPC  H11A20544   2.664   4.757  11.000 -0.4308 -0.1938  2.5385
  180SLPC  H11B20545   2.528   4.685  10.909 -0.1855 -0.1699  0.2348
  180SLPC     P20546   2.622   4.435  10.878 -0.0367  0.1413  0.3402
  180SLPC   O1320547   2.729   4.337  10.867  0.5607 -0.0508  0.4498
  180SLPC   O1420548   2.514   4.379  10.962  0.9054  0.3482  0.0864
  180SLPC   O1220549   2.687   4.559  10.948 -0.0374 -0.2769  0.2846
  180SLPC   O1120550   2.574   4.481  10.734 -0.6545  0.7860 -0.2556
  180SLPC    C120551   2.660   4.562  10.653  0.3147 -0.2419 -0.2159
  180SLPC    HA20552   2.620   4.666  10.649 -1.1016 -0.8191 -1.6960
  180SLPC    HB20553   2.761   4.571  10.698  0.4531 -0.0482 -0.5588
  180SLPC    C220554   2.673   4.509  10.510 -0.3590 -0.4004  0.0092
  180SLPC    HS20555   2.759   4.547  10.451 -1.4408  1.5513 -0.3485
  180SLPC   O2120556   2.545   4.524  10.440 -0.6487  1.0409  0.1433
  180SLPC   C2120557   2.555   4.543  10.312 -0.1003 -0.0243 -0.6502
  180SLPC   O2220558   2.663   4.545  10.249 -0.5520  0.2984  0.3589
  180SLPC   C2220559   2.414   4.572  10.263  0.4214 -0.2068  0.1963
  180SLPC   H2R20560   2.363   4.476  10.240  0.5487  0.4500 -3.0495
  180SLPC   H2S20561   2.358   4.627  10.341 -1.3908 -0.7828 -0.6686
  180SLPC    C320562   2.711   4.359  10.527  0.4916 -0.4684 -0.3787
  180SLPC    HX20563   2.625   4.304  10.570 -1.1313  2.2058 -0.0503
  180SLPC    HY20564   2.799   4.349  10.594  1.0003 -1.2969 -1.1643
  180SLPC   O3120565   2.759   4.303  10.405 -0.5113  0.0237 -0.5192
  180SLPC   C3120566   2.668   4.244  10.327 -0.0191  0.5192  0.1833
  180SLPC   O3220567   2.549   4.232  10.344 -0.2460 -0.3330 -0.3369
  180SLPC   C3220568   2.748   4.178  10.213 -0.1316 -0.8989  0.2019
  180SLPC   H2X20569   2.757   4.072  10.245  0.8899 -0.9834 -0.3606
  180SLPC   H2Y20570   2.844   4.230  10.193 -0.3215 -0.3603  0.6561
  180SLPC   C2320571   2.409   4.640  10.118  0.7368  0.1225 -0.1384
  180SLPC   H3R20572   2.497   4.709  10.113  0.7410  0.1490  0.2742
  180SLPC   H3S20573   2.313   4.692  10.101 -0.5346 -2.0972  0.1555
  180SLPC   C2420574   2.429   4.536   9.999 -0.6135  0.3503  0.1722
  180SLPC   H4R20575   2.330   4.486   9.990 -0.6355  0.1418  1.4033
  180SLPC   H4S20576   2.507   4.462  10.026 -1.1116 -0.6164 -0.9858
  180SLPC   C2520577   2.463   4.597   9.866  0.1111 -0.3440 -0.3760
  180SLPC   H5R20578   2.562   4.646   9.882 -0.8589  1.6749 -0.4750
  180SLPC   H5S20579   2.394   4.675   9.827  0.3111 -0.1870 -0.4207
  180SLPC   C2620580   2.482   4.480   9.757  0.2689 -0.4963  0.1699
  180SLPC   H6R20581   2.512   4.387   9.810  0.1928 -1.1927 -0.9794
  180SLPC   H6S20582   2.554   4.514   9.679  0.5836  1.1732  1.1698
  180SLPC   C2720583   2.351   4.438   9.690 -0.4370 -0.4082 -0.2006
  180SLPC   H7R20584   2.303   4.522   9.635 -1.6876 -0.9723  0.0150
  180SLPC   H7S20585   2.295   4.421   9.785  0.0675  3.1397  0.8420
  180SLPC   C2820586   2.367   4.317   9.607 -0.6862  0.0350  0.0350
  180SLPC   H8R20587   2.271   4.262   9.602 -0.6495 -0.1398  1.0296
  180SLPC   H8S20588   2.433   4.247   9.664  0.6793 -0.5716 -2.2008
  180SLPC   C2920589   2.430   4.330   9.469  0.7097  0.7949  0.3383
  180SLPC   H9R20590   2.535   4.361   9.465  0.8000  0.2132 -2.9668
  180SLPC  C21020591   2.373   4.299   9.351  0.0253  0.3566 -0.3383
  180SLPC  H10R20592   2.424   4.318   9.255  1.2102 -1.1913 -0.0373
  180SLPC  C21120593   2.229   4.267   9.346 -0.1677  0.2003 -0.6311
  180SLPC  H11R20594   2.164   4.341   9.398 -0.0985  0.2440 -0.6078
  180SLPC  H11S20595   2.205   4.182   9.413  1.2011  0.5796  0.3690
  180SLPC  C21220596   2.171   4.239   9.208  0.7996 -1.0898 -0.4581
  180SLPC  H12R20597   2.076   4.290   9.184  0.1223 -2.2185 -0.1890
  180SLPC  C21320598   2.214   4.165   9.102  0.9646  1.3029 -0.8779
  180SLPC  H13R20599   2.159   4.163   9.007  0.0058 -0.0077 -0.3255
  180SLPC  C21420600   2.343   4.078   9.104  0.6089 -0.5105 -0.8341
  180SLPC  H14R20601   2.365   4.052   9.209  0.6374  2.3864 -0.0602
  180SLPC  H14S20602   2.423   4.151   9.078 -1.4019  2.1705  0.2860
  180SLPC  C21520603   2.337   3.950   9.022 -0.6169  0.4015 -1.0033
  180SLPC  H15R20604   2.250   3.886   9.047 -1.4673  1.7181 -0.5903
  180SLPC  H15S20605   2.436   3.906   9.050 -1.4469 -0.4640  0.6672
  180SLPC  C21620606   2.345   3.970   8.876 -0.2969  0.6746 -0.1597
  180SLPC  H16R20607   2.409   4.056   8.848  1.4387  0.4907  3.0010
  180SLPC  H16S20608   2.241   4.001   8.850 -0.0750  0.5744 -1.2058
  180SLPC  C21720609   2.403   3.853   8.792 -0.1656 -0.2385 -0.3314
  180SLPC  H17R20610   2.354   3.767   8.840 -1.0419  0.2288 -0.3756
  180SLPC  H17S20611   2.513   3.844   8.807 -0.2098 -0.6152 -0.2322
  180SLPC  C21820612   2.369   3.863   8.635  0.6510  0.1027 -0.1790
  180SLPC  H18R20613   2.407   3.961   8.599 -0.8461  0.9894  0.6320
  180SLPC  H18S20614   2.258   3.863   8.626  0.5712  0.9034  0.7507
  180SLPC  H18T20615   2.421   3.791   8.568  0.2994  0.3039 -0.6718
  180SLPC   C3320616   2.679   4.195  10.071  0.6068  0.1312 -0.1600
  180SLPC   H3X20617   2.657   4.302  10.054 -0.6412 -0.2039 -0.7051
  180SLPC   H3Y20618   2.579   4.148  10.081  1.0965 -1.3902 -2.2022
  180SLPC   C3420619   2.759   4.131   9.960  0.5130 -0.1317 -0.2320
  180SLPC   H4X20620   2.770   4.023   9.984 -1.5437 -0.3022  0.1020
  180SLPC   H4Y20621   2.866   4.162   9.956  0.4697 -0.1258 -1.3732
  180SLPC   C3520622   2.714   4.146   9.815 -0.0774  0.2636 -0.1819
  180SLPC   H5X20623   2.727   4.254   9.794 -2.7398  0.9312  1.4588
  180SLPC   H5Y20624   2.605   4.132   9.797 -0.5138  2.0748  0.9509
  180SLPC   C3620625   2.784   4.056   9.718  0.3705 -0.4667  0.1405
  180SLPC   H6X20626   2.741   3.954   9.705 -2.9339  0.6177  2.0725
  180SLPC   H6Y20627   2.886   4.054   9.762  1.0167  0.0838 -1.2970
  180SLPC   C3720628   2.791   4.125   9.572 -0.0848  0.0905 -0.0132
  180SLPC   H7X20629   2.899   4.142   9.557 -0.2442  0.0681 -1.2026
  180SLPC   H7Y20630   2.753   4.228   9.585 -1.3367 -0.2817 -0.6113
  180SLPC   C3820631   2.733   4.048   9.452  0.3669 -0.2400 -0.0866
  180SLPC   H8X20632   2.622   4.046   9.457  0.3540 -0.3484 -0.3995
  180SLPC   H8Y20633   2.774   3.944   9.447  1.7922  0.2302  1.6085
  180SLPC   C3920634   2.769   4.119   9.316  0.0988  0.3792  0.1599
  180SLPC   H9X20635   2.873   4.158   9.319  1.3852 -2.4772 -3.3292
  180SLPC   H9Y20636   2.701   4.206   9.310  1.2816  1.2472 -0.7901
  180SLPC  C31020637   2.767   4.030   9.192  0.1429 -0.3167  0.1228
  180SLPC  H10X20638   2.670   3.975   9.191 -0.9964  1.4883  3.6835
  180SLPC  H10Y20639   2.850   3.958   9.209 -0.9261 -1.4483  0.6122
  180SLPC  C31120640   2.789   4.111   9.065  0.4777  0.1551  0.0055
  180SLPC  H11X20641   2.885   4.167   9.068  0.7499 -0.3657  1.5889
  180SLPC  H11Y20642   2.706   4.186   9.061  1.1136  1.0000  1.9854
  180SLPC  C31220643   2.779   4.026   8.938  0.1055  0.8234 -0.3154
  180SLPC  H12X20644   2.798   4.088   8.848  1.5865  0.3166 -0.3718
  180SLPC  H12Y20645   2.677   3.988   8.919 -0.9002  2.3275  1.8266
  180SLPC  C31320646   2.873   3.914   8.926  0.0940 -0.2730  0.2232
  180SLPC  H13X20647   2.867   3.856   9.021  0.4075 -0.8959 -0.1355
  180SLPC  H13Y20648   2.981   3.940   8.926  0.0011  0.1517  1.2838
  180SLPC  C31420649   2.830   3.816   8.818 -0.7494  0.0052 -0.1987
  180SLPC  H14X20650   2.836   3.864   8.719  0.9816 -0.6929 -0.4591
  180SLPC  H14Y20651   2.723   3.788   8.828 -0.3702 -2.2257 -1.9573
  180SLPC  C31520652   2.928   3.697   8.807  0.2717 -0.6179 -0.4574
  180SLPC  H15X20653   2.946   3.655   8.908  0.1309  0.7738  0.1675
  180SLPC  H15Y20654   3.023   3.743   8.773  0.2318 -1.2423 -1.4251
  180SLPC  C31620655   2.882   3.603   8.694 -0.0176  0.5999 -0.8944
  180SLPC  H16X20656   2.862   3.675   8.612 -0.4248  2.5577  0.8825
  180SLPC  H16Y20657   2.793   3.547   8.727  1.7648 -0.2122  2.7958
  180SLPC  C31720658   2.984   3.501   8.654  0.1483  0.1800 -0.0020
  180SLPC  H17X20659   3.083   3.531   8.694  0.6750  0.5939 -1.5813
  180SLPC  H17Y20660   3.001   3.497   8.544 -1.3370  1.6628 -0.2982
  180SLPC  C31820661   2.949   3.357   8.685  0.1241  0.0619 -0.2831
  180SLPC  H18X20662   2.918   3.341   8.791  1.9961 -0.1896  0.2436
  180SLPC  H18Y20663   3.037   3.291   8.667  1.0702  0.9780  0.8661
  180SLPC  H18Z20664   2.862   3.319   8.627 -1.8326 -0.5120  2.8691
  181SLPC     N20665   5.793   0.933  11.241 -0.1884  0.7226  0.1933
  181SLPC   C1320666   5.649   0.971  11.271 -0.6651 -0.1910  0.2716
  181SLPC  H13A20667   5.574   0.930  11.205 -3.4372  0.3083  2.9888
  181SLPC  H13B20668   5.621   0.938  11.370 -0.0354  0.6586  0.7388
  181SLPC  H13C20669   5.631   1.077  11.258 -1.9049 -0.3448  0.6986
  181SLPC   C1420670   5.832   0.944  11.095 -0.6067  0.0734 -0.5150
  181SLPC  H14A20671   5.932   0.904  11.092  0.0847  1.6434  0.8832
  181SLPC  H14B20672   5.763   0.889  11.032  0.5500  0.0187 -1.7439
  181SLPC  H14C20673   5.840   1.047  11.065  2.5995 -0.5704 -2.0270
  181SLPC   C1520674   5.815   0.795  11.284  0.1599 -0.0794 -0.0372
  181SLPC  H15A20675   5.917   0.765  11.264  0.5122  1.4349 -0.5845
  181SLPC  H15B20676   5.795   0.781  11.389 -0.2847  3.5129  0.4305
  181SLPC  H15C20677   5.756   0.736  11.215  2.4540 -1.6262 -0.7314
  181SLPC   C1220678   5.883   1.028  11.317  0.2198 -0.1984 -0.6531
  181SLPC  H12A20679   5.984   1.016  11.283  1.0359  0.5566  1.4229
  181SLPC  H12B20680   5.883   1.011  11.424  0.0140 -0.6178 -0.7193
  181SLPC   C1120681   5.849   1.183  11.290  0.0192  0.7036 -0.3369
  181SLPC  H11A20682   5.905   1.252  11.357  1.7118  0.1287 -1.1382
  181SLPC  H11B20683   5.744   1.199  11.323 -1.3941 -0.6714 -3.9883
  181SLPC     P20684   5.913   1.367  11.112 -0.2509  0.0453  0.1936
  181SLPC   O1320685   5.875   1.453  11.232  0.2970 -0.0549  1.2219
  181SLPC   O1420686   6.047   1.383  11.055 -0.4263  0.4771 -0.4090
  181SLPC   O1220687   5.884   1.218  11.152  0.1178 -0.0207 -0.9877
  181SLPC   O1120688   5.813   1.392  10.986 -0.0903 -0.0431  0.0565
  181SLPC    C120689   5.731   1.516  10.991  0.6527  0.1772 -0.7520
  181SLPC    HA20690   5.633   1.498  11.039  0.7159  0.3403 -0.5668
  181SLPC    HB20691   5.776   1.602  11.043  0.3306 -0.5589  0.7576
  181SLPC    C220692   5.707   1.571  10.841 -0.8899 -0.6471  0.2783
  181SLPC    HS20693   5.636   1.657  10.850 -0.4129  0.0247 -1.9601
  181SLPC   O2120694   5.656   1.463  10.763 -0.7815 -0.0855  0.0661
  181SLPC   C2120695   5.525   1.456  10.781 -0.2856  0.2031 -0.4963
  181SLPC   O2220696   5.458   1.520  10.861  0.3161 -0.2231 -0.0378
  181SLPC   C2220697   5.476   1.333  10.701  0.2909 -0.9276 -0.0287
  181SLPC   H2R20698   5.566   1.273  10.676  0.0847 -0.2182 -2.5778
  181SLPC   H2S20699   5.410   1.281  10.774 -2.0178  1.5291 -0.2980
  181SLPC    C320700   5.835   1.626  10.780  0.1418 -0.4608 -0.3047
  181SLPC    HX20701   5.905   1.540  10.771 -0.5195 -0.8320 -2.1960
  181SLPC    HY20702   5.885   1.702  10.844 -0.4958 -0.1563 -0.1691
  181SLPC   O3120703   5.805   1.672  10.648  0.6152  0.1951 -0.1817
  181SLPC   C3120704   5.796   1.798  10.621  0.2319 -0.7228  0.4832
  181SLPC   O3220705   5.808   1.891  10.698  0.7806 -0.8822  0.2516
  181SLPC   C3220706   5.758   1.816  10.474 -0.2695 -0.0209  0.1630
  181SLPC   H2X20707   5.791   1.918  10.443  0.5757 -0.0237  1.0414
  181SLPC   H2Y20708   5.648   1.817  10.462 -0.0644  0.0086 -1.8546
  181SLPC   C2320709   5.404   1.373  10.575  1.2015 -0.6400 -0.3694
  181SLPC   H3R20710   5.321   1.446  10.586  0.8227 -1.2194  0.7166
  181SLPC   H3S20711   5.346   1.284  10.540 -0.7445 -0.1311  1.5052
  181SLPC   C2420712   5.491   1.445  10.462 -0.0689 -0.8550  0.0181
  181SLPC   H4R20713   5.580   1.378  10.461  0.0447 -0.7214  0.7971
  181SLPC   H4S20714   5.524   1.546  10.496  0.0295 -0.9248  0.1320
  181SLPC   C2520715   5.404   1.459  10.334 -0.4763 -0.4175 -0.0146
  181SLPC   H5R20716   5.327   1.537  10.354 -0.9905 -0.7670 -0.5947
  181SLPC   H5S20717   5.361   1.358  10.319  0.1119 -0.2802 -2.8806
  181SLPC   C2620718   5.488   1.521  10.224  0.0912  0.8488  0.4324
  181SLPC   H6R20719   5.586   1.468  10.219 -0.2431 -0.1784  3.9140
  181SLPC   H6S20720   5.496   1.631  10.239 -2.4238  1.1684 -0.2869
  181SLPC   C2720721   5.418   1.495  10.089 -0.5125  0.3669 -0.4142
  181SLPC   H7R20722   5.331   1.562  10.104  0.0966  0.5453  2.6228
  181SLPC   H7S20723   5.376   1.393  10.076  0.7991 -0.3146  0.5900
  181SLPC   C2820724   5.492   1.555   9.976  0.3820 -0.0396 -0.2734
  181SLPC   H8R20725   5.521   1.660  10.001  2.4958 -0.7053  0.2625
  181SLPC   H8S20726   5.420   1.560   9.892 -1.1113  0.7308  1.0346
  181SLPC   C2920727   5.604   1.466   9.937 -0.7586  0.6256  0.7972
  181SLPC   H9R20728   5.688   1.471  10.008 -2.1311 -2.0530  2.7385
  181SLPC  C21020729   5.599   1.373   9.840 -0.3690 -0.1678 -0.3400
  181SLPC  H10R20730   5.697   1.329   9.815 -0.2840 -0.1995  0.0406
  181SLPC  C21120731   5.486   1.350   9.742  0.7525 -0.3846  0.2715
  181SLPC  H11R20732   5.515   1.412   9.655  3.1992 -1.1352  0.5033
  181SLPC  H11S20733   5.392   1.385   9.788  0.6810 -0.4622  0.1832
  181SLPC  C21220734   5.474   1.201   9.703 -0.2806 -0.3536  0.3929
  181SLPC  H12R20735   5.457   1.137   9.791  1.2638  2.1535  2.6082
  181SLPC  C21320736   5.477   1.141   9.580 -0.2330  0.6565  0.6630
  181SLPC  H13R20737   5.464   1.032   9.575  0.3912  0.6455 -0.8567
  181SLPC  C21420738   5.499   1.216   9.452 -0.1697 -0.0783 -0.3094
  181SLPC  H14R20739   5.474   1.322   9.469 -1.5394 -0.3022 -0.8197
  181SLPC  H14S20740   5.430   1.178   9.374  0.7774  1.1997 -1.7816
  181SLPC  C21520741   5.647   1.225   9.406 -0.4388  0.3346  0.1108
  181SLPC  H15R20742   5.685   1.121   9.397  0.1503  0.7981 -3.3999
  181SLPC  H15S20743   5.693   1.286   9.487 -2.7840  0.1065  1.6387
  181SLPC  C21620744   5.659   1.293   9.263 -0.6139 -0.3887 -0.3526
  181SLPC  H16R20745   5.764   1.325   9.247  0.2127 -2.4693  0.7075
  181SLPC  H16S20746   5.602   1.389   9.272  1.0887  0.4628  2.1444
  181SLPC  C21720747   5.609   1.205   9.143  0.2400  0.1724 -0.3064
  181SLPC  H17R20748   5.531   1.133   9.175  1.0070 -0.0119  1.1913
  181SLPC  H17S20749   5.693   1.140   9.111 -0.8588 -1.1454 -0.5278
  181SLPC  C21820750   5.553   1.280   9.022 -0.2738  0.4788 -0.4476
  181SLPC  H18R20751   5.629   1.330   8.959 -1.3161  1.7021 -0.7484
  181SLPC  H18S20752   5.463   1.340   9.048 -0.3824 -0.0143  0.3489
  181SLPC  H18T20753   5.511   1.210   8.946 -0.8530  0.3092  0.0242
  181SLPC   C3320754   5.827   1.717  10.377 -0.4411 -0.0867 -0.3007
  181SLPC   H3X20755   5.805   1.614  10.414 -0.1958  0.6838  2.0152
  181SLPC   H3Y20756   5.934   1.742  10.389 -0.7493  1.6487 -1.0555
  181SLPC   C3420757   5.807   1.757  10.228 -0.2003  0.0563  1.0537
  181SLPC   H4X20758   5.836   1.863  10.208  0.4668  0.0909  2.1956
  181SLPC   H4Y20759   5.700   1.759  10.199  0.5289  2.4631 -1.8388
  181SLPC   C3520760   5.888   1.663  10.134 -0.7269  1.0917  0.5487
  181SLPC   H5X20761   5.882   1.699  10.029  1.0732  2.7840  1.0024
  181SLPC   H5Y20762   5.859   1.556  10.146 -2.3388  1.4025 -0.4960
  181SLPC   C3620763   6.039   1.666  10.163  0.3988  0.0510 -0.2004
  181SLPC   H6X20764   6.097   1.603  10.093  1.2801 -0.1237  0.6764
  181SLPC   H6Y20765   6.060   1.630  10.266  3.1902  0.9565 -0.4217
  181SLPC   C3720766   6.101   1.804  10.145 -0.4055 -0.5829 -0.4059
  181SLPC   H7X20767   6.044   1.885  10.196  0.3009 -0.7787  0.7269
  181SLPC   H7Y20768   6.087   1.839  10.041  0.5479  1.3865  0.1006
  181SLPC   C3820769   6.245   1.802  10.190 -1.0725  0.1447 -0.1393
  181SLPC   H8X20770   6.304   1.741  10.118  0.6717  1.3553  0.2329
  181SLPC   H8Y20771   6.253   1.756  10.291 -1.2296  1.0914  0.3128
  181SLPC   C3920772   6.320   1.930  10.194  0.0977  0.1116 -0.5962
  181SLPC   H9X20773   6.428   1.907  10.204 -0.4756 -3.0654 -1.4556
  181SLPC   H9Y20774   6.287   1.980  10.288 -0.4795 -0.2906 -0.5876
  181SLPC  C31020775   6.308   2.013  10.062 -0.4928 -0.2938  0.6308
  181SLPC  H10X20776   6.379   2.097  10.074  1.8254 -2.1709  0.2899
  181SLPC  H10Y20777   6.204   2.052  10.050 -0.0454  0.8004  0.2688
  181SLPC  C31120778   6.355   1.932   9.942 -0.4842 -0.0497  0.1828
  181SLPC  H11X20779   6.282   1.853   9.918 -0.7841  0.3451 -0.2163
  181SLPC  H11Y20780   6.454   1.884   9.955 -0.2287  0.7976  1.5392
  181SLPC  C31220781   6.361   2.021   9.810  0.7962  0.0540  0.2383
  181SLPC  H12X20782   6.414   2.115   9.838  2.8660 -0.5822 -1.4172
  181SLPC  H12Y20783   6.257   2.055   9.790 -0.3814 -2.2828  2.2103
  181SLPC  C31320784   6.432   1.960   9.686 -0.4027 -0.8296 -1.4534
  181SLPC  H13X20785   6.355   1.886   9.655 -1.0978 -0.4443 -0.6614
  181SLPC  H13Y20786   6.536   1.927   9.707  0.3762  0.2025 -3.5740
  181SLPC  C31420787   6.430   2.053   9.567 -0.1741 -0.2945  0.3038
  181SLPC  H14X20788   6.512   2.128   9.580  1.2815 -1.6499 -0.8279
  181SLPC  H14Y20789   6.332   2.104   9.557 -0.2564 -0.0920  1.9428
  181SLPC  C31520790   6.455   1.981   9.435  0.1784 -0.3635  0.2838
  181SLPC  H15X20791   6.381   1.898   9.439 -0.5438  0.2653  0.0542
  181SLPC  H15Y20792   6.553   1.930   9.427 -0.0737 -0.6484 -1.0300
  181SLPC  C31620793   6.428   2.068   9.314 -0.2424 -0.4646 -0.7461
  181SLPC  H16X20794   6.332   2.123   9.330  0.4124  0.1535  1.1636
  181SLPC  H16Y20795   6.419   1.999   9.227 -0.9194 -1.5408  0.1577
  181SLPC  C31720796   6.530   2.181   9.304 -0.7276 -0.1695  0.2068
  181SLPC  H17X20797   6.632   2.135   9.298 -0.6552  0.1219 -0.7318
  181SLPC  H17Y20798   6.524   2.233   9.402  0.4678 -1.4082  0.9696
  181SLPC  C31820799   6.491   2.281   9.191 -0.2647  0.6862  0.3726
  181SLPC  H18X20800   6.393   2.324   9.220 -0.6612  0.0397  0.0007
  181SLPC  H18Y20801   6.471   2.222   9.099  0.8517 -0.0354  0.5890
  181SLPC  H18Z20802   6.569   2.359   9.179  0.7250 -0.2102  0.8739
  182SLPC     N20803   4.096   2.844  11.082 -0.8695  0.3454  0.2920
  182SLPC   C1320804   3.968   2.772  11.091  0.0617  0.4733  0.0418
  182SLPC  H13A20805   3.896   2.844  11.129 -0.1667 -0.0317  0.5695
  182SLPC  H13B20806   3.929   2.746  10.995  0.9279  0.6307 -0.3635
  182SLPC  H13C20807   3.963   2.682  11.150 -0.7421  0.7373  0.3895
  182SLPC   C1420808   4.141   2.887  11.223 -0.0473  0.1398  0.1723
  182SLPC  H14A20809   4.054   2.935  11.267  0.6917  1.9363 -0.2679
  182SLPC  H14B20810   4.163   2.801  11.284  1.7007  0.7800  0.4955
  182SLPC  H14C20811   4.224   2.957  11.225  0.3448 -0.3515  3.2997
  182SLPC   C1520812   4.080   2.970  11.000  0.0684  0.4360 -0.3738
  182SLPC  H15A20813   4.169   3.031  11.002  1.0767 -0.9778 -0.9685
  182SLPC  H15B20814   4.050   2.943  10.900  1.1635 -1.7343 -0.1630
  182SLPC  H15C20815   4.003   3.024  11.052 -1.6916 -2.4105  0.0576
  182SLPC   C1220816   4.206   2.762  11.017 -0.4075  0.4721  0.4708
  182SLPC  H12A20817   4.224   2.679  11.083 -3.5548 -0.1687  0.5744
  182SLPC  H12B20818   4.293   2.826  11.021  0.2130 -0.1407 -2.4149
  182SLPC   C1120819   4.178   2.710  10.872  0.8531  0.2894  0.8581
  182SLPC  H11A20820   4.271   2.667  10.829  0.0204  0.6875 -1.3905
  182SLPC  H11B20821   4.156   2.803  10.817 -0.0723 -0.0193  0.6890
  182SLPC     P20822   4.098   2.474  10.879  0.4393  0.2228 -0.0870
  182SLPC   O1320823   4.168   2.457  11.006 -0.0445 -0.2960  0.2681
  182SLPC   O1420824   3.974   2.402  10.863 -0.5845 -0.1995 -0.0544
  182SLPC   O1220825   4.062   2.629  10.873  0.3389 -0.3666 -0.3590
  182SLPC   O1120826   4.191   2.454  10.753  0.3216 -0.3982 -0.3657
  182SLPC    C120827   4.146   2.454  10.618 -0.1036  0.0801  0.3878
  182SLPC    HA20828   4.165   2.352  10.577 -0.4301  0.6688 -1.2981
  182SLPC    HB20829   4.040   2.482  10.604 -0.3689 -0.1674  1.8203
  182SLPC    C220830   4.238   2.550  10.527 -0.6684 -0.4098 -0.3534
  182SLPC    HS20831   4.197   2.652  10.548  0.8989  0.3839 -1.1332
  182SLPC   O2120832   4.235   2.505  10.389 -0.0997 -0.3077  0.2156
  182SLPC   C2120833   4.135   2.559  10.323  0.5342 -0.7532  0.1245
  182SLPC   O2220834   4.054   2.637  10.366  0.3653  0.5511 -0.1554
  182SLPC   C2220835   4.121   2.492  10.192 -0.0397 -0.6675  0.0550
  182SLPC   H2R20836   4.205   2.527  10.129  0.8833 -2.5458  0.1948
  182SLPC   H2S20837   4.124   2.383  10.212 -0.3872 -1.1328 -2.3416
  182SLPC    C320838   4.382   2.553  10.580  0.4642 -0.4071 -0.1351
  182SLPC    HX20839   4.403   2.444  10.593  0.1424 -0.6468 -1.5824
  182SLPC    HY20840   4.396   2.611  10.674  2.0111  1.8616 -1.7364
  182SLPC   O3120841   4.468   2.616  10.486  0.1522 -0.0611 -0.3692
  182SLPC   C3120842   4.599   2.621  10.506 -0.0453  0.1552  0.5942
  182SLPC   O3220843   4.651   2.563  10.598 -0.3990 -0.2385 -0.1855
  182SLPC   C3220844   4.657   2.720  10.407  0.6643 -0.0502  0.0104
  182SLPC   H2X20845   4.593   2.809  10.390  2.6726  1.5146  0.4640
  182SLPC   H2Y20846   4.659   2.664  10.311  1.0175 -0.0975  0.0470
  182SLPC   C2320847   3.978   2.525  10.127 -0.2215  0.4301  0.3885
  182SLPC   H3R20848   3.946   2.631  10.124  1.2746  0.9041  0.9738
  182SLPC   H3S20849   3.909   2.468  10.192  1.0328 -2.7328 -0.9668
  182SLPC   C2420850   3.957   2.461   9.991 -0.5916  0.3571 -0.2001
  182SLPC   H4R20851   4.007   2.363  10.009 -0.3226  0.3253 -1.1057
  182SLPC   H4S20852   4.024   2.509   9.917  0.9744 -0.9555  0.3198
  182SLPC   C2520853   3.814   2.440   9.939 -0.8590 -0.6080 -0.5917
  182SLPC   H5R20854   3.762   2.538   9.936  0.3745  0.0173 -1.6863
  182SLPC   H5S20855   3.778   2.372  10.020  4.1233 -0.2358  2.1311
  182SLPC   C2620856   3.812   2.375   9.800  0.5230 -0.4762  0.2518
  182SLPC   H6R20857   3.866   2.278   9.798 -1.9103 -1.8710 -0.6822
  182SLPC   H6S20858   3.852   2.444   9.723 -1.7996 -0.0406 -0.6079
  182SLPC   C2720859   3.659   2.362   9.763 -0.2533 -0.0756  0.3546
  182SLPC   H7R20860   3.599   2.441   9.812 -1.2505 -0.2934 -0.4875
  182SLPC   H7S20861   3.631   2.264   9.808  1.6103  0.2221  2.2373
  182SLPC   C2820862   3.637   2.357   9.606  0.0624  0.7588 -0.0259
  182SLPC   H8R20863   3.693   2.273   9.558  1.7167  1.5656  0.4627
  182SLPC   H8S20864   3.666   2.452   9.555 -2.0044  0.7447 -1.2911
  182SLPC   C2920865   3.485   2.330   9.577 -0.2193  0.4315  0.1519
  182SLPC   H9R20866   3.415   2.329   9.662  1.1279 -0.2524  1.2753
  182SLPC  C21020867   3.435   2.313   9.455  0.3651 -0.0464 -0.6274
  182SLPC  H10R20868   3.328   2.288   9.460  0.0537  1.1928 -0.8662
  182SLPC  C21120869   3.514   2.308   9.327 -0.2028 -0.1663  0.2286
  182SLPC  H11R20870   3.618   2.339   9.349 -0.7150  1.0380  0.9973
  182SLPC  H11S20871   3.481   2.387   9.256  2.2401  1.0483  0.4237
  182SLPC  C21220872   3.528   2.165   9.273  0.6641 -0.1705 -0.4447
  182SLPC  H12R20873   3.500   2.089   9.347  0.3519 -0.7345 -1.1406
  182SLPC  C21320874   3.566   2.123   9.150  0.1869  0.3121  0.1595
  182SLPC  H13R20875   3.564   2.020   9.112  0.9038  0.4181 -0.1727
  182SLPC  C21420876   3.608   2.222   9.042  0.0980  0.4550 -0.2435
  182SLPC  H14R20877   3.708   2.192   9.005 -0.8364 -1.7272 -1.1223
  182SLPC  H14S20878   3.632   2.323   9.081  0.5284  1.5328 -3.1688
  182SLPC  C21520879   3.516   2.246   8.922 -0.3719  0.5939  0.0293
  182SLPC  H15R20880   3.499   2.156   8.859 -0.5420  1.6878 -1.5088
  182SLPC  H15S20881   3.558   2.316   8.847 -2.9502  2.1434 -0.0253
  182SLPC  C21620882   3.395   2.325   8.967  0.0589 -0.7991  0.4108
  182SLPC  H16R20883   3.420   2.420   9.020  0.0114  0.3943 -1.6369
  182SLPC  H16S20884   3.334   2.258   9.031 -1.0237 -1.0133 -0.8339
  182SLPC  C21720885   3.311   2.366   8.837 -0.0677  0.2519 -0.0172
  182SLPC  H17R20886   3.259   2.273   8.804  1.7501 -0.2020 -1.7561
  182SLPC  H17S20887   3.381   2.405   8.760 -1.5337  1.0433 -0.9697
  182SLPC  C21820888   3.209   2.466   8.886  0.3814  0.7349 -0.0377
  182SLPC  H18R20889   3.133   2.426   8.956  0.7961  0.7284  0.4073
  182SLPC  H18S20890   3.163   2.503   8.792  1.8954 -1.1682 -1.5695
  182SLPC  H18T20891   3.244   2.547   8.953 -0.1224  2.5458 -1.9053
  182SLPC   C3320892   4.793   2.776  10.433 -0.5843 -0.5475  1.0434
  182SLPC   H3X20893   4.855   2.693  10.473  0.4651 -0.9260 -1.2660
  182SLPC   H3Y20894   4.792   2.845  10.520  0.8685  1.3917 -0.4171
  182SLPC   C3420895   4.857   2.837  10.302 -0.8046 -0.3292  0.6432
  182SLPC   H4X20896   4.865   2.747  10.237 -1.0041 -1.5810  2.3337
  182SLPC   H4Y20897   4.960   2.876  10.321 -0.7276 -1.2641  2.2248
  182SLPC   C3520898   4.778   2.953  10.240 -0.2780 -0.0038 -0.4441
  182SLPC   H5X20899   4.776   3.042  10.306 -0.6512 -0.3533  0.0240
  182SLPC   H5Y20900   4.673   2.925  10.216 -0.1447  1.7955 -3.2850
  182SLPC   C3620901   4.828   3.010  10.113 -0.1436 -0.5483 -0.1438
  182SLPC   H6X20902   4.826   2.921  10.046  2.1872 -0.5918 -0.1994
  182SLPC   H6Y20903   4.934   3.034  10.134 -0.6608  0.1816  1.7480
  182SLPC   C3720904   4.738   3.122  10.056 -1.0768  0.3933 -0.5357
  182SLPC   H7X20905   4.768   3.221  10.097 -1.0513 -0.3148  1.1857
  182SLPC   H7Y20906   4.636   3.101  10.095  0.8649 -1.0938  4.0801
  182SLPC   C3820907   4.743   3.147   9.900 -0.1567 -0.1954 -0.1945
  182SLPC   H8X20908   4.853   3.155   9.886 -0.1387  1.9164  1.0042
  182SLPC   H8Y20909   4.704   3.246   9.871 -0.4093 -0.3814 -0.4899
  182SLPC   C3920910   4.686   3.037   9.810 -0.4481 -0.1558  0.5492
  182SLPC   H9X20911   4.578   3.023   9.828  0.0486 -1.4521  2.8059
  182SLPC   H9Y20912   4.722   2.932   9.818  0.9282  0.3151  0.7888
  182SLPC  C31020913   4.726   3.062   9.659 -0.3471 -0.2228 -0.1875
  182SLPC  H10X20914   4.706   2.969   9.601  0.9165  0.2301 -1.3703
  182SLPC  H10Y20915   4.835   3.085   9.653 -0.4966  1.1915  1.9765
  182SLPC  C31120916   4.651   3.184   9.603  0.2219  0.6610 -0.7210
  182SLPC  H11X20917   4.681   3.283   9.643  1.9848  0.0689 -0.5152
  182SLPC  H11Y20918   4.546   3.164   9.634 -0.0168  2.0047 -0.6386
  182SLPC  C31220919   4.651   3.187   9.450 -0.0476  0.5860 -0.4034
  182SLPC  H12X20920   4.587   3.271   9.416  0.2304  1.1021  0.3287
  182SLPC  H12Y20921   4.617   3.091   9.406 -0.3539 -0.8367  2.8254
  182SLPC  C31320922   4.788   3.219   9.391  0.3359 -0.1663 -0.3429
  182SLPC  H13X20923   4.854   3.140   9.433  0.8161  0.4939  0.1599
  182SLPC  H13Y20924   4.826   3.317   9.426  1.0641 -0.7243  0.4587
  182SLPC  C31420925   4.783   3.210   9.240 -0.5125 -0.3776 -0.7488
  182SLPC  H14X20926   4.691   3.263   9.209  0.5857  1.7042 -0.5472
  182SLPC  H14Y20927   4.768   3.103   9.214 -1.0051 -0.6770  0.7727
  182SLPC  C31520928   4.905   3.258   9.163  0.3477 -0.4898  0.3806
  182SLPC  H15X20929   4.928   3.361   9.199 -1.8254  0.1009  0.1611
  182SLPC  H15Y20930   4.860   3.256   9.061  0.6313  0.8345  0.2099
  182SLPC  C31620931   5.019   3.159   9.164  0.2873 -0.4716  0.5346
  182SLPC  H16X20932   4.981   3.059   9.136 -0.8552  0.5992 -1.8439
  182SLPC  H16Y20933   5.053   3.161   9.270  0.5908  2.6268  0.4206
  182SLPC  C31720934   5.128   3.193   9.058  0.9634  0.3746 -0.3186
  182SLPC  H17X20935   5.162   3.296   9.084  0.9703  0.3775 -0.3398
  182SLPC  H17Y20936   5.088   3.209   8.956  1.6543  0.0175 -0.6506
  182SLPC  C31820937   5.246   3.102   9.041 -0.4177  0.0133 -0.0480
  182SLPC  H18X20938   5.321   3.120   9.121 -2.4140  1.3433  1.6072
  182SLPC  H18Y20939   5.298   3.133   8.948 -0.7227 -0.7023 -0.4604
  182SLPC  H18Z20940   5.218   2.994   9.039  0.1997 -0.1810  1.0515
  183SLPC     N20941   4.730   4.279  10.712 -0.5459 -0.0963 -0.8800
  183SLPC   C1320942   4.620   4.306  10.815  0.0496  0.6020 -0.3441
  183SLPC  H13A20943   4.559   4.386  10.776  0.3522  1.5960  1.1905
  183SLPC  H13B20944   4.557   4.220  10.830 -2.5089  2.0344 -2.3326
  183SLPC  H13C20945   4.664   4.347  10.904 -0.0113  1.5746 -0.7538
  183SLPC   C1420946   4.820   4.397  10.699  0.0281 -0.3163  0.0347
  183SLPC  H14A20947   4.916   4.358  10.666 -0.1011 -0.4656 -0.1652
  183SLPC  H14B20948   4.784   4.462  10.621  2.3929  0.0961 -0.7658
  183SLPC  H14C20949   4.818   4.460  10.787  1.3491 -2.0109  1.3165
  183SLPC   C1520950   4.662   4.245  10.585 -0.2921  0.5134 -0.2504
  183SLPC  H15A20951   4.735   4.211  10.512 -0.2514 -1.2229  0.5675
  183SLPC  H15B20952   4.585   4.171  10.597 -1.2743  1.6686  0.7414
  183SLPC  H15C20953   4.628   4.332  10.532  2.1070  0.5740 -1.7676
  183SLPC   C1220954   4.805   4.161  10.767 -0.3636  0.1050 -0.4920
  183SLPC  H12A20955   4.745   4.074  10.788 -0.6196  0.1032 -1.2257
  183SLPC  H12B20956   4.843   4.192  10.863  0.9479 -0.8289 -0.6952
  183SLPC   C1120957   4.932   4.110  10.694  0.2065  0.2501 -0.7274
  183SLPC  H11A20958   4.917   4.093  10.585  0.4975  3.7178 -1.3518
  183SLPC  H11B20959   4.973   4.017  10.739  0.5365 -0.6270 -2.7648
  183SLPC     P20960   5.168   4.197  10.613  0.6737  0.1042  0.0273
  183SLPC   O1320961   5.141   4.208  10.469  0.0618  0.4888  0.3907
  183SLPC   O1420962   5.281   4.279  10.661  0.3947 -0.4131  0.1212
  183SLPC   O1220963   5.035   4.217  10.702  0.0642 -0.5411  0.0935
  183SLPC   O1120964   5.196   4.049  10.656 -0.6028 -0.2972  0.3490
  183SLPC    C120965   5.305   3.970  10.598  0.1591  0.4688 -0.5333
  183SLPC    HA20966   5.394   4.028  10.568 -0.0633  1.0283 -0.1225
  183SLPC    HB20967   5.349   3.909  10.680 -0.4373  0.5919 -0.1155
  183SLPC    C220968   5.264   3.870  10.484 -0.3585  0.0667  0.5250
  183SLPC    HS20969   5.209   3.789  10.537  0.5555 -0.7173  0.3053
  183SLPC   O2120970   5.384   3.817  10.414 -0.4955 -0.1562 -0.4163
  183SLPC   C2120971   5.435   3.716  10.477  0.3788 -0.1077  1.5098
  183SLPC   O2220972   5.394   3.664  10.575  0.2956  0.2656  0.1237
  183SLPC   C2220973   5.552   3.665  10.393 -0.4630  0.1392  0.3193
  183SLPC   H2R20974   5.511   3.660  10.290 -2.1078  2.4676  0.8258
  183SLPC   H2S20975   5.631   3.743  10.394 -1.7288  1.4801 -0.9446
  183SLPC    C320976   5.174   3.929  10.377  0.0877 -0.0386 -0.5062
  183SLPC    HX20977   5.236   4.013  10.339 -1.0042  1.5990  1.2428
  183SLPC    HY20978   5.081   3.968  10.424 -0.0457 -1.5177  0.5161
  183SLPC   O3120979   5.151   3.836  10.269 -0.0132 -0.2364 -0.2513
  183SLPC   C3120980   5.037   3.772  10.275  0.3121 -0.0088  0.0321
  183SLPC   O3220981   4.945   3.790  10.357 -0.6115 -0.7251  0.2292
  183SLPC   C3220982   5.039   3.660  10.168  0.0987  0.6248 -0.1299
  183SLPC   H2X20983   4.953   3.678  10.100 -0.1437  1.0595  0.2829
  183SLPC   H2Y20984   5.016   3.568  10.227 -1.1134 -0.3648 -2.0800
  183SLPC   C2320985   5.608   3.535  10.441 -0.4371  0.5347  0.2828
  183SLPC   H3R20986   5.524   3.463  10.435 -1.1255  1.5390 -3.6215
  183SLPC   H3S20987   5.644   3.546  10.545  1.5780 -1.0186 -0.2209
  183SLPC   C2420988   5.727   3.471  10.368 -0.3102  1.3216 -0.8374
  183SLPC   H4R20989   5.690   3.430  10.272  0.7610 -3.3874  0.6243
  183SLPC   H4S20990   5.757   3.382  10.428  1.1173 -1.0194 -4.8213
  183SLPC   C2520991   5.844   3.571  10.331  0.8475  0.3326  0.2840
  183SLPC   H5R20992   5.866   3.621  10.428 -1.8578  1.1237  0.5431
  183SLPC   H5S20993   5.809   3.647  10.258  1.8454 -0.9122 -1.5285
  183SLPC   C2620994   5.967   3.496  10.284 -0.2067  0.1137  0.1849
  183SLPC   H6R20995   5.986   3.409  10.351  0.3539  0.0621 -0.0396
  183SLPC   H6S20996   6.045   3.575  10.287 -1.1322  1.1547 -2.0852
  183SLPC   C2720997   5.952   3.443  10.133 -0.2697 -0.4923 -0.2104
  183SLPC   H7R20998   5.925   3.527  10.066  1.0002 -0.7141 -1.0099
  183SLPC   H7S20999   5.865   3.374  10.124 -1.4930  1.0846 -0.5956
  183SLPC   C2821000   6.087   3.382  10.084  0.6968 -0.1251  0.0414
  183SLPC   H8R21001   6.064   3.327   9.990 -0.5779  1.4332 -0.5673
  183SLPC   H8S21002   6.113   3.299  10.153  0.7678 -2.6126 -2.8864
  183SLPC   C2921003   6.212   3.455  10.083  0.1247  0.0092 -0.2590
  183SLPC   H9R21004   6.259   3.483  10.179  3.5240 -2.0612 -1.2165
  183SLPC  C21021005   6.278   3.487   9.970 -0.4488  0.7810  0.0676
  183SLPC  H10R21006   6.380   3.528   9.977  0.6134 -2.0759  2.1909
  183SLPC  C21121007   6.243   3.456   9.826 -0.0083 -0.4812 -0.0892
  183SLPC  H11R21008   6.207   3.351   9.821 -2.9956  0.4782  0.4379
  183SLPC  H11S21009   6.336   3.463   9.765 -0.7041 -0.9250 -1.2164
  183SLPC  C21221010   6.140   3.553   9.766 -0.6174  0.0803  0.5611
  183SLPC  H12R21011   6.091   3.619   9.839  0.8115  0.4947  1.1500
  183SLPC  C21321012   6.109   3.543   9.637 -0.1717 -0.6876 -0.1746
  183SLPC  H13R21013   6.051   3.624   9.590 -0.9269 -1.8785 -1.3686
  183SLPC  C21421014   6.179   3.449   9.541 -0.0362  0.2387 -0.2656
  183SLPC  H14R21015   6.112   3.365   9.516  0.5564 -1.1249  2.5536
  183SLPC  H14S21016   6.270   3.401   9.584 -1.3040  0.0452  2.3106
  183SLPC  C21521017   6.213   3.517   9.411  0.5201 -0.7657 -0.0444
  183SLPC  H15R21018   6.129   3.570   9.362  0.3721  1.2083  2.2645
  183SLPC  H15S21019   6.243   3.436   9.340  0.4494  0.1093 -1.0762
  183SLPC  C21621020   6.316   3.627   9.421 -0.0816  0.6357 -0.2983
  183SLPC  H16R21021   6.384   3.599   9.505 -0.3711 -1.7484 -0.8365
  183SLPC  H16S21022   6.268   3.720   9.458  0.0378  0.3435  0.6130
  183SLPC  C21721023   6.400   3.651   9.293 -0.2957 -0.8514  0.0803
  183SLPC  H17R21024   6.470   3.566   9.281  0.9850  0.2934 -0.7756
  183SLPC  H17S21025   6.454   3.747   9.310 -0.8746 -0.5659  0.3279
  183SLPC  C21821026   6.328   3.658   9.156 -0.6582  0.4920 -0.3815
  183SLPC  H18R21027   6.267   3.750   9.162 -0.0035  0.8699  0.6243
  183SLPC  H18S21028   6.249   3.581   9.144  0.6892 -0.6225 -2.3874
  183SLPC  H18T21029   6.396   3.661   9.068  0.3761 -0.7657  0.3391
  183SLPC   C3321030   5.163   3.645  10.072  0.0428 -0.7461 -0.1331
  183SLPC   H3X21031   5.256   3.633  10.133 -0.6610 -0.3451  1.0501
  183SLPC   H3Y21032   5.181   3.734  10.009 -1.6444  0.4889  1.0799
  183SLPC   C3421033   5.141   3.518   9.988  0.7383 -0.5685 -0.0346
  183SLPC   H4X21034   5.086   3.436  10.038  0.2918 -0.2749 -0.0424
  183SLPC   H4Y21035   5.242   3.482   9.959  0.1788 -1.0720 -1.4482
  183SLPC   C3521036   5.067   3.554   9.867  0.4594 -0.3190  0.0581
  183SLPC   H5X21037   5.132   3.629   9.817  1.1784  0.6884  2.4371
  183SLPC   H5Y21038   4.971   3.607   9.882  1.3420  2.1243 -2.4320
  183SLPC   C3621039   5.041   3.437   9.770  0.2027 -0.1268 -0.0113
  183SLPC   H6X21040   5.011   3.491   9.678  0.7349 -0.6852 -0.5149
  183SLPC   H6Y21041   4.957   3.377   9.810 -1.8468  0.6721 -2.9472
  183SLPC   C3721042   5.164   3.359   9.734  0.5735  0.1967 -0.1921
  183SLPC   H7X21043   5.211   3.306   9.821  3.6509  0.7436 -1.4486
  183SLPC   H7Y21044   5.239   3.435   9.703 -1.5151  2.0512 -0.8074
  183SLPC   C3821045   5.134   3.244   9.634  0.5700  0.2340 -0.0436
  183SLPC   H8X21046   5.085   3.289   9.545 -0.6753 -0.1753  0.4206
  183SLPC   H8Y21047   5.071   3.165   9.679 -0.2124  0.2971 -1.0236
  183SLPC   C3921048   5.252   3.167   9.576  0.2143 -0.7151  0.3559
  183SLPC   H9X21049   5.213   3.087   9.509  3.4360 -1.8291 -0.2903
  183SLPC   H9Y21050   5.305   3.109   9.655  2.1035  0.6234  0.1061
  183SLPC  C31021051   5.358   3.263   9.514  0.2755  0.8779 -0.3897
  183SLPC  H10X21052   5.422   3.304   9.595 -1.3533  0.2544  1.2598
  183SLPC  H10Y21053   5.298   3.346   9.470  1.2655  1.4282 -0.6974
  183SLPC  C31121054   5.440   3.182   9.422  0.0903  0.6108  0.2416
  183SLPC  H11X21055   5.376   3.134   9.344 -0.6647  0.7800  0.7538
  183SLPC  H11Y21056   5.475   3.094   9.480  1.0452  0.3947 -0.6493
  183SLPC  C31221057   5.544   3.253   9.341  0.3380 -0.2708  0.2912
  183SLPC  H12X21058   5.490   3.317   9.268  1.4457  0.3088 -0.0322
  183SLPC  H12Y21059   5.603   3.182   9.280 -1.4382 -1.4992 -0.0215
  183SLPC  C31321060   5.654   3.334   9.419  0.3452  0.1919 -0.5078
  183SLPC  H13X21061   5.698   3.272   9.500  1.4339 -0.7704 -1.8208
  183SLPC  H13Y21062   5.605   3.416   9.477  0.5131 -0.3004  0.3247
  183SLPC  C31421063   5.762   3.403   9.337 -0.2322 -0.1116  0.1856
  183SLPC  H14X21064   5.806   3.342   9.255  0.9570  0.7245  0.1852
  183SLPC  H14Y21065   5.853   3.428   9.396 -0.7654 -1.2071  1.4876
  183SLPC  C31521066   5.720   3.531   9.258  0.0117  0.6584 -0.4256
  183SLPC  H15X21067   5.704   3.608   9.337 -1.5279  2.4966 -2.4804
  183SLPC  H15Y21068   5.627   3.520   9.199 -1.6449 -1.2675  2.3814
  183SLPC  C31621069   5.837   3.586   9.177 -0.8648 -0.7804  0.8001
  183SLPC  H16X21070   5.855   3.526   9.086  0.9648  0.8239  0.0795
  183SLPC  H16Y21071   5.930   3.560   9.233  1.4054  1.0524 -1.9787
  183SLPC  C31721072   5.830   3.730   9.126 -0.2414  0.2544  0.0760
  183SLPC  H17X21073   5.783   3.799   9.199 -0.1171 -0.4167  0.7985
  183SLPC  H17Y21074   5.768   3.743   9.035 -1.0505 -1.9318  0.3000
  183SLPC  C31821075   5.969   3.771   9.101  0.2568 -0.2290  0.4160
  183SLPC  H18X21076   6.030   3.754   9.193 -1.1588 -0.1680  1.3775
  183SLPC  H18Y21077   5.964   3.879   9.077 -1.0515 -0.0865  1.2981
  183SLPC  H18Z21078   6.024   3.716   9.022  1.9430  0.5928  0.9899
  184SLPC     N21079   1.354   1.671  10.933  0.4868  0.7400 -0.3462
  184SLPC   C1321080   1.490   1.616  10.958 -0.5310 -0.1323  0.0612
  184SLPC  H13A21081   1.561   1.669  10.897 -0.7329 -0.3699 -0.3851
  184SLPC  H13B21082   1.515   1.626  11.062  0.7352  0.4252 -0.2797
  184SLPC  H13C21083   1.492   1.511  10.932 -0.1675 -0.0809 -0.1229
  184SLPC   C1421084   1.362   1.819  10.939  0.4948 -0.7258  0.0845
  184SLPC  H14A21085   1.425   1.864  10.864  0.2279  0.1522  0.3730
  184SLPC  H14B21086   1.264   1.864  10.945 -0.1497 -2.2037  0.8121
  184SLPC  H14C21087   1.408   1.860  11.028  0.8738  0.9297 -0.8397
  184SLPC   C1521088   1.267   1.622  11.046  0.3135 -0.0934  0.0337
  184SLPC  H15A21089   1.293   1.658  11.145 -0.8952  0.2919  0.2250
  184SLPC  H15B21090   1.165   1.653  11.032 -0.1083 -1.4647  0.0363
  184SLPC  H15C21091   1.256   1.514  11.043 -3.1417  0.2238 -1.4680
  184SLPC   C1221092   1.304   1.632  10.797 -0.1502 -0.4579  0.7335
  184SLPC  H12A21093   1.291   1.525  10.794  1.1619 -0.6056 -0.1108
  184SLPC  H12B21094   1.385   1.649  10.728  0.3546  2.1707  1.9096
  184SLPC   C1121095   1.176   1.703  10.740  0.3529 -0.2116 -0.3389
  184SLPC  H11A21096   1.151   1.671  10.637  2.2949  1.8336 -1.4820
  184SLPC  H11B21097   1.219   1.802  10.717  0.2300  0.0691  0.6063
  184SLPC     P21098   0.963   1.586  10.816 -0.1647 -0.1312 -0.2690
  184SLPC   O1321099   1.037   1.462  10.857 -0.2956 -0.1762  0.1116
  184SLPC   O1421100   0.835   1.627  10.882  0.1254 -0.1028  0.9676
  184SLPC   O1221101   1.058   1.718  10.824 -0.6133 -0.6511 -0.2427
  184SLPC   O1121102   0.915   1.577  10.670 -0.3612  0.2582 -0.3814
  184SLPC    C121103   0.851   1.694  10.608 -0.1704  0.0177 -0.4019
  184SLPC    HA21104   0.743   1.691  10.632 -0.0204  1.2208  0.4340
  184SLPC    HB21105   0.886   1.790  10.652 -2.9659  0.0145  1.9038
  184SLPC    C221106   0.874   1.715  10.457 -0.2859 -0.8858 -0.5420
  184SLPC    HS21107   0.816   1.631  10.413 -2.9950  0.5952  0.0702
  184SLPC   O2121108   1.011   1.715  10.422 -0.0324  0.2876 -0.3113
  184SLPC   C2121109   1.051   1.629  10.332 -0.0663  0.6733 -0.0170
  184SLPC   O2221110   0.980   1.558  10.265 -0.1771 -0.3276 -0.0284
  184SLPC   C2221111   1.202   1.640  10.305 -0.5843  1.2358  0.1579
  184SLPC   H2R21112   1.259   1.568  10.368 -0.5998  0.8652 -0.2490
  184SLPC   H2S21113   1.223   1.623  10.197  0.9435  0.6416  0.5279
  184SLPC    C321114   0.819   1.858  10.417 -0.2324  0.8507  0.6101
  184SLPC    HX21115   0.880   1.935  10.468 -0.3819  1.2951  0.1210
  184SLPC    HY21116   0.714   1.871  10.453 -0.1305  1.2497  0.7700
  184SLPC   O3121117   0.828   1.877  10.273  0.0107 -0.2993 -0.1475
  184SLPC   C3121118   0.724   1.832  10.205  0.2111  1.1483 -0.7397
  184SLPC   O3221119   0.617   1.802  10.256 -0.3437  0.0589 -0.2555
  184SLPC   C3221120   0.758   1.828  10.054 -0.5655 -0.0587  0.6900
  184SLPC   H2X21121   0.858   1.781  10.045 -0.4526  0.0898  1.1699
  184SLPC   H2Y21122   0.760   1.935  10.022  0.2804 -0.3613 -0.3366
  184SLPC   C2321123   1.253   1.786  10.334  0.0976 -0.5340  0.5345
  184SLPC   H3R21124   1.364   1.790  10.331  0.1131 -2.0454 -1.1580
  184SLPC   H3S21125   1.216   1.819  10.434 -1.3576  1.3374 -0.5564
  184SLPC   C2421126   1.201   1.892  10.233 -0.2509  0.5368 -0.2325
  184SLPC   H4R21127   1.235   1.991  10.272 -2.3597  0.0750  2.9824
  184SLPC   H4S21128   1.090   1.884  10.227 -0.2582  0.6116 -0.2065
  184SLPC   C2521129   1.264   1.882  10.092  0.3297 -0.4736  0.1193
  184SLPC   H5R21130   1.365   1.840  10.109  0.7044  0.0027 -0.8850
  184SLPC   H5S21131   1.271   1.990  10.068 -0.8519 -0.8994 -2.3241
  184SLPC   C2621132   1.184   1.811   9.987  0.2670  0.0639  0.8920
  184SLPC   H6R21133   1.086   1.863   9.976 -0.0991 -0.9228 -0.7293
  184SLPC   H6S21134   1.152   1.710  10.020 -0.8075  0.3566  0.7792
  184SLPC   C2721135   1.249   1.809   9.845  0.1400  0.0337 -0.7355
  184SLPC   H7R21136   1.344   1.752   9.845 -0.7131 -1.4240 -1.7151
  184SLPC   H7S21137   1.272   1.916   9.827 -1.3824  0.8600  1.9419
  184SLPC   C2821138   1.150   1.750   9.746  0.0645  0.5289  0.1886
  184SLPC   H8R21139   1.047   1.778   9.774  0.0532  1.2990 -0.6202
  184SLPC   H8S21140   1.133   1.645   9.779 -1.4343  2.2213  5.2316
  184SLPC   C2921141   1.202   1.750   9.600  0.3078 -0.4167  0.3485
  184SLPC   H9R21142   1.305   1.715   9.587 -0.2441 -1.3958 -1.5468
  184SLPC  C21021143   1.133   1.774   9.482  0.4530 -0.8999  0.8241
  184SLPC  H10R21144   1.196   1.763   9.392 -2.0893 -0.2536 -1.0797
  184SLPC  C21121145   0.984   1.814   9.470  0.2283  0.4015 -0.6605
  184SLPC  H11R21146   0.947   1.824   9.574  0.1158 -3.0104 -0.3105
  184SLPC  H11S21147   0.933   1.726   9.425 -0.3329 -0.8067  2.2056
  184SLPC  C21221148   0.960   1.931   9.381 -0.4352 -0.2672 -0.0024
  184SLPC  H12R21149   0.951   2.029   9.432  1.0379  1.2405 -2.5419
  184SLPC  C21321150   0.959   1.927   9.241 -0.1259  0.5644 -0.1733
  184SLPC  H13R21151   0.937   2.018   9.184 -3.1270 -0.8828 -1.4942
  184SLPC  C21421152   0.973   1.811   9.148  0.2754  0.2059  0.7121
  184SLPC  H14R21153   1.011   1.721   9.200  0.4094 -1.0696 -1.5426
  184SLPC  H14S21154   1.034   1.844   9.061  1.7967 -0.8593  1.3528
  184SLPC  C21521155   0.839   1.749   9.090 -0.5128 -0.5999 -0.1959
  184SLPC  H15R21156   0.777   1.731   9.180 -3.0534  0.3194 -1.7113
  184SLPC  H15S21157   0.877   1.656   9.043  1.2059 -0.2556  0.4722
  184SLPC  C21621158   0.762   1.838   8.993  0.2878  0.4086  0.4428
  184SLPC  H16R21159   0.823   1.863   8.904 -1.1113  2.8844  0.1458
  184SLPC  H16S21160   0.742   1.934   9.045  1.3649  0.0576  1.5438
  184SLPC  C21721161   0.625   1.780   8.956  0.0012  0.4246 -0.0757
  184SLPC  H17R21162   0.573   1.774   9.054 -0.5822 -1.3562 -0.4854
  184SLPC  H17S21163   0.639   1.678   8.915 -2.0803  0.1847 -0.2766
  184SLPC  C21821164   0.542   1.863   8.862  0.2919  0.1887 -0.1533
  184SLPC  H18R21165   0.516   1.961   8.908  0.3161 -0.3483  0.9945
  184SLPC  H18S21166   0.459   1.804   8.819 -0.0191  1.4051 -1.2817
  184SLPC  H18T21167   0.618   1.898   8.788  1.0476 -0.8221  0.1409
  184SLPC   C3321168   0.659   1.760   9.958  0.0065  0.0376  0.3862
  184SLPC   H3X21169   0.560   1.809   9.942 -1.1091 -2.3422 -0.3179
  184SLPC   H3Y21170   0.642   1.656   9.991 -0.7355 -0.4104 -1.3210
  184SLPC   C3421171   0.715   1.744   9.814  0.3570  0.1062 -0.4438
  184SLPC   H4X21172   0.814   1.693   9.806  0.7733  0.9428 -0.6842
  184SLPC   H4Y21173   0.736   1.848   9.781  0.4458  0.3024  0.2131
  184SLPC   C3521174   0.615   1.691   9.713 -0.5799  0.1804 -0.6619
  184SLPC   H5X21175   0.519   1.748   9.709 -0.8912 -0.2894  0.0398
  184SLPC   H5Y21176   0.591   1.590   9.752 -2.0722  0.8384  0.1669
  184SLPC   C3621177   0.672   1.678   9.574 -0.2509  0.5172 -0.0734
  184SLPC   H6X21178   0.780   1.654   9.588  0.0837  0.4324 -2.4894
  184SLPC   H6Y21179   0.669   1.770   9.510  0.2913  0.8891  0.4245
  184SLPC   C3721180   0.603   1.562   9.500  0.1629  0.1544  0.2216
  184SLPC   H7X21181   0.492   1.569   9.499  0.1619  0.0120 -0.7569
  184SLPC   H7Y21182   0.626   1.468   9.554 -1.0247 -1.2347 -1.6257
  184SLPC   C3821183   0.654   1.563   9.357 -1.0482  0.3126  0.2391
  184SLPC   H8X21184   0.764   1.551   9.349 -0.9731  1.1401 -0.0541
  184SLPC   H8Y21185   0.621   1.662   9.320 -0.6612  0.8896  1.3953
  184SLPC   C3921186   0.583   1.455   9.266 -0.6160  0.1081  0.0169
  184SLPC   H9X21187   0.473   1.466   9.252 -0.9432 -2.4022  0.2810
  184SLPC   H9Y21188   0.607   1.355   9.308 -3.4167 -0.1191  1.2197
  184SLPC  C31021189   0.626   1.458   9.119 -0.3420 -0.1185  0.3143
  184SLPC  H10X21190   0.736   1.473   9.124  0.1030 -1.9893 -2.8173
  184SLPC  H10Y21191   0.582   1.549   9.074  0.2583  1.9300  3.7242
  184SLPC  C31121192   0.593   1.337   9.032  0.0890  0.1004  0.5510
  184SLPC  H11X21193   0.484   1.317   9.022  0.1392  1.0936 -2.3936
  184SLPC  H11Y21194   0.635   1.242   9.072 -0.7367 -1.3683 -1.9654
  184SLPC  C31221195   0.640   1.340   8.888  0.1408  0.4299  0.0407
  184SLPC  H12X21196   0.585   1.416   8.828 -1.2094 -0.7277 -0.2292
  184SLPC  H12Y21197   0.631   1.242   8.836 -0.7542 -0.5538  2.0093
  184SLPC  C31321198   0.790   1.380   8.880  0.2084 -0.2301 -0.2009
  184SLPC  H13X21199   0.846   1.311   8.947  1.6544  0.0741 -1.0894
  184SLPC  H13Y21200   0.804   1.486   8.908  1.3860 -0.1269 -1.1310
  184SLPC  C31421201   0.857   1.374   8.738  0.3568 -0.1443 -0.3837
  184SLPC  H14X21202   0.804   1.432   8.659  1.0056  0.9192 -0.0484
  184SLPC  H14Y21203   0.850   1.270   8.701  1.3722 -0.4962  0.3990
  184SLPC  C31521204   0.998   1.427   8.734 -0.0116 -0.9929 -0.8497
  184SLPC  H15X21205   0.997   1.536   8.752 -0.7729 -1.0107 -0.7835
  184SLPC  H15Y21206   1.027   1.409   8.628 -2.7586  1.2551 -2.0606
  184SLPC  C31621207   1.107   1.367   8.823  0.2877 -0.3486 -0.5409
  184SLPC  H16X21208   1.096   1.257   8.823 -3.1158 -0.0630 -2.1077
  184SLPC  H16Y21209   1.093   1.412   8.924 -0.2604  1.6357 -1.4772
  184SLPC  C31721210   1.244   1.414   8.774 -0.5368 -0.5534 -0.3824
  184SLPC  H17X21211   1.270   1.354   8.685 -0.4272 -1.1725  0.0593
  184SLPC  H17Y21212   1.321   1.388   8.850 -0.3845 -0.4955 -0.5156
  184SLPC  C31821213   1.262   1.565   8.757  0.4908 -0.2097 -0.3010
  184SLPC  H18X21214   1.372   1.579   8.749  0.5581 -0.6834 -0.2413
  184SLPC  H18Y21215   1.229   1.625   8.845  1.7112 -2.1395  1.5331
  184SLPC  H18Z21216   1.208   1.597   8.666  0.1103  1.1392  0.3763
  185SLPC     N21217   6.445   4.032   6.230 -0.1611 -0.0526 -0.6774
  185SLPC   C1321218   6.317   3.987   6.169 -0.3259 -0.0542  0.0993
  185SLPC  H13A21219   6.278   4.059   6.099  1.8478 -0.9954 -2.1684
  185SLPC  H13B21220   6.326   3.896   6.113 -1.2099 -1.2108  1.7753
  185SLPC  H13C21221   6.258   3.965   6.257  1.2266  0.7665  1.3916
  185SLPC   C1421222   6.414   4.168   6.306 -0.4170 -0.1907 -0.1013
  185SLPC  H14A21223   6.366   4.234   6.235  5.1332  3.2319 -0.9978
  185SLPC  H14B21224   6.359   4.155   6.398  0.9216  0.0636  0.7397
  185SLPC  H14C21225   6.512   4.206   6.329 -0.0783 -1.1382  0.0110
  185SLPC   C1521226   6.529   4.059   6.111  0.3420  0.6045 -0.0198
  185SLPC  H15A21227   6.605   4.133   6.133  0.3927 -0.4192  3.4327
  185SLPC  H15B21228   6.580   3.968   6.085  0.6850  0.9244 -0.4850
  185SLPC  H15C21229   6.467   4.088   6.027 -1.8392 -3.1165  0.2269
  185SLPC   C1221230   6.497   3.934   6.330 -0.6565  0.6077 -0.5674
  185SLPC  H12A21231   6.477   3.831   6.306  2.6970 -0.0746 -0.5859
  185SLPC  H12B21232   6.430   3.949   6.414 -0.4311  0.2855 -0.3295
  185SLPC   C1121233   6.644   3.958   6.386 -0.3805  0.1474 -0.4575
  185SLPC  H11A21234   6.719   3.931   6.308 -0.8891 -2.9734  0.0485
  185SLPC  H11B21235   6.661   3.872   6.454  1.3725  0.4570 -0.4849
  185SLPC     P21236   6.658   4.098   6.607 -0.9111  0.0608  0.4903
  185SLPC   O1321237   6.784   4.053   6.667 -0.4822 -0.3444  0.4529
  185SLPC   O1421238   6.625   4.237   6.637  0.4789 -0.0945  0.1112
  185SLPC   O1221239   6.670   4.084   6.453 -0.5578 -0.4822 -0.2794
  185SLPC   O1121240   6.539   4.000   6.637  0.6735  0.4993  0.7991
  185SLPC    C121241   6.417   4.054   6.673  1.0727  0.2758 -0.6228
  185SLPC    HA21242   6.391   4.150   6.623 -0.5147  1.1334  1.7229
  185SLPC    HB21243   6.337   3.988   6.633  0.5486  0.9675 -0.7211
  185SLPC    C221244   6.418   4.074   6.827  0.5007 -0.1243 -0.0187
  185SLPC    HS21245   6.498   4.148   6.851  1.0733 -0.0105 -2.2100
  185SLPC   O2121246   6.445   3.950   6.890  0.3160  1.2665  0.0362
  185SLPC   C2121247   6.530   3.943   6.980  0.0853  0.0978 -0.1431
  185SLPC   O2221248   6.611   4.027   7.018 -0.8353 -0.5552  0.1171
  185SLPC   C2221249   6.539   3.795   7.015  0.4695  0.0272  0.5376
  185SLPC   H2R21250   6.439   3.764   7.051  0.6495 -0.2340  0.8119
  185SLPC   H2S21251   6.566   3.746   6.919  1.6660 -1.0999  1.4489
  185SLPC    C321252   6.281   4.137   6.873 -0.7549  1.2728  0.0464
  185SLPC    HX21253   6.206   4.057   6.854  1.2272 -0.7877  0.6641
  185SLPC    HY21254   6.269   4.219   6.799 -1.8511  2.0828  1.1137
  185SLPC   O3121255   6.272   4.168   7.013 -0.1570  0.4836  0.3825
  185SLPC   C3121256   6.173   4.243   7.044 -0.5046 -0.1539 -0.2374
  185SLPC   O3221257   6.088   4.279   6.966  0.1780  0.0986  0.2417
  185SLPC   C3221258   6.181   4.280   7.189 -0.2495 -0.4309 -0.1094
  185SLPC   H2X21259   6.283   4.307   7.222 -1.0482  2.2056  0.3633
  185SLPC   H2Y21260   6.151   4.181   7.231  0.3349  0.6964  3.0418
  185SLPC   C2321261   6.651   3.770   7.118 -0.2864  0.0288 -0.5320
  185SLPC   H3R21262   6.640   3.824   7.214 -0.5611 -1.9657  0.5777
  185SLPC   H3S21263   6.747   3.810   7.078  1.3267 -2.5181  0.6385
  185SLPC   C2421264   6.662   3.620   7.143 -0.5870 -0.2668 -0.2165
  185SLPC   H4R21265   6.766   3.589   7.168 -1.4153 -1.7474  1.5013
  185SLPC   H4S21266   6.629   3.566   7.051 -1.8922 -2.4239  1.4697
  185SLPC   C2521267   6.582   3.563   7.263 -0.5140  0.8629  0.6084
  185SLPC   H5R21268   6.629   3.464   7.280  2.1173  1.8164 -0.8305
  185SLPC   H5S21269   6.474   3.566   7.239  0.0589 -0.7542 -2.3524
  185SLPC   C2621270   6.590   3.648   7.393  0.3594 -0.2665  0.5732
  185SLPC   H6R21271   6.520   3.733   7.401 -0.2884 -1.0074  3.2875
  185SLPC   H6S21272   6.693   3.686   7.409  0.2800 -0.6874  2.1064
  185SLPC   C2721273   6.575   3.565   7.523 -0.5471 -0.2786  0.8750
  185SLPC   H7R21274   6.638   3.473   7.517  0.5326  0.3753  1.9391
  185SLPC   H7S21275   6.470   3.529   7.515  0.1188 -2.6654  2.1993
  185SLPC   C2821276   6.607   3.641   7.657 -0.1274  0.1948  0.5632
  185SLPC   H8R21277   6.713   3.674   7.649 -0.0169 -0.1206  0.7083
  185SLPC   H8S21278   6.601   3.573   7.745 -1.0173 -0.3898  0.0584
  185SLPC   C2921279   6.509   3.757   7.674  0.1725  0.4009 -0.3885
  185SLPC   H9R21280   6.434   3.760   7.593  1.2761 -0.8641 -1.4783
  185SLPC  C21021281   6.493   3.830   7.784  0.0659  0.1699 -0.3742
  185SLPC  H10R21282   6.419   3.911   7.782  1.6046  1.5864 -2.1238
  185SLPC  C21121283   6.581   3.831   7.909 -0.3489  0.4101  0.8519
  185SLPC  H11R21284   6.626   3.933   7.901  0.3683 -0.0811 -1.9004
  185SLPC  H11S21285   6.654   3.749   7.890  0.5327  1.4658 -0.4270
  185SLPC  C21221286   6.512   3.798   8.040 -0.3413  0.9470  0.1720
  185SLPC  H12R21287   6.428   3.727   8.039  1.2470 -1.0733  2.5547
  185SLPC  C21321288   6.544   3.855   8.160  0.1031  0.7566 -0.5861
  185SLPC  H13R21289   6.488   3.824   8.250  0.7299  2.3528  0.3741
  185SLPC  C21421290   6.639   3.962   8.203  0.4389  0.2433 -0.6667
  185SLPC  H14R21291   6.726   3.970   8.135  2.1762  0.1224  1.5070
  185SLPC  H14S21292   6.687   3.930   8.298  0.3235  0.4092 -0.5523
  185SLPC  C21521293   6.568   4.100   8.214  0.7872 -0.0200  0.1384
  185SLPC  H15R21294   6.489   4.121   8.138 -0.8347  3.8453  2.7260
  185SLPC  H15S21295   6.651   4.174   8.216  2.1157 -1.5336  2.9701
  185SLPC  C21621296   6.499   4.120   8.348 -0.1583  0.8709 -0.1627
  185SLPC  H16R21297   6.562   4.086   8.433 -0.8628 -0.1733 -0.0588
  185SLPC  H16S21298   6.417   4.046   8.347  0.0516  0.6158  0.6924
  185SLPC  C21721299   6.442   4.259   8.367  0.1587  0.2207 -0.6258
  185SLPC  H17R21300   6.532   4.323   8.361  1.1898 -0.7575  2.7620
  185SLPC  H17S21301   6.405   4.274   8.471  0.7333  3.9757 -0.8986
  185SLPC  C21821302   6.348   4.311   8.256 -0.1029 -0.3640  0.8831
  185SLPC  H18R21303   6.393   4.283   8.158 -1.4010 -1.1835  0.5141
  185SLPC  H18S21304   6.333   4.419   8.273 -0.8721 -0.5168  1.1751
  185SLPC  H18T21305   6.251   4.258   8.270 -0.6941  0.9134  1.6614
  185SLPC   C3321306   6.085   4.392   7.234  0.0686  0.6955  0.5917
  185SLPC   H3X21307   6.061   4.369   7.340 -1.7434  1.6644  0.4170
  185SLPC   H3Y21308   5.991   4.396   7.174  0.3717  0.3544  0.0845
  185SLPC   C3421309   6.143   4.536   7.230  0.8581  0.1006  0.3546
  185SLPC   H4X21310   6.059   4.596   7.270 -1.3852 -1.8681 -1.2789
  185SLPC   H4Y21311   6.158   4.567   7.124  1.9550 -2.6852 -0.3585
  185SLPC   C3521312   6.258   4.564   7.323  0.2528 -0.1835  0.2987
  185SLPC   H5X21313   6.295   4.667   7.308  0.1230  0.2344  2.6791
  185SLPC   H5Y21314   6.343   4.494   7.307 -0.8488 -2.0911  2.4040
  185SLPC   C3621315   6.213   4.552   7.469 -0.7260  0.3814  0.2448
  185SLPC   H6X21316   6.210   4.441   7.479  0.9791  0.2836 -0.1135
  185SLPC   H6Y21317   6.107   4.582   7.483 -0.9648  0.1012 -0.8872
  185SLPC   C3721318   6.302   4.615   7.570 -0.2168  0.6049  0.1108
  185SLPC   H7X21319   6.293   4.724   7.551  1.6856  1.0018  1.3760
  185SLPC   H7Y21320   6.405   4.595   7.536 -0.7436 -0.2937 -0.9906
  185SLPC   C3821321   6.288   4.574   7.722  0.0599  0.0207  0.3622
  185SLPC   H8X21322   6.282   4.463   7.726  0.2466  0.0339  0.9730
  185SLPC   H8Y21323   6.191   4.618   7.754 -0.8529 -0.9229 -1.0288
  185SLPC   C3921324   6.403   4.613   7.817 -0.6566 -0.5955  0.2961
  185SLPC   H9X21325   6.413   4.724   7.815 -2.0438 -0.4390  1.4603
  185SLPC   H9Y21326   6.501   4.575   7.781 -0.2394 -0.1929  1.0021
  185SLPC  C31021327   6.379   4.561   7.960  0.4906 -0.3781  0.7258
  185SLPC  H10X21328   6.397   4.456   7.992  0.3564  0.0681  2.3203
  185SLPC  H10Y21329   6.269   4.568   7.967  0.5466 -0.5708  1.8024
  185SLPC  C31121330   6.432   4.659   8.063 -0.0672 -0.0764  0.0975
  185SLPC  H11X21331   6.344   4.681   8.127  0.2023  1.3252 -0.0017
  185SLPC  H11Y21332   6.468   4.759   8.031 -1.2584  0.3687  0.1373
  185SLPC  C31221333   6.539   4.601   8.158  0.3348 -0.0654 -0.4946
  185SLPC  H12X21334   6.610   4.552   8.088  0.4623 -0.6958  0.0723
  185SLPC  H12Y21335   6.494   4.525   8.225  0.3853 -0.2012 -0.6150
  185SLPC  C31321336   6.616   4.696   8.252 -0.7872 -1.1410 -0.4347
  185SLPC  H13X21337   6.538   4.746   8.313  0.3180 -1.4015  1.2023
  185SLPC  H13Y21338   6.666   4.772   8.188 -0.3990 -0.2381  0.9321
  185SLPC  C31421339   6.717   4.623   8.342  0.3836 -0.3189 -0.6379
  185SLPC  H14X21340   6.789   4.565   8.280  1.9155  1.5090 -0.6195
  185SLPC  H14Y21341   6.652   4.547   8.389  0.7243  0.1198  0.5643
  185SLPC  C31521342   6.789   4.716   8.434  0.0878  0.0407  0.7067
  185SLPC  H15X21343   6.712   4.773   8.489 -1.6005 -1.4208 -0.1056
  185SLPC  H15Y21344   6.852   4.785   8.373 -0.5979  0.8356  0.8998
  185SLPC  C31621345   6.884   4.639   8.526  0.2182  0.0979  0.6094
  185SLPC  H16X21346   6.933   4.706   8.600 -0.1943  0.1334  0.8559
  185SLPC  H16Y21347   6.970   4.606   8.464 -0.5881 -1.0357  0.0839
  185SLPC  C31721348   6.817   4.519   8.604  0.2415 -0.5867  0.2316
  185SLPC  H17X21349   6.777   4.454   8.524  2.5409  0.8502 -2.1806
  185SLPC  H17Y21350   6.744   4.563   8.675  1.7342  0.4804  1.1365
  185SLPC  C31821351   6.912   4.447   8.693 -0.3511  0.4119 -0.5828
  185SLPC  H18X21352   6.957   4.523   8.761 -0.4653  0.8979 -1.0495
  185SLPC  H18Y21353   6.992   4.400   8.630 -0.1519 -0.8276  0.5721
  185SLPC  H18Z21354   6.869   4.363   8.751 -2.3047  0.3819 -2.0231
  186SLPC     N21355   1.045   0.180   5.928  0.2989  0.1052  0.0760
  186SLPC   C1321356   1.168   0.213   5.993 -0.6951  0.0269 -0.3748
  186SLPC  H13A21357   1.179   0.177   6.094 -0.0059  1.2882  0.0085
  186SLPC  H13B21358   1.251   0.172   5.938 -2.1995 -2.1220 -1.0890
  186SLPC  H13C21359   1.191   0.319   5.995  4.7763 -1.0424  3.8714
  186SLPC   C1421360   1.036   0.031   5.914 -1.7079  0.1300 -0.5373
  186SLPC  H14A21361   1.119  -0.009   5.858 -0.3851 -0.8265  2.0636
  186SLPC  H14B21362   1.030  -0.007   6.015 -1.3467  0.0052 -0.5617
  186SLPC  H14C21363   0.953  -0.006   5.855  0.5309 -0.3409 -3.5530
  186SLPC   C1521364   1.042   0.235   5.792 -0.6492  0.6214  0.3665
  186SLPC  H15A21365   0.942   0.228   5.751 -1.4399  1.5068  2.0531
  186SLPC  H15B21366   1.071   0.339   5.792  0.8218  0.2322 -1.3104
  186SLPC  H15C21367   1.106   0.190   5.718 -1.6195  0.3640 -0.3339
  186SLPC   C1221368   0.922   0.235   5.995  0.0584 -0.4021  0.5583
  186SLPC  H12A21369   0.834   0.194   5.948  0.6406 -0.6627 -0.3320
  186SLPC  H12B21370   0.922   0.342   5.985  3.1503 -0.2979  1.1485
  186SLPC   C1121371   0.905   0.205   6.148 -0.1499 -0.0378  0.1406
  186SLPC  H11A21372   0.808   0.242   6.188 -0.4459 -1.3489  0.6554
  186SLPC  H11B21373   0.987   0.268   6.187 -0.3578  1.1119 -1.2132
  186SLPC     P21374   0.811  -0.030   6.213  0.0653  0.1473 -0.1255
  186SLPC   O1321375   0.687   0.004   6.136  0.1480 -0.3004 -0.0104
  186SLPC   O1421376   0.861  -0.167   6.201 -0.1196 -0.2682  0.0424
  186SLPC   O1221377   0.927   0.064   6.169  0.3284 -0.8155 -0.3812
  186SLPC   O1121378   0.800  -0.000   6.368 -0.2312  0.0421 -0.1330
  186SLPC    C121379   0.905  -0.024   6.463 -0.2950 -0.3856  0.1108
  186SLPC    HA21380   0.933  -0.132   6.464 -0.4516 -0.4226  1.2194
  186SLPC    HB21381   0.992   0.040   6.439 -0.5228  0.8301  2.4320
  186SLPC    C221382   0.864   0.021   6.610  0.0461  0.7957  0.1798
  186SLPC    HS21383   0.956   0.024   6.672  0.1708 -1.2701  0.1536
  186SLPC   O2121384   0.766  -0.076   6.663  0.1622  0.0212  0.8594
  186SLPC   C2121385   0.826  -0.183   6.714 -0.3606 -0.4129  0.0133
  186SLPC   O2221386   0.942  -0.201   6.726  0.1931  0.2575 -0.2670
  186SLPC   C2221387   0.710  -0.274   6.757 -0.6640  0.0459 -0.1023
  186SLPC   H2R21388   0.612  -0.249   6.712 -0.6052 -2.2769 -1.6047
  186SLPC   H2S21389   0.734  -0.377   6.724  1.3184  0.2796  0.5235
  186SLPC    C321390   0.798   0.162   6.608  0.5998 -0.5961 -0.0123
  186SLPC    HX21391   0.706   0.158   6.545  0.7149 -1.8296 -0.1119
  186SLPC    HY21392   0.868   0.234   6.563  0.9586 -0.0017  1.4834
  186SLPC   O3121393   0.757   0.215   6.738 -0.6413  0.4110 -0.0907
  186SLPC   C3121394   0.632   0.192   6.775  0.6394  0.5228  0.4273
  186SLPC   O3221395   0.540   0.139   6.712 -0.1085  0.1248 -0.3317
  186SLPC   C3221396   0.611   0.226   6.915 -0.0036 -0.3646  0.2622
  186SLPC   H2X21397   0.651   0.328   6.934 -2.1555  0.7987 -1.1132
  186SLPC   H2Y21398   0.671   0.152   6.971  1.4515 -0.8395 -1.8807
  186SLPC   C2321399   0.694  -0.291   6.909  0.9888 -0.1031 -1.0020
  186SLPC   H3R21400   0.775  -0.344   6.963 -1.1868 -1.9051  0.5984
  186SLPC   H3S21401   0.602  -0.349   6.931  0.2506  2.5058  3.5251
  186SLPC   C2421402   0.676  -0.165   6.997  0.2730 -0.0413 -0.7267
  186SLPC   H4R21403   0.649  -0.077   6.936 -0.5209 -0.4984 -1.0442
  186SLPC   H4S21404   0.773  -0.125   7.035 -0.9290  2.0029  0.2664
  186SLPC   C2521405   0.605  -0.178   7.137  0.0459  0.2555 -0.0804
  186SLPC   H5R21406   0.642  -0.273   7.181  0.7420  1.5522  2.1778
  186SLPC   H5S21407   0.495  -0.186   7.123  0.2505 -0.9740 -1.1331
  186SLPC   C2621408   0.632  -0.069   7.244 -0.2770 -0.1787  0.4445
  186SLPC   H6R21409   0.652   0.031   7.200  1.3889 -1.2789 -1.4370
  186SLPC   H6S21410   0.728  -0.098   7.290 -0.0853  1.4010  1.0675
  186SLPC   C2721411   0.518  -0.054   7.350 -0.4297 -0.4530 -0.6277
  186SLPC   H7R21412   0.468  -0.152   7.360 -0.5309 -0.3040  0.3379
  186SLPC   H7S21413   0.441   0.009   7.301  0.4897 -0.4421 -2.1027
  186SLPC   C2821414   0.557  -0.010   7.489  0.3775  0.3720 -0.2917
  186SLPC   H8R21415   0.463   0.009   7.546  0.1929  0.6167 -0.6749
  186SLPC   H8S21416   0.615   0.080   7.462 -0.0211  0.4466 -0.9325
  186SLPC   C2921417   0.634  -0.117   7.560 -0.4940 -0.9083  0.0404
  186SLPC   H9R21418   0.655  -0.203   7.494  0.3082 -0.5758 -0.1489
  186SLPC  C21021419   0.665  -0.107   7.691  0.0842  0.0502  0.3142
  186SLPC  H10R21420   0.721  -0.188   7.741 -2.3693 -1.8805  0.0159
  186SLPC  C21121421   0.627   0.010   7.787 -0.1128 -0.3690  0.2464
  186SLPC  H11R21422   0.556   0.068   7.725  1.7142 -0.5333 -2.0658
  186SLPC  H11S21423   0.709   0.077   7.820  0.1173  0.4455 -1.9576
  186SLPC  C21221424   0.550  -0.059   7.906 -0.7601  0.5714 -0.0150
  186SLPC  H12R21425   0.471  -0.133   7.885 -0.1390 -0.4270  1.0789
  186SLPC  C21321426   0.586  -0.051   8.034  0.1029 -0.1600  0.0677
  186SLPC  H13R21427   0.512  -0.098   8.100 -1.7356  2.3565 -0.1465
  186SLPC  C21421428   0.699   0.026   8.089 -0.2324 -0.6280  0.0985
  186SLPC  H14R21429   0.675   0.118   8.146 -1.1172 -2.3144  2.5387
  186SLPC  H14S21430   0.767   0.068   8.011 -0.6470 -1.7236 -0.8814
  186SLPC  C21521431   0.779  -0.070   8.176 -0.3363  0.3719  0.1204
  186SLPC  H15R21432   0.826  -0.143   8.107 -2.0711 -0.0197 -0.6829
  186SLPC  H15S21433   0.718  -0.131   8.246 -1.9610 -0.4748 -1.9988
  186SLPC  C21621434   0.870   0.004   8.267 -0.7318 -0.1673 -0.4092
  186SLPC  H16R21435   0.829   0.050   8.359  1.2950 -1.0163  0.9643
  186SLPC  H16S21436   0.914   0.090   8.212  1.1709 -0.5195  0.5182
  186SLPC  C21721437   0.989  -0.086   8.316  0.5143  0.6861 -0.0760
  186SLPC  H17R21438   1.069  -0.030   8.369  2.6805 -0.5383 -1.9757
  186SLPC  H17S21439   1.050  -0.137   8.239 -1.2839 -0.5266 -0.7496
  186SLPC  C21821440   0.943  -0.187   8.422  0.4733 -0.7767  0.0926
  186SLPC  H18R21441   0.873  -0.146   8.498 -0.3010 -2.6767  0.4379
  186SLPC  H18S21442   1.022  -0.245   8.474 -0.8916 -2.5490  0.2612
  186SLPC  H18T21443   0.882  -0.267   8.374 -2.4554 -1.4810  4.7403
  186SLPC   C3321444   0.461   0.241   6.943  0.2129  0.5364  0.1083
  186SLPC   H3X21445   0.390   0.164   6.907  0.0729  0.0621  1.3660
  186SLPC   H3Y21446   0.424   0.340   6.908  1.3906  0.3244 -1.7952
  186SLPC   C3421447   0.453   0.245   7.100  0.0750 -0.2869 -0.0358
  186SLPC   H4X21448   0.516   0.331   7.133 -1.2962  1.4820 -1.8948
  186SLPC   H4Y21449   0.496   0.153   7.145 -0.2464 -0.3372  0.1621
  186SLPC   C3521450   0.305   0.253   7.159 -0.2354  0.2650  0.7531
  186SLPC   H5X21451   0.240   0.164   7.142  1.3008 -0.7698  0.2204
  186SLPC   H5Y21452   0.245   0.330   7.105 -0.2524 -0.2434  0.0414
  186SLPC   C3621453   0.303   0.285   7.305 -0.4089 -0.7697  0.2010
  186SLPC   H6X21454   0.353   0.384   7.317 -2.8193  0.4983 -0.0404
  186SLPC   H6Y21455   0.367   0.214   7.362 -1.6863 -0.5979  1.8965
  186SLPC   C3721456   0.170   0.301   7.365  0.4579 -0.7228 -0.2715
  186SLPC   H7X21457   0.099   0.217   7.349 -2.3394  0.9632  2.5941
  186SLPC   H7Y21458   0.122   0.387   7.313 -1.6917 -0.7578  1.5907
  186SLPC   C3821459   0.152   0.329   7.516 -0.4295  0.9820 -0.1344
  186SLPC   H8X21460   0.063   0.387   7.548  0.7391  1.0361  3.1306
  186SLPC   H8Y21461   0.237   0.395   7.545  0.3381 -0.1473  0.1884
  186SLPC   C3921462   0.167   0.204   7.608  0.4200 -0.3159  0.6366
  186SLPC   H9X21463   0.266   0.156   7.590 -0.5609 -1.9931 -0.3260
  186SLPC   H9Y21464   0.104   0.116   7.584  1.7564 -1.0386 -0.3386
  186SLPC  C31021465   0.179   0.237   7.764  0.3387  0.3936 -0.0393
  186SLPC  H10X21466   0.078   0.268   7.798 -0.2377 -2.0465  0.5202
  186SLPC  H10Y21467   0.255   0.318   7.777  0.0529  0.7709 -0.6851
  186SLPC  C31121468   0.219   0.111   7.843  0.6635 -0.2510 -0.2436
  186SLPC  H11X21469   0.243   0.137   7.949 -0.1516  1.5786 -0.4729
  186SLPC  H11Y21470   0.310   0.072   7.793  0.1523  0.1705 -1.5228
  186SLPC  C31221471   0.122  -0.016   7.838 -0.6132 -0.4654  0.8142
  186SLPC  H12X21472   0.105  -0.050   7.734 -0.0543  1.4988  0.0439
  186SLPC  H12Y21473   0.024   0.002   7.887  0.1310  0.1825  2.0984
  186SLPC  C31321474   0.173  -0.148   7.903 -0.3605 -0.1232 -0.3152
  186SLPC  H13X21475   0.278  -0.169   7.872 -1.4149 -4.9384 -1.1044
  186SLPC  H13Y21476   0.100  -0.223   7.866 -0.8711  1.3091 -2.2776
  186SLPC  C31421477   0.141  -0.159   8.054  0.4051 -0.6997  0.3453
  186SLPC  H14X21478   0.034  -0.186   8.065 -0.2556  1.4653 -0.6054
  186SLPC  H14Y21479   0.145  -0.062   8.108  2.4949 -1.4925  1.6900
  186SLPC  C31521480   0.233  -0.259   8.131 -0.2616 -0.2528 -0.3169
  186SLPC  H15X21481   0.336  -0.233   8.096 -1.6441  0.1348 -4.3918
  186SLPC  H15Y21482   0.197  -0.361   8.106 -1.0877  0.1856 -0.9501
  186SLPC  C31621483   0.232  -0.250   8.282  1.0453 -0.3637  0.1609
  186SLPC  H16X21484   0.274  -0.152   8.313  0.7244 -0.8752  2.2406
  186SLPC  H16Y21485   0.308  -0.324   8.314  3.4422  2.3299  0.9033
  186SLPC  C31721486   0.094  -0.255   8.341 -0.4174  1.0617  0.2160
  186SLPC  H17X21487   0.032  -0.341   8.310 -0.2948 -0.3583  3.6632
  186SLPC  H17Y21488   0.038  -0.161   8.321 -0.1019  0.7985 -2.0277
  186SLPC  C31821489   0.108  -0.259   8.497  0.1929 -0.4122  0.9708
  186SLPC  H18X21490   0.049  -0.339   8.547 -1.3787 -1.6814 -2.7532
  186SLPC  H18Y21491   0.082  -0.168   8.555 -1.4588 -0.6370  0.5900
  186SLPC  H18Z21492   0.214  -0.266   8.531  0.7496  0.8972 -0.4563
  187SLPC     N21493   0.681   3.811   6.278  0.1578 -0.2998  0.5142
  187SLPC   C1321494   0.752   3.918   6.198 -0.1797  0.4245  0.1428
  187SLPC  H13A21495   0.703   3.938   6.104 -0.1491  0.4115  0.1246
  187SLPC  H13B21496   0.752   4.011   6.253 -0.1699  0.3961  0.1919
  187SLPC  H13C21497   0.851   3.894   6.163 -0.4332 -1.1016  0.4440
  187SLPC   C1421498   0.667   3.687   6.193 -0.1854  0.5915  0.4628
  187SLPC  H14A21499   0.593   3.617   6.230 -0.4578  0.8518  0.4105
  187SLPC  H14B21500   0.633   3.711   6.094  0.9654 -2.6051 -0.7749
  187SLPC  H14C21501   0.767   3.645   6.190  0.0761  1.3548 -1.7449
  187SLPC   C1521502   0.539   3.844   6.324 -0.0663 -0.0201  0.6706
  187SLPC  H15A21503   0.547   3.945   6.362 -2.2674 -0.3866  2.2308
  187SLPC  H15B21504   0.464   3.838   6.247 -0.8375 -3.4204  1.5998
  187SLPC  H15C21505   0.508   3.778   6.404 -0.1933 -0.3688  0.3354
  187SLPC   C1221506   0.770   3.792   6.408  0.1808  0.5143 -0.3378
  187SLPC  H12A21507   0.749   3.880   6.468 -0.9046  0.4485 -0.6194
  187SLPC  H12B21508   0.872   3.793   6.372  0.3159  0.7320  0.0464
  187SLPC   C1121509   0.749   3.671   6.496 -0.2174  0.4485  0.2477
  187SLPC  H11A21510   0.645   3.661   6.533  0.0144 -3.3747 -0.0235
  187SLPC  H11B21511   0.808   3.694   6.588 -0.7713 -2.4358  1.3769
  187SLPC     P21512   0.909   3.475   6.496  0.2411 -0.3679 -0.0470
  187SLPC   O1321513   0.932   3.344   6.432 -0.1227 -0.0852  0.0032
  187SLPC   O1421514   1.029   3.557   6.530 -0.4690  0.1652  0.9566
  187SLPC   O1221515   0.799   3.551   6.432 -0.0190 -0.0435  0.0383
  187SLPC   O1121516   0.840   3.445   6.638 -0.1899 -0.1001  0.0889
  187SLPC    C121517   0.723   3.357   6.644  0.1757 -0.5569  0.2678
  187SLPC    HA21518   0.637   3.410   6.691  1.1255 -0.7337  2.2497
  187SLPC    HB21519   0.686   3.323   6.545  1.2830  1.7840 -0.9976
  187SLPC    C221520   0.746   3.231   6.730  0.0349  0.5911  0.3629
  187SLPC    HS21521   0.647   3.179   6.728 -0.3779  1.3753  0.1142
  187SLPC   O2121522   0.785   3.276   6.864 -0.7438 -0.0529 -0.5191
  187SLPC   C2121523   0.688   3.283   6.952  0.8410  0.6868 -0.3076
  187SLPC   O2221524   0.567   3.275   6.933 -1.1675 -0.4072 -0.5044
  187SLPC   C2221525   0.746   3.293   7.096  0.7915 -0.4499  0.0032
  187SLPC   H2R21526   0.773   3.188   7.119 -0.8046 -1.0701 -0.8216
  187SLPC   H2S21527   0.830   3.366   7.099 -1.4356  2.3447 -2.1904
  187SLPC    C321528   0.852   3.132   6.667  0.1388  0.4089 -0.4969
  187SLPC    HX21529   0.943   3.183   6.629  1.7999 -1.7083  0.5303
  187SLPC    HY21530   0.805   3.095   6.573 -3.4813  1.5461  0.7653
  187SLPC   O3121531   0.911   3.032   6.751  0.4954  0.1539  0.2073
  187SLPC   C3121532   0.829   2.947   6.821  0.2324  0.0834 -0.5250
  187SLPC   O3221533   0.713   2.942   6.803  0.5027 -0.0573  0.0866
  187SLPC   C3221534   0.895   2.846   6.913  0.4852 -0.0525  0.4997
  187SLPC   H2X21535   0.869   2.746   6.870 -2.1262 -0.6086  3.2518
  187SLPC   H2Y21536   0.852   2.852   7.015 -0.7380  0.2607 -0.0260
  187SLPC   C2321537   0.636   3.339   7.207 -0.2816  0.2319 -0.0866
  187SLPC   H3R21538   0.575   3.247   7.218 -0.1372  0.2130  0.5351
  187SLPC   H3S21539   0.579   3.424   7.161 -0.5143 -0.1779 -0.5583
  187SLPC   C2421540   0.686   3.384   7.352 -0.0024  0.1245  0.3688
  187SLPC   H4R21541   0.751   3.474   7.339 -0.1740  0.3705  1.2246
  187SLPC   H4S21542   0.745   3.300   7.392 -0.5728 -0.3220  0.2734
  187SLPC   C2521543   0.564   3.424   7.437 -0.1200 -0.5887  0.0479
  187SLPC   H5R21544   0.496   3.336   7.431 -2.0690  0.8712  0.2782
  187SLPC   H5S21545   0.510   3.509   7.391 -0.3315 -0.5769  0.3143
  187SLPC   C2621546   0.605   3.457   7.583 -0.3173 -0.2003  0.0293
  187SLPC   H6R21547   0.509   3.478   7.635  0.0809  2.0448 -0.0922
  187SLPC   H6S21548   0.662   3.552   7.575 -0.3852 -0.1327  0.3306
  187SLPC   C2721549   0.680   3.350   7.659 -0.7270 -0.6171 -0.2526
  187SLPC   H7R21550   0.786   3.360   7.629  0.0088 -1.5636  1.9024
  187SLPC   H7S21551   0.640   3.250   7.631 -0.5065 -0.4824 -1.0574
  187SLPC   C2821552   0.666   3.363   7.814  0.8012  0.1025 -0.1354
  187SLPC   H8R21553   0.703   3.267   7.858 -0.6056  0.7538  2.6093
  187SLPC   H8S21554   0.556   3.363   7.827  0.9066 -1.4405  0.9520
  187SLPC   C2921555   0.749   3.476   7.876 -0.0513  0.3009  0.4449
  187SLPC   H9R21556   0.761   3.561   7.807 -0.6919 -0.4897 -0.6434
  187SLPC  C21021557   0.807   3.485   7.992 -0.2264  0.0831  0.0510
  187SLPC  H10R21558   0.860   3.579   8.015  2.1193 -0.8015 -1.6214
  187SLPC  C21121559   0.805   3.371   8.089  0.4785  0.2297  0.4583
  187SLPC  H11R21560   0.907   3.358   8.132  0.6192  0.1147  0.0879
  187SLPC  H11S21561   0.786   3.274   8.039  1.6530  0.1396  0.1797
  187SLPC  C21221562   0.697   3.386   8.193 -0.5319 -0.0162 -0.3472
  187SLPC  H12R21563   0.598   3.378   8.147  0.1064  0.3536 -1.8319
  187SLPC  C21321564   0.704   3.438   8.317 -0.4535 -0.4840  0.1740
  187SLPC  H13R21565   0.607   3.452   8.368 -0.7028 -1.7329  0.0565
  187SLPC  C21421566   0.830   3.500   8.375  0.3965  0.3304  0.1798
  187SLPC  H14R21567   0.901   3.543   8.302  1.1689  0.3300  0.9307
  187SLPC  H14S21568   0.894   3.431   8.433  0.8551  1.6303  1.2306
  187SLPC  C21521569   0.794   3.617   8.466  0.3785 -0.2186  0.4766
  187SLPC  H15R21570   0.724   3.584   8.546 -0.1412 -1.9883 -0.6735
  187SLPC  H15S21571   0.742   3.696   8.409 -0.5008  0.1337  1.7395
  187SLPC  C21621572   0.933   3.661   8.531  0.7535  0.5145  0.9421
  187SLPC  H16R21573   0.983   3.727   8.457  3.3391 -1.3955  0.9288
  187SLPC  H16S21574   0.989   3.566   8.541  0.0040  0.0695  0.9801
  187SLPC  C21721575   0.917   3.742   8.660 -0.4299  0.4557  0.1363
  187SLPC  H17R21576   0.878   3.673   8.737 -2.0361  0.8801 -0.2872
  187SLPC  H17S21577   0.848   3.829   8.651  0.0803  0.6107 -2.5071
  187SLPC  C21821578   1.051   3.791   8.724 -0.4492 -0.7520 -0.1456
  187SLPC  H18R21579   1.107   3.702   8.759 -1.2933 -1.2489 -0.0452
  187SLPC  H18S21580   1.026   3.868   8.801 -0.1817 -1.3071  0.4959
  187SLPC  H18T21581   1.116   3.844   8.650 -0.4693 -1.2227 -0.5031
  187SLPC   C3321582   1.052   2.859   6.908  0.9225 -0.3210  0.7053
  187SLPC   H3X21583   1.075   2.967   6.924 -0.9327 -0.1842  2.7422
  187SLPC   H3Y21584   1.086   2.832   6.806  0.9316 -1.7578  1.0836
  187SLPC   C3421585   1.118   2.750   6.991  0.0556 -0.4377 -0.4051
  187SLPC   H4X21586   1.225   2.741   6.965  1.2783  0.2693  3.9374
  187SLPC   H4Y21587   1.068   2.654   6.965  2.0988 -2.6485  3.3234
  187SLPC   C3521588   1.112   2.779   7.143  0.1454  0.0858  0.8562
  187SLPC   H5X21589   1.010   2.804   7.179  0.3117  2.8590 -0.4730
  187SLPC   H5Y21590   1.165   2.874   7.165 -0.1416  0.6238 -0.6742
  187SLPC   C3621591   1.150   2.664   7.224  0.3115 -0.0463  0.2532
  187SLPC   H6X21592   1.260   2.651   7.223  0.3073 -0.3872  3.0206
  187SLPC   H6Y21593   1.098   2.569   7.198 -0.4307  0.8631 -1.7466
  187SLPC   C3721594   1.137   2.713   7.377  0.3887  0.8284  0.0884
  187SLPC   H7X21595   1.175   2.818   7.380  0.3800  0.8494 -0.4969
  187SLPC   H7Y21596   1.028   2.714   7.396  0.0834  1.5740 -1.5908
  187SLPC   C3821597   1.209   2.616   7.466  0.6483  0.5052 -0.7249
  187SLPC   H8X21598   1.316   2.628   7.439  0.3809 -0.3559 -2.2132
  187SLPC   H8Y21599   1.179   2.516   7.430  0.3990 -0.5674  2.3469
  187SLPC   C3921600   1.191   2.645   7.611 -0.3152 -0.3333 -0.2102
  187SLPC   H9X21601   1.093   2.695   7.624  0.9450  2.4144 -0.7877
  187SLPC   H9Y21602   1.264   2.715   7.658 -2.2158  1.2303  0.4860
  187SLPC  C31021603   1.177   2.512   7.691  0.2074  0.2489  0.0606
  187SLPC  H10X21604   1.269   2.454   7.670 -0.5592 -0.8171 -0.3954
  187SLPC  H10Y21605   1.089   2.450   7.665  0.2668 -0.2682  1.0820
  187SLPC  C31121606   1.187   2.545   7.836 -0.0268  0.0577  0.5013
  187SLPC  H11X21607   1.250   2.635   7.850 -0.3723  0.4507 -0.4494
  187SLPC  H11Y21608   1.235   2.456   7.883 -1.1002 -1.8303 -1.8293
  187SLPC  C31221609   1.053   2.563   7.912  0.2803 -0.0797  0.4140
  187SLPC  H12X21610   0.989   2.478   7.880  1.2209 -0.3174 -0.9027
  187SLPC  H12Y21611   1.009   2.659   7.878  1.0415 -0.2314 -1.0493
  187SLPC  C31321612   1.094   2.551   8.062 -0.3764  0.1804  0.1610
  187SLPC  H13X21613   1.190   2.603   8.082 -0.6805  0.5487  0.7103
  187SLPC  H13Y21614   1.118   2.449   8.097 -1.8313  0.2594  1.4865
  187SLPC  C31421615   0.989   2.597   8.161  0.5079 -0.3072 -0.2648
  187SLPC  H14X21616   0.886   2.559   8.143  0.1114  0.4692  0.3702
  187SLPC  H14Y21617   0.976   2.706   8.144  2.7393  0.2834  1.4405
  187SLPC  C31521618   1.035   2.588   8.306  0.0329 -0.2409 -0.0601
  187SLPC  H15X21619   1.121   2.657   8.309  1.5416 -2.0659 -0.0344
  187SLPC  H15Y21620   1.077   2.486   8.324  1.2616  0.2625 -0.0618
  187SLPC  C31621621   0.939   2.628   8.416 -0.3236  0.4326 -0.3663
  187SLPC  H16X21622   0.886   2.723   8.396 -0.3485  0.3508 -0.7008
  187SLPC  H16Y21623   1.005   2.639   8.505  0.3084 -2.4814 -0.4226
  187SLPC  C31721624   0.824   2.516   8.439  0.3619 -0.0098  0.4871
  187SLPC  H17X21625   0.782   2.495   8.338  1.3765  0.1186  0.0294
  187SLPC  H17Y21626   0.739   2.553   8.501 -1.7002 -2.2695 -0.8924
  187SLPC  C31821627   0.874   2.389   8.501 -0.5107  0.7683 -0.8328
  187SLPC  H18X21628   0.804   2.330   8.564  0.4513  2.5534  2.0113
  187SLPC  H18Y21629   0.965   2.408   8.562 -0.9126  0.8794 -0.2582
  187SLPC  H18Z21630   0.911   2.329   8.415  3.0362 -0.5820  1.5222
  188SLPC     N21631   1.946   4.262   6.145  0.6101 -0.0842 -0.5214
  188SLPC   C1321632   2.044   4.370   6.126 -0.0209  0.5299  0.4800
  188SLPC  H13A21633   2.134   4.330   6.080 -0.5236  0.6603 -0.6210
  188SLPC  H13B21634   2.004   4.453   6.070  0.2846 -0.1807 -0.8162
  188SLPC  H13C21635   2.074   4.405   6.223 -0.0520 -0.3546  0.8191
  188SLPC   C1421636   2.016   4.129   6.183  0.1967 -0.3344  0.1736
  188SLPC  H14A21637   2.082   4.110   6.100  0.5373  2.0066 -0.1249
  188SLPC  H14B21638   2.079   4.150   6.268  0.2194 -0.2137  0.1273
  188SLPC  H14C21639   1.947   4.050   6.207 -2.0952  1.4520 -0.2866
  188SLPC   C1521640   1.877   4.243   6.014  1.2377  0.5236  0.2849
  188SLPC  H15A21641   1.827   4.147   6.009  1.2624  0.4600  1.2828
  188SLPC  H15B21642   1.807   4.325   6.003  0.8463  0.1114 -0.3454
  188SLPC  H15C21643   1.939   4.243   5.926  2.6611  1.3452  1.2816
  188SLPC   C1221644   1.831   4.296   6.244  0.1408  0.1342  0.2517
  188SLPC  H12A21645   1.757   4.217   6.237 -1.9925  2.1496 -0.2810
  188SLPC  H12B21646   1.782   4.387   6.216  1.0183  0.1529 -1.2256
  188SLPC   C1121647   1.870   4.307   6.398  0.4410 -0.4526  0.4799
  188SLPC  H11A21648   1.936   4.222   6.426  1.1383 -0.5881 -1.4968
  188SLPC  H11B21649   1.770   4.295   6.445  1.1099 -0.4898  1.9292
  188SLPC     P21650   2.067   4.446   6.494 -0.2027  0.2837 -0.1036
  188SLPC   O1321651   2.174   4.375   6.423 -0.5028 -0.4390  0.0439
  188SLPC   O1421652   2.078   4.590   6.518 -0.3484 -0.5105 -0.1129
  188SLPC   O1221653   1.936   4.436   6.409 -0.1039  0.1907  0.1673
  188SLPC   O1121654   2.016   4.362   6.619 -0.0637 -0.2512 -0.5282
  188SLPC    C121655   1.943   4.435   6.719  0.1488  0.3101 -0.0495
  188SLPC    HA21656   1.893   4.525   6.678  0.0885 -0.4083 -1.5494
  188SLPC    HB21657   1.861   4.366   6.750 -0.8226  1.7218  0.6295
  188SLPC    C221658   2.032   4.464   6.843 -0.8765 -0.2940 -0.6476
  188SLPC    HS21659   2.085   4.558   6.817 -1.9704  0.5057  0.0045
  188SLPC   O2121660   2.114   4.346   6.867  0.1610  0.5234  0.0697
  188SLPC   C2121661   2.225   4.368   6.921  0.1108  0.5485  0.2048
  188SLPC   O2221662   2.291   4.466   6.934 -0.0775 -0.1514  0.6647
  188SLPC   C2221663   2.268   4.235   6.980 -0.5508  0.0585 -0.7718
  188SLPC   H2R21664   2.177   4.196   7.031 -0.9934  3.7340  1.4095
  188SLPC   H2S21665   2.294   4.163   6.900  1.9111 -0.9709  0.9147
  188SLPC    C321666   1.955   4.512   6.964 -0.2374 -0.3936  0.2270
  188SLPC    HX21667   2.028   4.563   7.030  0.7723 -0.1280 -1.0811
  188SLPC    HY21668   1.938   4.417   7.020  0.6979 -1.0795 -0.6375
  188SLPC   O3121669   1.837   4.595   6.940  0.4409 -0.2986 -0.3527
  188SLPC   C3121670   1.857   4.722   6.915  0.3425  0.6983  0.5495
  188SLPC   O3221671   1.971   4.769   6.906  0.1420  0.1540 -0.4157
  188SLPC   C3221672   1.724   4.789   6.896 -0.0927  0.2884 -0.1217
  188SLPC   H2X21673   1.639   4.719   6.916 -0.2820 -0.5958 -3.6622
  188SLPC   H2Y21674   1.715   4.812   6.787 -0.6867  1.8060  0.2314
  188SLPC   C2321675   2.383   4.256   7.084  0.6620  0.3150  0.1400
  188SLPC   H3R21676   2.330   4.276   7.179  1.1778  0.3602  0.4196
  188SLPC   H3S21677   2.452   4.340   7.063  0.3211  1.2613  2.7581
  188SLPC   C2421678   2.450   4.123   7.096 -0.4728  0.6527  0.4937
  188SLPC   H4R21679   2.502   4.105   6.999  0.4629 -2.3075  1.4955
  188SLPC   H4S21680   2.372   4.044   7.102  0.8110 -0.7567 -1.1072
  188SLPC   C2521681   2.549   4.105   7.210  0.6028 -0.2259 -0.3184
  188SLPC   H5R21682   2.611   4.196   7.193  0.4016  0.1089  0.6975
  188SLPC   H5S21683   2.608   4.013   7.190 -1.8199 -1.9096  0.0592
  188SLPC   C2621684   2.482   4.095   7.349 -0.9425 -0.2801 -0.3433
  188SLPC   H6R21685   2.416   4.007   7.334  0.6412 -1.8683  1.8182
  188SLPC   H6S21686   2.414   4.179   7.376  0.2962  0.0688  1.7498
  188SLPC   C2721687   2.565   4.051   7.472 -0.1280 -0.2414  0.1800
  188SLPC   H7R21688   2.623   4.139   7.507  2.5400 -1.3998 -1.1810
  188SLPC   H7S21689   2.635   3.968   7.450  0.2217 -0.0905  0.7295
  188SLPC   C2821690   2.469   4.014   7.589 -0.0180  0.0492 -1.1242
  188SLPC   H8R21691   2.385   3.955   7.548 -1.1658  2.2493 -2.0382
  188SLPC   H8S21692   2.431   4.111   7.629  3.6862  1.0534  0.1391
  188SLPC   C2921693   2.548   3.936   7.687  0.1681  0.6698  0.0283
  188SLPC   H9R21694   2.585   3.837   7.656 -0.6893  0.2525  0.3276
  188SLPC  C21021695   2.581   3.977   7.812  0.5008  0.1211  0.5135
  188SLPC  H10R21696   2.612   3.895   7.879 -2.0095 -1.1744  0.1402
  188SLPC  C21121697   2.542   4.114   7.860  0.0829 -0.0040  0.1884
  188SLPC  H11R21698   2.435   4.144   7.851  0.3423  2.1041  3.2934
  188SLPC  H11S21699   2.606   4.188   7.808 -0.9449  1.4936  0.9745
  188SLPC  C21221700   2.596   4.137   8.004 -0.4757  0.7686  0.3594
  188SLPC  H12R21701   2.701   4.112   8.023 -0.7054 -0.7976 -0.3308
  188SLPC  C21321702   2.517   4.162   8.110  0.8836  0.1749  0.2838
  188SLPC  H13R21703   2.566   4.177   8.207  2.0911  0.3536 -0.3436
  188SLPC  C21421704   2.363   4.185   8.115 -0.2087 -0.5443  0.3056
  188SLPC  H14R21705   2.323   4.119   8.195 -0.0961  0.1909  0.9733
  188SLPC  H14S21706   2.300   4.178   8.024  1.3035  1.7048 -0.9460
  188SLPC  C21521707   2.357   4.335   8.156 -0.2389 -0.1946  0.6352
  188SLPC  H15R21708   2.419   4.393   8.084 -1.7050  0.4248 -0.1476
  188SLPC  H15S21709   2.388   4.344   8.262 -1.5647  0.8878  0.9342
  188SLPC  C21621710   2.223   4.398   8.147  0.2318  0.4440 -0.4120
  188SLPC  H16R21711   2.152   4.344   8.213  1.1692  1.4610  1.4538
  188SLPC  H16S21712   2.187   4.367   8.046  1.2013  0.5531 -0.7932
  188SLPC  C21721713   2.227   4.549   8.159  0.4911  0.1178 -0.1259
  188SLPC  H17R21714   2.127   4.588   8.131 -0.2633 -2.2261 -0.7833
  188SLPC  H17S21715   2.294   4.599   8.085 -0.7847  3.0593  0.6451
  188SLPC  C21821716   2.249   4.595   8.305  0.1045 -0.5965  0.2262
  188SLPC  H18R21717   2.201   4.694   8.325  0.8729 -0.6054  2.2098
  188SLPC  H18S21718   2.354   4.594   8.342 -0.2154 -0.0814  1.1661
  188SLPC  H18T21719   2.193   4.516   8.359 -2.1581 -1.3344 -3.0605
  188SLPC   C3321720   1.713   4.929   6.971  0.0443  0.0349 -0.4621
  188SLPC   H3X21721   1.616   4.974   6.940  0.5820  2.4940  1.3378
  188SLPC   H3Y21722   1.790   5.002   6.941  1.2934 -1.1092 -0.0744
  188SLPC   C3421723   1.714   4.922   7.127  0.0444  0.3079 -0.6269
  188SLPC   H4X21724   1.697   5.027   7.159  0.5221 -0.2272  1.4612
  188SLPC   H4Y21725   1.820   4.898   7.150  0.1272 -0.8481 -2.1282
  188SLPC   C3521726   1.612   4.829   7.186  0.6103 -0.1483  0.4939
  188SLPC   H5X21727   1.621   4.729   7.137  0.0869  0.1833 -0.2791
  188SLPC   H5Y21728   1.513   4.874   7.167  1.2114  0.7988 -0.3957
  188SLPC   C3621729   1.630   4.804   7.334 -0.6581  0.1577  0.2231
  188SLPC   H6X21730   1.732   4.769   7.361 -0.3737  0.4495 -0.4739
  188SLPC   H6Y21731   1.558   4.724   7.362  1.7066 -2.2943 -0.4399
  188SLPC   C3721732   1.617   4.938   7.419  0.4079 -0.3102 -0.1740
  188SLPC   H7X21733   1.517   4.981   7.397  0.2482 -0.0581  0.9834
  188SLPC   H7Y21734   1.699   5.007   7.388 -2.0285  3.0495  0.5432
  188SLPC   C3821735   1.625   4.919   7.572 -0.4704 -0.6096 -0.3819
  188SLPC   H8X21736   1.551   4.840   7.598 -1.5820  0.5286 -0.0027
  188SLPC   H8Y21737   1.598   5.015   7.621  0.3850 -0.1432 -0.8175
  188SLPC   C3921738   1.766   4.880   7.623  0.1506 -0.7114 -0.5740
  188SLPC   H9X21739   1.839   4.924   7.552  0.0100 -0.0352 -0.3100
  188SLPC   H9Y21740   1.776   4.772   7.603  1.4884 -0.6562 -0.2560
  188SLPC  C31021741   1.802   4.914   7.772 -0.4692 -0.3338 -0.0435
  188SLPC  H10X21742   1.708   4.892   7.828 -0.6815 -2.1049 -1.0769
  188SLPC  H10Y21743   1.830   5.022   7.772 -1.6394  0.0195 -3.1199
  188SLPC  C31121744   1.914   4.827   7.814  0.0305  0.1738  0.2568
  188SLPC  H11X21745   1.995   4.818   7.738  1.7963 -1.2596  2.2535
  188SLPC  H11Y21746   1.863   4.729   7.811 -0.8410  0.6427 -0.5496
  188SLPC  C31221747   1.981   4.880   7.951 -0.1122 -0.0966  0.2784
  188SLPC  H12X21748   2.029   4.980   7.957  0.6847 -0.5254  1.2013
  188SLPC  H12Y21749   2.071   4.817   7.965 -1.0228 -0.8776  2.8932
  188SLPC  C31321750   1.880   4.867   8.061  0.7220  0.0289 -0.0008
  188SLPC  H13X21751   1.809   4.784   8.042  2.1644 -1.6919  1.8114
  188SLPC  H13Y21752   1.821   4.961   8.058  1.8943  0.7895  0.1690
  188SLPC  C31421753   1.949   4.847   8.197  0.1482  0.1866 -1.2160
  188SLPC  H14X21754   2.058   4.868   8.200  0.4014 -1.2833  2.0109
  188SLPC  H14Y21755   1.932   4.741   8.225  0.2498  0.9946  2.1619
  188SLPC  C31521756   1.903   4.946   8.301 -0.2846  0.2523 -0.1007
  188SLPC  H15X21757   1.795   4.937   8.278  0.1639 -3.8860 -1.0561
  188SLPC  H15Y21758   1.948   5.046   8.281 -2.1803  1.2241  0.3906
  188SLPC  C31621759   1.938   4.899   8.440 -0.1484 -0.6084  0.4491
  188SLPC  H16X21760   2.049   4.895   8.443 -0.0424  1.8558  0.5444
  188SLPC  H16Y21761   1.910   4.793   8.461  0.2675 -1.2937 -2.2597
  188SLPC  C31721762   1.876   4.984   8.553  0.4947  0.8873  0.6007
  188SLPC  H17X21763   1.901   4.941   8.652 -0.6480 -1.3611 -0.0701
  188SLPC  H17Y21764   1.766   4.975   8.539  0.7148  1.4459 -1.6051
  188SLPC  C31821765   1.916   5.134   8.561 -0.0152 -0.1114 -0.3595
  188SLPC  H18X21766   2.021   5.139   8.595  0.1196  0.8123 -0.8707
  188SLPC  H18Y21767   1.847   5.196   8.622 -1.6024 -0.5406 -1.6916
  188SLPC  H18Z21768   1.915   5.181   8.460 -1.9375  1.0825  0.1780
  189SLPC     N21769   3.971   0.117   6.230 -0.4975 -0.5268 -0.2196
  189SLPC   C1321770   3.995   0.168   6.370 -0.5101 -0.7947 -0.6272
  189SLPC  H13A21771   4.076   0.239   6.370 -0.2853 -1.0518  0.3300
  189SLPC  H13B21772   3.908   0.222   6.407 -0.1156 -0.0642 -0.7471
  189SLPC  H13C21773   3.998   0.080   6.431 -3.0862  0.0805  0.8524
  189SLPC   C1421774   4.089   0.035   6.192  0.1675  0.1413  0.3901
  189SLPC  H14A21775   4.078   0.009   6.087  1.8035  1.3479 -0.0885
  189SLPC  H14B21776   4.178   0.094   6.204 -0.7891  2.1832 -2.0523
  189SLPC  H14C21777   4.097  -0.053   6.254 -2.2030 -0.6579 -0.3709
  189SLPC   C1521778   3.954   0.227   6.129 -0.2579  0.1140 -0.5182
  189SLPC  H15A21779   3.896   0.307   6.172  1.4036  0.7857  0.5007
  189SLPC  H15B21780   4.047   0.271   6.095 -0.0852 -0.9542 -1.4509
  189SLPC  H15C21781   3.899   0.189   6.045 -1.3029  1.6993 -0.5745
  189SLPC   C1221782   3.836   0.045   6.225 -0.5963  0.4461  0.6753
  189SLPC  H12A21783   3.817   0.040   6.119 -0.1113 -0.1515  0.6129
  189SLPC  H12B21784   3.760   0.104   6.273  0.7785  2.5024  0.4149
  189SLPC   C1121785   3.839  -0.098   6.271  0.2884 -0.1022 -0.3949
  189SLPC  H11A21786   3.906  -0.161   6.209  1.2634  1.5848 -1.0729
  189SLPC  H11B21787   3.734  -0.135   6.260  0.0651  0.3336  0.2258
  189SLPC     P21788   3.976  -0.197   6.472 -0.2167  0.0900  0.0067
  189SLPC   O1321789   4.031  -0.284   6.358 -0.1585 -0.0421 -0.5132
  189SLPC   O1421790   4.083  -0.135   6.558  0.2539 -0.2111 -0.6546
  189SLPC   O1221791   3.873  -0.092   6.416 -0.4109  0.0925  0.2082
  189SLPC   O1121792   3.895  -0.294   6.566  0.4825  0.0577  0.3983
  189SLPC    C121793   3.759  -0.265   6.586  0.0670  0.6752 -0.0396
  189SLPC    HA21794   3.704  -0.235   6.494  0.7042  0.5641 -0.4659
  189SLPC    HB21795   3.714  -0.364   6.609  0.1829  0.4270 -0.8568
  189SLPC    C221796   3.745  -0.165   6.704  0.6973  0.2978 -0.3326
  189SLPC    HS21797   3.762  -0.064   6.661  0.8239  1.4854  2.4207
  189SLPC   O2121798   3.841  -0.189   6.810  0.0976  0.2136 -0.4238
  189SLPC   C2121799   3.859  -0.075   6.879 -0.3125  0.4736 -0.6170
  189SLPC   O2221800   3.840   0.039   6.835 -0.3140 -0.1321 -0.4646
  189SLPC   C2221801   3.910  -0.110   7.020  0.3928 -0.1943 -0.2425
  189SLPC   H2R21802   3.909  -0.221   7.026 -0.6252 -0.2095 -0.6766
  189SLPC   H2S21803   4.011  -0.067   7.040  0.4103 -0.0432 -0.6491
  189SLPC    C321804   3.587  -0.180   6.746 -0.2273  0.0165  0.2483
  189SLPC    HX21805   3.574  -0.282   6.789  0.5831  0.0213  0.5158
  189SLPC    HY21806   3.543  -0.174   6.644 -0.8323  0.5643  0.5448
  189SLPC   O3121807   3.543  -0.070   6.827  0.2340 -0.1273  0.2395
  189SLPC   C3121808   3.415  -0.024   6.812 -0.1515  0.2126 -0.3562
  189SLPC   O3221809   3.337  -0.071   6.734 -0.2709  0.4791  0.2179
  189SLPC   C3221810   3.378   0.094   6.904  0.5305  0.3192  0.0228
  189SLPC   H2X21811   3.269   0.087   6.920  0.5287  0.9507  0.3219
  189SLPC   H2Y21812   3.402   0.191   6.854  0.3293  0.5618  0.3953
  189SLPC   C2321813   3.820  -0.051   7.130  0.1361  0.6029  0.0513
  189SLPC   H3R21814   3.717  -0.090   7.116  0.7689 -0.9650 -0.3513
  189SLPC   H3S21815   3.822   0.059   7.114 -1.7329  0.4483 -1.4086
  189SLPC   C2421816   3.860  -0.084   7.275 -0.4978  0.4613 -0.1200
  189SLPC   H4R21817   3.800  -0.016   7.338 -0.2627 -0.9447  1.6391
  189SLPC   H4S21818   3.966  -0.053   7.281 -0.0142 -1.2088  0.3451
  189SLPC   C2521819   3.840  -0.222   7.331 -1.1417  0.2494 -0.7167
  189SLPC   H5R21820   3.905  -0.288   7.269 -1.1299  0.2138 -0.6679
  189SLPC   H5S21821   3.736  -0.259   7.315 -1.1347 -0.6650  1.2166
  189SLPC   C2621822   3.880  -0.243   7.477 -0.5435  0.3752  0.1619
  189SLPC   H6R21823   3.979  -0.202   7.507  0.4488 -0.9225 -1.2575
  189SLPC   H6S21824   3.891  -0.352   7.499 -0.8484  0.4580  0.7137
  189SLPC   C2721825   3.772  -0.180   7.570  0.7549  0.6874  0.6556
  189SLPC   H7R21826   3.681  -0.235   7.538 -0.9602  4.2052 -0.8102
  189SLPC   H7S21827   3.764  -0.069   7.561 -0.3191  0.4848 -1.0994
  189SLPC   C2821828   3.809  -0.217   7.708 -0.2958 -0.3313 -0.0911
  189SLPC   H8R21829   3.908  -0.168   7.718 -1.5375  2.1499  0.5475
  189SLPC   H8S21830   3.825  -0.327   7.711 -1.5457 -0.5746 -1.6791
  189SLPC   C2921831   3.713  -0.164   7.812 -0.3891 -0.3344 -0.4097
  189SLPC   H9R21832   3.684  -0.058   7.798 -1.6844 -0.5397  0.6726
  189SLPC  C21021833   3.669  -0.237   7.912  1.1319 -0.1310 -0.4209
  189SLPC  H10R21834   3.618  -0.180   7.991  0.9967  3.6714 -3.0673
  189SLPC  C21121835   3.699  -0.379   7.945  0.3837  0.5146  0.1266
  189SLPC  H11R21836   3.738  -0.373   8.048  0.1293  1.9043  0.1507
  189SLPC  H11S21837   3.782  -0.423   7.885  1.4798  1.5365  0.8876
  189SLPC  C21221838   3.572  -0.461   7.933  0.3253 -0.4902  0.3832
  189SLPC  H12R21839   3.551  -0.494   7.830  0.1956 -1.1833  0.6292
  189SLPC  C21321840   3.498  -0.509   8.040  0.9007 -0.7286  0.5837
  189SLPC  H13R21841   3.406  -0.564   8.014 -0.9907  2.1824  0.8153
  189SLPC  C21421842   3.510  -0.480   8.192 -0.6543 -0.0624  0.5011
  189SLPC  H14R21843   3.405  -0.471   8.229 -0.2747 -1.0067  1.8490
  189SLPC  H14S21844   3.546  -0.378   8.217  1.3472 -0.3626 -1.0644
  189SLPC  C21521845   3.582  -0.591   8.276  0.2962  0.7691  0.4190
  189SLPC  H15R21846   3.689  -0.606   8.250  0.2569  2.3117 -0.6758
  189SLPC  H15S21847   3.525  -0.683   8.250 -0.5410  1.1940  0.7080
  189SLPC  C21621848   3.550  -0.574   8.424 -0.2180 -0.6235 -0.2875
  189SLPC  H16R21849   3.444  -0.543   8.434  0.0274  0.5709 -1.3128
  189SLPC  H16S21850   3.598  -0.481   8.462  1.0692 -1.3590 -0.0811
  189SLPC  C21721851   3.574  -0.701   8.504 -0.2892 -0.2923 -0.1909
  189SLPC  H17R21852   3.593  -0.675   8.611 -1.0649 -0.9702  0.1186
  189SLPC  H17S21853   3.667  -0.748   8.464 -1.0331  0.1347 -2.4760
  189SLPC  C21821854   3.460  -0.806   8.504  0.1811  1.0188  0.4465
  189SLPC  H18R21855   3.496  -0.890   8.568 -0.0145  0.2205 -0.4847
  189SLPC  H18S21856   3.437  -0.829   8.398 -0.1844 -0.0763  0.7513
  189SLPC  H18T21857   3.370  -0.761   8.550 -0.3680  0.0634  0.3152
  189SLPC   C3321858   3.445   0.083   7.040 -0.2715 -0.8352  0.2079
  189SLPC   H3X21859   3.554   0.104   7.034 -0.1312 -2.1560 -2.8004
  189SLPC   H3Y21860   3.423  -0.018   7.081 -2.3785  0.0876  1.4394
  189SLPC   C3421861   3.382   0.169   7.149  0.0750 -0.6730  0.2079
  189SLPC   H4X21862   3.276   0.141   7.170  0.2277 -0.5282  1.1858
  189SLPC   H4Y21863   3.396   0.275   7.119  0.5879 -0.6114  0.6525
  189SLPC   C3521864   3.448   0.149   7.292  0.3329  0.5697 -0.1147
  189SLPC   H5X21865   3.559   0.158   7.295  0.4571 -1.0694  0.2049
  189SLPC   H5Y21866   3.414   0.047   7.316 -1.2528  0.8585 -1.0144
  189SLPC   C3621867   3.385   0.241   7.399  0.0113  0.2558 -0.4678
  189SLPC   H6X21868   3.275   0.222   7.397  0.1322 -0.4038 -0.9802
  189SLPC   H6Y21869   3.401   0.344   7.362 -0.1855 -0.0737 -1.4774
  189SLPC   C3721870   3.436   0.217   7.543  0.2176 -0.2778 -0.7503
  189SLPC   H7X21871   3.527   0.154   7.549  0.4961  0.3492  2.6230
  189SLPC   H7Y21872   3.361   0.160   7.603 -1.0858 -0.4265 -2.4842
  189SLPC   C3821873   3.449   0.346   7.618 -0.2509  0.4101 -0.9244
  189SLPC   H8X21874   3.360   0.409   7.601  0.5606  1.3930 -1.5498
  189SLPC   H8Y21875   3.524   0.414   7.571  1.2205 -0.1166  0.5875
  189SLPC   C3921876   3.490   0.333   7.762  0.3785  0.1554  0.1777
  189SLPC   H9X21877   3.410   0.280   7.818 -0.6072  0.0349 -1.2942
  189SLPC   H9Y21878   3.490   0.435   7.806  1.0806  0.4327 -0.4504
  189SLPC  C31021879   3.625   0.264   7.795 -0.8277  0.2389  0.4651
  189SLPC  H10X21880   3.684   0.274   7.701 -1.7500  3.2835  0.1289
  189SLPC  H10Y21881   3.588   0.160   7.801 -0.0575  0.0473  1.9020
  189SLPC  C31121882   3.694   0.293   7.923 -0.4667  0.7627 -0.2690
  189SLPC  H11X21883   3.710   0.403   7.930  2.8523  0.2739  0.7690
  189SLPC  H11Y21884   3.794   0.246   7.925 -1.3711 -1.1719  0.2175
  189SLPC  C31221885   3.615   0.243   8.047 -0.2092 -0.4064  0.0511
  189SLPC  H12X21886   3.586   0.136   8.039  2.3984 -1.0126 -1.6843
  189SLPC  H12Y21887   3.515   0.292   8.040  0.9605  1.9868 -0.4996
  189SLPC  C31321888   3.669   0.292   8.184  0.3119  0.7002 -0.0453
  189SLPC  H13X21889   3.745   0.224   8.228 -1.1744 -0.8738  0.1228
  189SLPC  H13Y21890   3.577   0.280   8.244 -0.9618 -0.1740 -2.1173
  189SLPC  C31421891   3.717   0.437   8.187 -0.5713 -0.3642 -0.3418
  189SLPC  H14X21892   3.633   0.482   8.130 -0.7523 -0.9670 -0.5622
  189SLPC  H14Y21893   3.809   0.442   8.124 -0.5614  2.2378 -0.1583
  189SLPC  C31521894   3.742   0.477   8.330 -0.3038  0.1401  0.0091
  189SLPC  H15X21895   3.807   0.398   8.372 -2.4029 -1.2473  0.7479
  189SLPC  H15Y21896   3.648   0.468   8.389 -1.2217  2.3801 -1.0535
  189SLPC  C31621897   3.797   0.615   8.344  0.3083 -0.6335  0.1737
  189SLPC  H16X21898   3.722   0.685   8.302 -0.4667 -3.7012 -3.8315
  189SLPC  H16Y21899   3.888   0.624   8.280 -0.0185 -0.4810 -0.2676
  189SLPC  C31721900   3.839   0.647   8.489 -0.0034  0.1393  0.4352
  189SLPC  H17X21901   3.752   0.643   8.557 -0.1417 -3.2898  0.1520
  189SLPC  H17Y21902   3.884   0.747   8.499  0.5582  0.1629 -1.9252
  189SLPC  C31821903   3.945   0.546   8.538 -0.1737 -0.0672 -0.1722
  189SLPC  H18X21904   4.030   0.548   8.467  0.7451  1.0602  0.9481
  189SLPC  H18Y21905   3.904   0.444   8.555  1.2079 -1.0129 -2.3105
  189SLPC  H18Z21906   3.972   0.590   8.636  1.5753 -0.6436 -0.3757
  190SLPC     N21907   4.104   5.733   5.839  0.4918 -0.4448  0.1496
  190SLPC   C1321908   4.125   5.758   5.689 -0.0473  0.1685 -0.9023
  190SLPC  H13A21909   4.230   5.768   5.667  0.2497 -1.1112 -0.1349
  190SLPC  H13B21910   4.093   5.665   5.644 -1.5940  0.6828 -0.8715
  190SLPC  H13C21911   4.065   5.833   5.641 -0.5602  0.1004 -0.3741
  190SLPC   C1421912   4.081   5.861   5.912 -0.1052  0.0331 -0.0210
  190SLPC  H14A21913   4.084   5.847   6.019 -0.6132  0.3205  0.0309
  190SLPC  H14B21914   4.158   5.930   5.882 -0.2444  0.7633  1.2886
  190SLPC  H14C21915   3.981   5.897   5.895 -0.1029  1.3575  2.5447
  190SLPC   C1521916   4.229   5.677   5.889 -0.2220 -0.4284 -0.0131
  190SLPC  H15A21917   4.306   5.752   5.893 -0.3061 -0.3917  1.0638
  190SLPC  H15B21918   4.209   5.648   5.991  0.1920 -2.6480 -0.5341
  190SLPC  H15C21919   4.260   5.581   5.849  1.0183 -0.0390 -0.0030
  190SLPC   C1221920   3.996   5.628   5.870 -0.5722 -0.4297 -0.3328
  190SLPC  H12A21921   4.036   5.528   5.859 -0.7434 -0.5769  0.3628
  190SLPC  H12B21922   3.911   5.644   5.805 -1.4336 -1.0426  0.6289
  190SLPC   C1121923   3.937   5.624   6.009 -0.0540  0.2257 -0.0671
  190SLPC  H11A21924   3.871   5.535   6.013  0.1649  0.0824  0.4061
  190SLPC  H11B21925   3.876   5.715   6.031  2.0286  2.1170 -1.8351
  190SLPC     P21926   4.020   5.566   6.253  0.4842  0.1400  0.1639
  190SLPC   O1321927   3.966   5.427   6.254 -0.6715 -0.2978 -0.7371
  190SLPC   O1421928   4.147   5.583   6.326 -0.8462 -0.1425 -0.5710
  190SLPC   O1221929   4.041   5.608   6.106 -0.2945 -0.3306  0.3598
  190SLPC   O1121930   3.906   5.653   6.314 -0.2473 -0.1849  0.4570
  190SLPC    C121931   3.911   5.798   6.301 -0.0740 -0.3445 -0.3878
  190SLPC    HA21932   3.997   5.836   6.241 -0.1126  0.5806  0.1209
  190SLPC    HB21933   3.830   5.823   6.229  0.9973  0.9928 -1.1679
  190SLPC    C221934   3.885   5.869   6.439  0.6467  0.2278  0.1778
  190SLPC    HS21935   3.878   5.978   6.418 -0.4683  0.3388  1.0427
  190SLPC   O2121936   3.990   5.848   6.540  0.1481 -0.0025 -0.3352
  190SLPC   C2121937   4.105   5.902   6.515 -0.1884 -0.4806  0.6200
  190SLPC   O2221938   4.129   5.980   6.422 -0.0072  0.4252 -0.3912
  190SLPC   C2221939   4.218   5.867   6.613 -0.3870 -0.3266 -0.2342
  190SLPC   H2R21940   4.193   5.764   6.648  2.8761 -0.6718  1.2550
  190SLPC   H2S21941   4.309   5.865   6.550 -1.1088  0.2996 -1.3261
  190SLPC    C321942   3.752   5.826   6.499 -0.0210 -0.1546 -0.0755
  190SLPC    HX21943   3.731   5.720   6.475  0.7014  0.2291 -2.6569
  190SLPC    HY21944   3.670   5.879   6.444 -0.0969  0.7716  0.9180
  190SLPC   O3121945   3.747   5.858   6.639 -0.0297  0.9177 -0.1132
  190SLPC   C3121946   3.642   5.807   6.709  0.0121 -0.3343 -0.1886
  190SLPC   O3221947   3.552   5.748   6.649 -0.1534 -0.2346  0.1194
  190SLPC   C3221948   3.662   5.801   6.859 -0.4902 -0.8772 -0.0277
  190SLPC   H2X21949   3.730   5.886   6.879  0.2651 -1.4094 -0.2818
  190SLPC   H2Y21950   3.706   5.703   6.888  0.1001 -0.3947  0.7048
  190SLPC   C2321951   4.219   5.961   6.725  0.9182 -0.3516  0.7713
  190SLPC   H3R21952   4.232   6.067   6.696  0.0339 -0.2339  0.7818
  190SLPC   H3S21953   4.298   5.935   6.798 -0.0963  1.4795  2.5788
  190SLPC   C2421954   4.108   5.951   6.825  0.3475  0.2979  0.4375
  190SLPC   H4R21955   4.008   5.933   6.781 -0.0207 -0.4990  1.5893
  190SLPC   H4S21956   4.091   6.043   6.885  0.9578  0.8829 -0.2767
  190SLPC   C2521957   4.121   5.834   6.934 -0.2690 -0.2261 -0.8772
  190SLPC   H5R21958   4.229   5.820   6.952  0.2402  2.0724 -1.9580
  190SLPC   H5S21959   4.089   5.739   6.886  2.0193 -1.9557  0.9196
  190SLPC   C2621960   4.042   5.862   7.069  0.1663  0.5957 -0.9222
  190SLPC   H6R21961   3.940   5.895   7.041 -0.3847 -0.4361 -0.1610
  190SLPC   H6S21962   4.095   5.944   7.121  0.7570  0.7741 -1.7987
  190SLPC   C2721963   4.023   5.742   7.164 -0.3556 -0.2600  0.6388
  190SLPC   H7R21964   4.122   5.723   7.211 -0.1718 -0.0181  0.3482
  190SLPC   H7S21965   4.004   5.650   7.104 -1.7272 -1.4941  2.8838
  190SLPC   C2821966   3.900   5.753   7.255  0.2493  0.1941  0.1530
  190SLPC   H8R21967   3.887   5.646   7.282  0.0521  0.2377  0.2322
  190SLPC   H8S21968   3.817   5.790   7.191  1.5192  0.9247 -1.1212
  190SLPC   C2921969   3.934   5.838   7.372 -1.0072 -0.1266 -0.1067
  190SLPC   H9R21970   3.961   5.942   7.346  2.0817 -0.4577  1.5187
  190SLPC  C21021971   3.929   5.798   7.502  0.5379 -0.4061 -0.3758
  190SLPC  H10R21972   3.985   5.866   7.568 -0.3774 -2.1222  2.2340
  190SLPC  C21121973   3.896   5.666   7.568 -0.3725 -0.5194  0.1337
  190SLPC  H11R21974   3.935   5.675   7.671  0.6758  1.3470 -0.3867
  190SLPC  H11S21975   3.961   5.597   7.510  1.8751  2.2075 -0.7592
  190SLPC  C21221976   3.752   5.637   7.570 -0.4197  0.2056  0.5793
  190SLPC  H12R21977   3.702   5.670   7.478 -2.1562 -0.7435  1.1574
  190SLPC  C21321978   3.682   5.584   7.674 -0.1884 -0.6879 -0.0232
  190SLPC  H13R21979   3.575   5.569   7.654 -0.2102  1.3078 -1.5815
  190SLPC  C21421980   3.737   5.531   7.809  0.3975  0.3010 -0.1481
  190SLPC  H14R21981   3.697   5.589   7.895 -1.3027 -0.4565 -0.4087
  190SLPC  H14S21982   3.848   5.532   7.813  0.4184 -2.3373  0.3488
  190SLPC  C21521983   3.689   5.389   7.843 -0.8836  0.3589  0.6185
  190SLPC  H15R21984   3.755   5.324   7.781 -0.3331  1.5869 -0.1089
  190SLPC  H15S21985   3.584   5.369   7.811 -1.4227 -1.1892  3.1815
  190SLPC  C21621986   3.701   5.339   7.998  0.0944 -0.4698  0.1498
  190SLPC  H16R21987   3.602   5.371   8.037 -0.2380 -1.5917  0.2368
  190SLPC  H16S21988   3.785   5.382   8.057  1.6103 -2.2524 -0.6604
  190SLPC  C21721989   3.715   5.187   8.010  0.4655  0.2698 -0.1812
  190SLPC  H17R21990   3.807   5.165   7.952 -0.2635  2.0396 -2.0736
  190SLPC  H17S21991   3.634   5.133   7.955  0.3353  1.2738 -0.9785
  190SLPC  C21821992   3.721   5.137   8.157 -0.0864 -0.3091  0.8538
  190SLPC  H18R21993   3.714   5.027   8.161  1.3066 -0.4527 -0.1349
  190SLPC  H18S21994   3.645   5.183   8.223 -0.4283 -2.9594  2.3423
  190SLPC  H18T21995   3.820   5.157   8.204 -0.5590 -0.3510  1.8698
  190SLPC   C3321996   3.529   5.817   6.928 -0.2517 -0.5593 -0.6013
  190SLPC   H3X21997   3.456   5.735   6.911  0.2431 -0.9608 -0.8157
  190SLPC   H3Y21998   3.478   5.912   6.902 -2.4139 -2.0083 -1.8341
  190SLPC   C3421999   3.553   5.835   7.078  0.1861 -0.3115 -0.0648
  190SLPC   H4X22000   3.635   5.906   7.100 -1.9888  2.4677 -0.6911
  190SLPC   H4Y22001   3.601   5.748   7.128  0.0362 -0.1060  0.4433
  190SLPC   C3522002   3.430   5.866   7.164 -0.4468 -0.0106 -0.5536
  190SLPC   H5X22003   3.351   5.800   7.121 -0.4365 -0.4755  0.1245
  190SLPC   H5Y22004   3.403   5.972   7.148  2.3656  0.5710 -1.8668
  190SLPC   C3622005   3.462   5.826   7.312 -0.0601 -0.3027 -0.1928
  190SLPC   H6X22006   3.560   5.874   7.333 -0.6710  0.1142  1.7815
  190SLPC   H6Y22007   3.466   5.715   7.317 -0.1227 -0.4385 -2.3926
  190SLPC   C3722008   3.370   5.886   7.414 -0.2131 -0.2873 -0.1554
  190SLPC   H7X22009   3.267   5.856   7.385 -0.5717 -0.2195  1.0245
  190SLPC   H7Y22010   3.379   5.997   7.411 -0.4901 -0.2108  1.4336
  190SLPC   C3822011   3.397   5.844   7.555  0.1590  0.7024 -0.0695
  190SLPC   H8X22012   3.492   5.896   7.579 -0.8035  2.4843 -0.0370
  190SLPC   H8Y22013   3.398   5.733   7.565  0.9935  0.6259 -0.9081
  190SLPC   C3922014   3.291   5.900   7.648  0.4363 -0.8342 -0.2629
  190SLPC   H9X22015   3.202   5.837   7.627 -0.0172 -0.3349  0.1781
  190SLPC   H9Y22016   3.272   6.007   7.624 -0.1353 -0.7291  0.6446
  190SLPC  C31022017   3.335   5.888   7.798  0.3651  0.3504 -0.2906
  190SLPC  H10X22018   3.437   5.930   7.814  0.6781 -1.3626  2.4961
  190SLPC  H10Y22019   3.349   5.780   7.820  2.8381  1.0042  1.5061
  190SLPC  C31122020   3.225   5.953   7.894 -0.1994  0.3242  0.6350
  190SLPC  H11X22021   3.129   5.898   7.896 -0.4348  0.7605  1.6761
  190SLPC  H11Y22022   3.207   6.054   7.852  0.2457 -0.2333 -0.9192
  190SLPC  C31222023   3.263   5.956   8.044 -0.5127  0.5623 -0.2799
  190SLPC  H12X22024   3.362   6.006   8.059  0.5454 -1.3966 -0.5764
  190SLPC  H12Y22025   3.258   5.851   8.079  1.4009  0.3006 -0.6983
  190SLPC  C31322026   3.164   6.032   8.131 -0.2838 -0.4097 -0.1466
  190SLPC  H13X22027   3.085   5.956   8.148 -1.6783  1.4802  2.0258
  190SLPC  H13Y22028   3.134   6.121   8.071  0.7993 -1.0372 -1.6784
  190SLPC  C31422029   3.209   6.079   8.262 -0.7854  0.0390  0.0165
  190SLPC  H14X22030   3.293   6.151   8.260 -1.9344  1.4687  1.3492
  190SLPC  H14Y22031   3.237   5.989   8.322  0.0326  0.3624  0.1212
  190SLPC  C31522032   3.093   6.138   8.349  0.0107  0.9330 -0.5167
  190SLPC  H15X22033   3.116   6.141   8.458  0.9273  2.1399 -0.7312
  190SLPC  H15Y22034   3.007   6.069   8.339  1.1613 -0.8234  1.2162
  190SLPC  C31622035   3.050   6.286   8.300  0.1057  0.0510 -0.6737
  190SLPC  H16X22036   3.017   6.284   8.194  1.1196  2.0746 -1.0463
  190SLPC  H16Y22037   3.146   6.339   8.315 -0.6769  1.6169 -1.0451
  190SLPC  C31722038   2.940   6.357   8.373 -0.4940  0.0355  0.7958
  190SLPC  H17X22039   2.848   6.296   8.366 -0.3788 -0.1111  0.5723
  190SLPC  H17Y22040   2.916   6.455   8.326  0.1036  0.0254  0.4712
  190SLPC  C31822041   2.959   6.381   8.521  0.0144 -0.4910 -0.1388
  190SLPC  H18X22042   2.869   6.437   8.554  0.8242  0.6028  0.2494
  190SLPC  H18Y22043   3.054   6.428   8.555  1.1613 -3.1711  0.4528
  190SLPC  H18Z22044   2.968   6.287   8.579  1.1265 -1.6088 -2.0881
  191SLPC     N22045   4.680   1.345   5.853  0.3318  0.3876  0.4399
  191SLPC   C1322046   4.560   1.360   5.754  0.3062  0.3847 -0.6117
  191SLPC  H13A22047   4.499   1.449   5.766  0.6430  0.2613  2.5400
  191SLPC  H13B22048   4.585   1.356   5.650 -1.5746  2.8083 -1.2085
  191SLPC  H13C22049   4.497   1.273   5.767  1.0525 -0.2340 -1.1337
  191SLPC   C1422050   4.766   1.467   5.839  0.3171 -0.1966  0.0870
  191SLPC  H14A22051   4.711   1.557   5.858  0.2339 -0.7263  2.5467
  191SLPC  H14B22052   4.851   1.453   5.905 -0.6339  1.2414  1.6250
  191SLPC  H14C22053   4.801   1.485   5.738 -1.4981  0.7203 -0.4017
  191SLPC   C1522054   4.763   1.234   5.793 -0.0089  0.0178 -0.3549
  191SLPC  H15A22055   4.818   1.180   5.869  1.3712 -2.0360 -2.7203
  191SLPC  H15B22056   4.698   1.162   5.746 -0.7153  0.8882 -0.7238
  191SLPC  H15C22057   4.830   1.272   5.717  0.2108  1.6220  0.6207
  191SLPC   C1222058   4.629   1.307   5.986  0.2585  0.1414 -0.2196
  191SLPC  H12A22059   4.602   1.395   6.041 -0.5625  0.0458 -0.4644
  191SLPC  H12B22060   4.715   1.283   6.046  1.7201  0.7275 -2.0332
  191SLPC   C1122061   4.530   1.190   6.011  0.5769 -0.2959  0.5366
  191SLPC  H11A22062   4.529   1.166   6.119  1.6056  0.0203  0.6144
  191SLPC  H11B22063   4.570   1.094   5.970  0.3128 -0.1281 -0.1276
  191SLPC     P22064   4.296   1.316   6.034 -0.3744  0.2411 -0.4918
  191SLPC   O1322065   4.361   1.445   6.071 -0.1610  0.4746 -0.1616
  191SLPC   O1422066   4.158   1.324   5.976  0.4366  0.5341  0.2166
  191SLPC   O1222067   4.398   1.214   5.962 -0.4433  0.2940 -0.0584
  191SLPC   O1122068   4.283   1.236   6.172 -0.4258 -0.3987  0.3738
  191SLPC    C122069   4.220   1.108   6.176 -0.0647  0.3024  0.7848
  191SLPC    HA22070   4.136   1.094   6.104 -1.0755  1.0986  1.7826
  191SLPC    HB22071   4.292   1.028   6.149 -1.7008 -1.2976  1.0524
  191SLPC    C222072   4.164   1.066   6.315  0.3145 -0.0991  0.4433
  191SLPC    HS22073   4.088   0.985   6.301  0.4361 -0.4254  1.6556
  191SLPC   O2122074   4.106   1.183   6.379  0.4038 -1.0985  0.0225
  191SLPC   C2122075   3.987   1.206   6.330  0.8551  0.5087 -0.3613
  191SLPC   O2222076   3.930   1.142   6.243 -0.7242  0.1628 -0.0065
  191SLPC   C2222077   3.922   1.331   6.407  0.1694  0.9757 -0.2775
  191SLPC   H2R22078   3.946   1.326   6.516  1.9189 -1.3143 -0.7369
  191SLPC   H2S22079   3.971   1.419   6.362 -1.2029  2.1611  0.4961
  191SLPC    C322080   4.276   1.003   6.403 -0.9627 -0.9679  0.3451
  191SLPC    HX22081   4.376   1.051   6.389 -1.7906  1.4131  2.2046
  191SLPC    HY22082   4.294   0.900   6.366 -1.3062 -0.0997 -2.3403
  191SLPC   O3122083   4.239   1.003   6.543 -0.1412  0.4159 -0.3863
  191SLPC   C3122084   4.274   1.110   6.616 -0.3359  0.8594 -0.1158
  191SLPC   O3222085   4.352   1.197   6.583  0.3259 -0.2432  0.0540
  191SLPC   C3222086   4.200   1.110   6.753 -0.4063  0.3885 -0.8600
  191SLPC   H2X22087   4.256   1.051   6.828 -1.9812 -0.1813 -0.1152
  191SLPC   H2Y22088   4.107   1.051   6.740  0.3921 -1.0525 -0.1655
  191SLPC   C2322089   3.776   1.358   6.377 -0.1455  0.3636  0.3101
  191SLPC   H3R22090   3.709   1.289   6.432 -0.5671 -0.7145 -1.5209
  191SLPC   H3S22091   3.770   1.335   6.268  0.8928 -0.8196  0.4943
  191SLPC   C2422092   3.735   1.506   6.401 -0.7078  0.2765  0.3364
  191SLPC   H4R22093   3.796   1.579   6.344  0.7269 -1.2276 -0.1032
  191SLPC   H4S22094   3.739   1.535   6.508  1.8183  0.0292  0.3447
  191SLPC   C2522095   3.591   1.526   6.355  0.3651 -0.1293  0.6675
  191SLPC   H5R22096   3.598   1.503   6.247 -1.1299 -2.1081  0.9765
  191SLPC   H5S22097   3.550   1.629   6.349  0.8685 -0.0178 -1.0735
  191SLPC   C2622098   3.483   1.433   6.415 -0.0970  0.4335  0.2141
  191SLPC   H6R22099   3.520   1.328   6.413  1.6028  1.0526 -1.6428
  191SLPC   H6S22100   3.388   1.438   6.358 -0.7559  0.9480  1.3431
  191SLPC   C2722101   3.441   1.468   6.562  0.6355 -0.1011  0.2795
  191SLPC   H7R22102   3.346   1.526   6.556  0.8083  0.1363 -0.1806
  191SLPC   H7S22103   3.522   1.537   6.594  0.8564 -0.5317  0.6462
  191SLPC   C2822104   3.439   1.340   6.650  0.6089 -0.3517  0.3195
  191SLPC   H8R22105   3.534   1.287   6.628 -0.8437 -2.9948  0.1956
  191SLPC   H8S22106   3.355   1.275   6.618  0.5639  0.8305 -2.0499
  191SLPC   C2922107   3.416   1.360   6.797 -0.8611  0.4989  0.1261
  191SLPC   H9R22108   3.317   1.344   6.840 -0.5690 -1.6068  0.0777
  191SLPC  C21022109   3.523   1.390   6.882 -0.3576 -0.1643 -0.0832
  191SLPC  H10R22110   3.496   1.427   6.981 -2.1874  0.0659 -0.6482
  191SLPC  C21122111   3.668   1.415   6.860  0.3058  0.1282  0.5078
  191SLPC  H11R22112   3.697   1.364   6.766 -1.0633  1.6619 -0.7656
  191SLPC  H11S22113   3.712   1.367   6.950  0.7077  0.0620  0.2781
  191SLPC  C21222114   3.708   1.567   6.854 -0.1362  0.1556  0.5613
  191SLPC  H12R22115   3.668   1.623   6.768 -1.2723  0.1901  1.1132
  191SLPC  C21322116   3.788   1.636   6.930 -0.4291  0.2733  0.3264
  191SLPC  H13R22117   3.801   1.743   6.907 -1.2296  0.3651  0.2934
  191SLPC  C21422118   3.871   1.585   7.045 -0.2750  0.0888  0.0328
  191SLPC  H14R22119   3.978   1.590   7.017 -0.0276  0.9466  1.1023
  191SLPC  H14S22120   3.861   1.476   7.067  0.2373 -0.4645 -2.3200
  191SLPC  C21522121   3.833   1.665   7.169 -0.5271 -0.3163 -1.0309
  191SLPC  H15R22122   3.728   1.635   7.186 -0.1620 -0.5885  0.8526
  191SLPC  H15S22123   3.842   1.775   7.154 -2.1966 -0.2292 -1.3920
  191SLPC  C21622124   3.923   1.623   7.286  1.0988  0.1224 -0.1542
  191SLPC  H16R22125   4.031   1.650   7.278  1.3754 -1.2088 -1.0014
  191SLPC  H16S22126   3.919   1.513   7.274  1.4113  0.2163 -1.1412
  191SLPC  C21722127   3.859   1.654   7.424  0.4722  0.0321 -0.0826
  191SLPC  H17R22128   3.758   1.609   7.418  0.1907  0.8057 -1.4189
  191SLPC  H17S22129   3.849   1.761   7.450 -1.9364 -0.3588  0.7447
  191SLPC  C21822130   3.937   1.588   7.535 -0.2801 -1.4822  0.4303
  191SLPC  H18R22131   4.044   1.615   7.533 -0.9354  1.2220 -1.4405
  191SLPC  H18S22132   3.911   1.480   7.534 -0.9863 -1.3145  0.2338
  191SLPC  H18T22133   3.896   1.619   7.634  0.1719 -0.2414  0.2358
  191SLPC   C3322134   4.165   1.253   6.792  0.2166 -0.1171  0.3565
  191SLPC   H3X22135   4.116   1.308   6.709 -0.2640 -0.0923  0.6557
  191SLPC   H3Y22136   4.254   1.314   6.818 -1.0071  0.8445  2.3246
  191SLPC   C3422137   4.082   1.247   6.926  0.1121 -0.3682  0.5829
  191SLPC   H4X22138   3.984   1.198   6.910  0.7288 -1.4694  0.1413
  191SLPC   H4Y22139   4.055   1.352   6.951 -2.2197 -1.4388  2.7554
  191SLPC   C3522140   4.157   1.188   7.050  0.2725 -0.1206  0.9110
  191SLPC   H5X22141   4.264   1.202   7.024  0.2418 -0.6598  0.4875
  191SLPC   H5Y22142   4.124   1.083   7.065 -0.8516  0.1083  0.1420
  191SLPC   C3622143   4.135   1.273   7.171 -0.4666  0.4981 -0.4527
  191SLPC   H6X22144   4.025   1.291   7.177 -0.8279 -2.2096  1.8061
  191SLPC   H6Y22145   4.191   1.366   7.148  2.7517 -1.2530  0.0483
  191SLPC   C3722146   4.192   1.226   7.304  0.0867 -0.3157  0.0034
  191SLPC   H7X22147   4.302   1.243   7.307  0.4560 -2.4957 -0.7637
  191SLPC   H7Y22148   4.172   1.117   7.299  0.5749 -0.3847 -0.4971
  191SLPC   C3822149   4.117   1.287   7.425  0.5980  0.8824  0.3196
  191SLPC   H8X22150   4.006   1.293   7.420  0.4218  0.1518  2.7306
  191SLPC   H8Y22151   4.149   1.394   7.420  3.0578  0.0931 -1.8873
  191SLPC   C3922152   4.154   1.213   7.554  0.0698  0.6778 -0.2102
  191SLPC   H9X22153   4.265   1.222   7.560  0.2014 -1.7540  2.6417
  191SLPC   H9Y22154   4.144   1.103   7.557 -2.3716  0.8624 -0.8439
  191SLPC  C31022155   4.099   1.273   7.685  0.6891  0.1157 -0.0486
  191SLPC  H10X22156   3.991   1.268   7.659  0.9269  0.3008 -1.0938
  191SLPC  H10Y22157   4.132   1.378   7.699  2.2285 -0.2151 -1.0317
  191SLPC  C31122158   4.126   1.202   7.811 -0.4438 -0.2343 -0.3314
  191SLPC  H11X22159   4.235   1.189   7.827  0.1396  1.9222 -2.1886
  191SLPC  H11Y22160   4.075   1.103   7.814  0.4094 -0.7238 -1.2941
  191SLPC  C31222161   4.082   1.296   7.926 -0.2786 -0.4169  0.4792
  191SLPC  H12X22162   3.977   1.332   7.924 -0.2152 -0.1439  1.6770
  191SLPC  H12Y22163   4.134   1.393   7.911  0.3744 -1.3673 -3.9458
  191SLPC  C31322164   4.137   1.244   8.058 -0.1468  0.7948 -0.1336
  191SLPC  H13X22165   4.246   1.229   8.043 -0.1920  0.3385 -0.0000
  191SLPC  H13Y22166   4.085   1.149   8.081  0.8661 -0.2283 -1.8922
  191SLPC  C31422167   4.127   1.344   8.175  0.4892  0.3863 -0.2362
  191SLPC  H14X22168   4.021   1.356   8.205  0.2520  1.0295 -1.3058
  191SLPC  H14Y22169   4.166   1.445   8.148  0.2330  0.3269 -0.8233
  191SLPC  C31522170   4.208   1.289   8.296  0.3293 -0.1197 -0.5920
  191SLPC  H15X22171   4.306   1.244   8.272  0.8216  0.8024 -0.3464
  191SLPC  H15Y22172   4.150   1.210   8.348  3.4568 -0.9039  1.8470
  191SLPC  C31622173   4.245   1.411   8.390  0.1588 -0.2018  0.6737
  191SLPC  H16X22174   4.335   1.458   8.343 -1.1251  2.4258  0.7740
  191SLPC  H16Y22175   4.264   1.356   8.484  0.5983 -0.7125  0.2898
  191SLPC  C31722176   4.130   1.512   8.412  0.2857 -0.1083  0.4042
  191SLPC  H17X22177   4.044   1.453   8.451  0.8199  0.2074  2.0978
  191SLPC  H17Y22178   4.086   1.559   8.322  2.0147  1.0839  0.1756
  191SLPC  C31822179   4.162   1.623   8.517  0.3203 -0.0359  0.8837
  191SLPC  H18X22180   4.201   1.579   8.611  3.3402 -0.4030 -0.4679
  191SLPC  H18Y22181   4.073   1.684   8.543 -0.6530 -0.3685 -1.5731
  191SLPC  H18Z22182   4.244   1.686   8.476  1.0764 -0.6103  1.5046
  192SLPC     N22183   4.444   2.078   6.237  0.3294  0.0084 -0.1033
  192SLPC   C1322184   4.313   2.096   6.161  0.2809  0.2400  0.0651
  192SLPC  H13A22185   4.311   2.165   6.079 -1.2317  0.9840  0.7286
  192SLPC  H13B22186   4.277   2.007   6.112 -0.1419 -0.2336  1.2241
  192SLPC  H13C22187   4.243   2.125   6.237 -0.0175  2.2158 -0.9447
  192SLPC   C1422188   4.484   2.213   6.289 -0.0387 -0.2678 -0.0593
  192SLPC  H14A22189   4.408   2.269   6.341  0.3084  0.3790 -0.2304
  192SLPC  H14B22190   4.573   2.205   6.350 -0.3497  0.6109  0.5213
  192SLPC  H14C22191   4.516   2.276   6.207 -1.9892  0.5775 -0.2079
  192SLPC   C1522192   4.543   2.024   6.131 -0.3884  1.4412  0.2859
  192SLPC  H15A22193   4.505   1.929   6.096  1.8034  0.0362  1.6348
  192SLPC  H15B22194   4.556   2.093   6.050 -1.6039  0.3548 -0.8621
  192SLPC  H15C22195   4.638   1.994   6.172 -0.3137  0.4213 -0.6168
  192SLPC   C1222196   4.433   1.987   6.362 -0.6470 -0.6303 -0.2918
  192SLPC  H12A22197   4.346   2.016   6.419 -1.0131 -0.0114 -1.1590
  192SLPC  H12B22198   4.517   2.019   6.421 -1.3307  1.5636 -0.4745
  192SLPC   C1122199   4.438   1.836   6.343  0.7967  0.1644  0.1243
  192SLPC  H11A22200   4.380   1.813   6.251 -1.1674 -0.4363  1.4761
  192SLPC  H11B22201   4.389   1.785   6.428 -1.6910 -1.3790 -2.1496
  192SLPC     P22202   4.677   1.807   6.434 -0.0724  0.1985 -0.0098
  192SLPC   O1322203   4.798   1.732   6.409  0.4173  0.5086 -0.2056
  192SLPC   O1422204   4.683   1.940   6.485  0.0314  0.0904 -0.4954
  192SLPC   O1222205   4.577   1.791   6.322 -0.5214  0.4248  0.0212
  192SLPC   O1122206   4.605   1.729   6.550  0.0009  0.1602  0.1410
  192SLPC    C122207   4.569   1.787   6.674 -0.8875  0.7278 -0.1206
  192SLPC    HA22208   4.660   1.789   6.737 -1.0017 -3.6580  0.3698
  192SLPC    HB22209   4.533   1.892   6.663 -1.0432  0.5719 -1.1870
  192SLPC    C222210   4.465   1.703   6.739 -0.1581 -0.1612  0.3746
  192SLPC    HS22211   4.390   1.682   6.660  1.3096  2.6813 -1.8482
  192SLPC   O2122212   4.406   1.769   6.848  0.2728  0.9094 -0.2925
  192SLPC   C2122213   4.287   1.723   6.877 -0.2150  0.6751  0.0455
  192SLPC   O2222214   4.237   1.624   6.823  0.5496  0.1484  0.5178
  192SLPC   C2222215   4.221   1.797   6.987  0.0359 -1.2954 -1.1477
  192SLPC   H2R22216   4.196   1.898   6.948  1.4685 -0.7050 -0.5806
  192SLPC   H2S22217   4.122   1.747   6.995  0.7780 -2.6832 -0.3699
  192SLPC    C322218   4.536   1.567   6.781  0.6029 -0.0381 -0.0780
  192SLPC    HX22219   4.585   1.545   6.684 -0.9963 -1.1993 -0.6551
  192SLPC    HY22220   4.455   1.494   6.802 -0.2444  0.9201  0.0645
  192SLPC   O3122221   4.619   1.571   6.897 -0.4597  0.0366  0.0288
  192SLPC   C3122222   4.754   1.562   6.865  0.5874  0.2000  0.6682
  192SLPC   O3222223   4.797   1.504   6.768  0.1122  0.3714 -0.5787
  192SLPC   C3222224   4.837   1.627   6.977  0.3589  0.0514  0.1820
  192SLPC   H2X22225   4.938   1.653   6.940  1.0833 -1.6678  0.9478
  192SLPC   H2Y22226   4.853   1.548   7.052  2.8380  0.0221 -0.3417
  192SLPC   C2322227   4.304   1.796   7.120 -0.4690 -0.3916 -0.2175
  192SLPC   H3R22228   4.275   1.875   7.194  1.0431 -0.4377  0.4429
  192SLPC   H3S22229   4.400   1.845   7.092 -0.5108 -0.4920 -0.5355
  192SLPC   C2422230   4.329   1.658   7.168  0.6891  0.3798 -0.1160
  192SLPC   H4R22231   4.372   1.599   7.084  1.8061  0.0468  0.6831
  192SLPC   H4S22232   4.241   1.602   7.207  1.9293 -0.3945  1.6903
  192SLPC   C2522233   4.428   1.657   7.285 -0.6707  0.4408 -0.3555
  192SLPC   H5R22234   4.503   1.738   7.276 -2.0856  1.6113 -2.1135
  192SLPC   H5S22235   4.477   1.560   7.266  0.6153  1.0490 -0.1983
  192SLPC   C2622236   4.356   1.674   7.423 -0.6616  0.5816  0.3544
  192SLPC   H6R22237   4.299   1.580   7.442  2.2494 -1.5296 -0.9511
  192SLPC   H6S22238   4.285   1.759   7.419  0.2129  1.2438 -1.2285
  192SLPC   C2722239   4.463   1.692   7.540 -0.0181  0.0568  0.0587
  192SLPC   H7R22240   4.424   1.746   7.629  1.3602  0.9715  0.1191
  192SLPC   H7S22241   4.541   1.762   7.504 -0.0126  0.6519  1.1958
  192SLPC   C2822242   4.545   1.567   7.575 -0.3396 -0.7685  0.1996
  192SLPC   H8R22243   4.622   1.604   7.646  0.1533 -0.7951 -0.3164
  192SLPC   H8S22244   4.584   1.509   7.488 -1.8155 -2.4297  0.6269
  192SLPC   C2922245   4.455   1.463   7.638  0.2224  0.0804 -0.1063
  192SLPC   H9R22246   4.387   1.402   7.577  0.3647  0.1708 -0.3532
  192SLPC  C21022247   4.440   1.462   7.771  0.2650  0.2506  0.1647
  192SLPC  H10R22248   4.358   1.398   7.806  1.0155 -0.5513  0.4693
  192SLPC  C21122249   4.508   1.550   7.871  0.7498  0.2015  0.8992
  192SLPC  H11R22250   4.516   1.653   7.832 -0.2192 -0.4152 -1.0089
  192SLPC  H11S22251   4.615   1.521   7.883  0.3163 -2.3540 -0.8571
  192SLPC  C21222252   4.451   1.539   8.005 -0.3529  0.1659  0.2815
  192SLPC  H12R22253   4.496   1.458   8.065  0.6316 -0.7911 -1.7003
  192SLPC  C21322254   4.364   1.625   8.058 -0.2998 -0.1090  1.0015
  192SLPC  H13R22255   4.317   1.601   8.154 -1.3394  1.1587  0.8174
  192SLPC  C21422256   4.297   1.743   7.992  0.1213 -0.2494  1.0583
  192SLPC  H14R22257   4.188   1.730   8.007 -0.4216  2.0644 -0.6567
  192SLPC  H14S22258   4.310   1.733   7.882 -1.7926  0.7771  0.7213
  192SLPC  C21522259   4.338   1.874   8.051 -0.1340 -0.3742  0.4658
  192SLPC  H15R22260   4.314   1.950   7.974  1.2333 -0.7871 -0.3900
  192SLPC  H15S22261   4.447   1.889   8.068 -0.2050  3.1149 -1.5632
  192SLPC  C21622262   4.269   1.897   8.182  1.0835 -0.4039 -0.7071
  192SLPC  H16R22263   4.312   1.827   8.257 -1.0323 -0.2318  0.7115
  192SLPC  H16S22264   4.160   1.873   8.183  0.8234  0.7425  1.0845
  192SLPC  C21722265   4.275   2.042   8.227 -0.1704 -0.5814 -0.5194
  192SLPC  H17R22266   4.269   2.105   8.135 -1.5870  0.9165  0.5794
  192SLPC  H17S22267   4.177   2.067   8.272  0.0832 -1.3700  0.4797
  192SLPC  C21822268   4.387   2.083   8.319 -0.4743 -0.0367 -0.2626
  192SLPC  H18R22269   4.469   2.138   8.268  0.1119 -0.6710 -0.0041
  192SLPC  H18S22270   4.422   1.990   8.369 -0.2825  1.1301  1.8369
  192SLPC  H18T22271   4.354   2.141   8.408  1.8853  1.0944 -0.0934
  192SLPC   C3322272   4.783   1.751   7.041  0.7518 -0.2398  0.4074
  192SLPC   H3X22273   4.682   1.735   7.085 -0.1640  1.9264 -0.8790
  192SLPC   H3Y22274   4.782   1.834   6.968 -1.1404 -1.0003 -0.4658
  192SLPC   C3422275   4.872   1.790   7.156 -0.2912  0.4556 -0.4153
  192SLPC   H4X22276   4.978   1.811   7.130  0.2729 -1.2301  0.4665
  192SLPC   H4Y22277   4.870   1.721   7.243 -2.0586  1.2746  0.2299
  192SLPC   C3522278   4.819   1.917   7.216 -0.0504  0.5160  0.1365
  192SLPC   H5X22279   4.709   1.905   7.224 -0.3710  1.8042 -2.1547
  192SLPC   H5Y22280   4.831   1.995   7.138  1.2082  1.1930  0.9968
  192SLPC   C3622281   4.875   1.943   7.358  0.4200  0.6253 -0.3443
  192SLPC   H6X22282   4.857   2.049   7.385 -0.2811  1.0610 -2.4301
  192SLPC   H6Y22283   4.986   1.940   7.352  0.3757  1.7824 -2.0381
  192SLPC   C3722284   4.826   1.863   7.473  0.1592  0.6261  0.1800
  192SLPC   H7X22285   4.845   1.755   7.455 -0.6660  0.3563  0.9128
  192SLPC   H7Y22286   4.715   1.871   7.460  0.1464 -1.4584 -1.3217
  192SLPC   C3822287   4.864   1.908   7.612  0.2901 -0.2764  0.2138
  192SLPC   H8X22288   4.851   2.018   7.623  1.8282  0.0225 -0.7144
  192SLPC   H8Y22289   4.973   1.887   7.621  0.3126  0.3020  1.3040
  192SLPC   C3922290   4.791   1.838   7.724 -0.4634 -0.9619 -0.0759
  192SLPC   H9X22291   4.792   1.727   7.727 -1.3387 -1.0175 -1.3443
  192SLPC   H9Y22292   4.681   1.849   7.710 -0.6703 -1.7394  0.8091
  192SLPC  C31022293   4.829   1.873   7.868  0.1224 -0.4139 -0.3469
  192SLPC  H10X22294   4.818   1.983   7.876 -1.1808 -0.5710  0.1987
  192SLPC  H10Y22295   4.936   1.853   7.894 -0.0639  0.2518  1.0052
  192SLPC  C31122296   4.753   1.805   7.984  0.0792  1.0969  0.0526
  192SLPC  H11X22297   4.752   1.695   7.972  2.5411  1.0462  0.0717
  192SLPC  H11Y22298   4.647   1.836   7.975 -0.3187 -0.2125  0.2379
  192SLPC  C31222299   4.807   1.825   8.127  0.0038 -0.1366  0.0843
  192SLPC  H12X22300   4.789   1.929   8.161 -2.4796 -0.2740 -0.6940
  192SLPC  H12Y22301   4.915   1.804   8.119  0.1082  0.9949 -1.9174
  192SLPC  C31322302   4.739   1.721   8.223 -0.0993  0.2465  0.4268
  192SLPC  H13X22303   4.737   1.625   8.168  2.7020 -0.0426  0.7629
  192SLPC  H13Y22304   4.641   1.769   8.241 -0.2138 -0.1070  0.7463
  192SLPC  C31422305   4.824   1.700   8.350 -0.1948  0.3429  0.0511
  192SLPC  H14X22306   4.934   1.711   8.341  0.2791 -2.6309  1.7155
  192SLPC  H14Y22307   4.803   1.597   8.386  0.1130 -0.1262 -1.0817
  192SLPC  C31522308   4.772   1.791   8.463 -0.0630  0.4807  0.5841
  192SLPC  H15X22309   4.661   1.791   8.460 -0.0755 -0.6512  0.7265
  192SLPC  H15Y22310   4.799   1.896   8.443  2.2264 -0.2792 -0.5084
  192SLPC  C31622311   4.824   1.741   8.598  0.7424 -0.0039 -0.6813
  192SLPC  H16X22312   4.935   1.745   8.604  0.5555  3.5180  1.6708
  192SLPC  H16Y22313   4.774   1.642   8.607 -0.8391  0.7775 -0.7669
  192SLPC  C31722314   4.782   1.833   8.716  0.4450  0.1346 -0.3147
  192SLPC  H17X22315   4.679   1.873   8.706  0.6223  0.6738 -0.0521
  192SLPC  H17Y22316   4.844   1.926   8.710  0.0249  0.4312 -0.0905
  192SLPC  C31822317   4.800   1.756   8.843 -0.2518  0.0971 -0.2285
  192SLPC  H18X22318   4.763   1.810   8.933 -1.5182 -0.5253 -0.3640
  192SLPC  H18Y22319   4.905   1.722   8.857  0.0119  0.7898 -0.4881
  192SLPC  H18Z22320   4.742   1.662   8.834 -1.6229  0.6339  2.3418
  193SOD    SOD22321   1.055   6.428   4.839 -0.0405 -0.3402  0.2812
  194SOD    SOD22322   3.575   6.607  10.798 -0.3485  0.0673 -0.1387
  195SOD    SOD22323   1.616   1.953   4.031  0.3411  0.0049  0.5001
  196SOD    SOD22324   1.624   6.012   6.068 -0.3616  0.4946  0.3252
  197SOD    SOD22325   4.412   2.261  13.107 -0.2935  0.1257  0.1445
  198SOD    SOD22326   3.529   2.724  11.597 -0.1106 -0.2532  0.8155
  199SOD    SOD22327   4.675   2.229  17.208  0.2145  0.2063  0.5146
  200SOD    SOD22328   6.126   2.615   0.254 -0.2016  0.5596 -0.1353
  201SOD    SOD22329   5.219   3.030   4.468 -0.2050 -0.1025 -0.0741
  202SOD    SOD22330   1.401   1.670  12.343 -0.1392 -0.1899 -0.3391
  203SOD    SOD22331   0.644   5.561   2.896 -0.3216  0.2404  0.8380
  204SOD    SOD22332   0.502   0.318  14.416  0.1485 -0.2661  0.1320
  205SOD    SOD22333   4.292   2.416   5.228  0.2646  0.6609 -0.0585
  206SOD    SOD22334   5.961   4.244  11.256 -0.0886  0.3786  0.2784
  207SOD    SOD22335   5.938   0.914   5.947 -0.6487 -0.3960 -0.1107
  208SOD    SOD22336   2.947   2.350   5.987 -0.5205  0.0338  0.1247
  209SOD    SOD22337   4.064   3.828  16.633 -0.8292  0.0822 -0.2817
  210SOD    SOD22338   4.629   4.693   2.591  0.4964  0.2487 -0.1419
  211SOD    SOD22339   3.130   2.765  14.316  0.1702  0.4035 -0.2623
  212SOD    SOD22340   4.078   6.144   0.348 -0.0271  0.4548  0.0007
  213SOD    SOD22341   3.302   4.806  14.777  0.1329 -0.0583 -0.0463
  214SOD    SOD22342   6.470   5.596   6.251  0.2951  0.1490  0.1947
  215SOD    SOD22343   6.655   5.990  14.520  0.4186 -0.2447  0.0912
  216SOD    SOD22344   6.734   3.660  11.826 -0.0706  0.1683 -0.1895
  217SOD    SOD22345   0.437   2.851   3.514  0.0671  0.4866  0.3164
  218SOD    SOD22346   6.498   6.791   1.310  0.2053 -0.6084  0.2362
  219SOD    SOD22347   2.823   0.089   0.660  0.2814 -0.1247  0.2699
  220SOD    SOD22348   5.106   2.400  11.124 -0.0210 -0.0055 -0.1956
  221SOD    SOD22349   2.251   4.068  10.720  0.0650 -0.1566 -0.2892
  222SOD    SOD22350   5.712   2.060  10.843  0.0131  0.0691  0.0554
  223SOD    SOD22351   1.668   2.342   0.846  0.1122 -0.2692 -0.0083
  224SOD    SOD22352   4.501   6.219  12.079  0.4647 -0.6193 -0.5800
  225SOD    SOD22353   0.859   2.267   0.878  0.2478  0.0561 -0.1424
  226SOD    SOD22354   0.078   1.082   0.937  0.0389 -0.2512 -0.1212
  227SOD    SOD22355   2.123   5.193  10.637  0.0316  0.0544 -0.0223
  228SOD    SOD22356   0.783   3.912  15.689  0.3046  0.3430 -0.0877
  229SOD    SOD22357   6.159   0.443  12.509  0.3976  0.4443  0.1976
  230SOD    SOD22358   5.265   1.037   1.001 -0.2044 -0.2837 -0.0018
  231SOD    SOD22359   2.474   5.701   1.722  0.0883  0.2424 -0.3606
  232SOD    SOD22360   3.362   1.375   4.609  0.2002  0.1339  0.1383
  233SOD    SOD22361   4.599   4.396  16.851  0.1987  0.1137  0.1152
  234SOD    SOD22362   0.993   3.435  12.148  0.0856  0.3873 -0.4250
  235SOD    SOD22363   4.983   5.529  13.011  0.0634 -0.3649 -0.3334
  236SOD    SOD22364   2.080   0.651   1.391  0.1168 -0.1323  0.3366
  237SOD    SOD22365   5.150   6.678  10.664 -0.0956 -0.0392 -0.3047
  238SOD    SOD22366   2.621   1.917   1.661 -0.2150 -0.0216  0.3522
  239SOD    SOD22367   1.251   5.705  14.689  0.0664  0.5524  0.0840
  240SOD    SOD22368   1.304   0.754   0.699 -0.5195 -0.2312  0.1879
  241SOD    SOD22369   0.735   1.302   5.744  0.2153 -0.2817 -0.0684
  242SOD    SOD22370   4.144   0.996   2.391 -0.0885  0.0824  0.5009
  243SOD    SOD22371   5.742   3.190   2.040  0.1801  0.2547  0.3424
  244SOD    SOD22372   2.818   2.519  16.779 -0.3807  0.2028 -0.1242
  245SOD    SOD22373   0.925   5.700  11.518 -0.4494  0.2501 -0.0992
  246SOD    SOD22374   4.735   3.326  14.179 -0.1263  0.0032 -0.1578
  247SOD    SOD22375   5.458   4.268  13.189 -0.9568 -0.2090 -0.2437
  248SOD    SOD22376   6.485   6.620  11.247  0.0064  0.0067  0.2094
  249SOD    SOD22377   2.973   5.089   5.231 -0.1140 -0.0880  0.1579
  250SOD    SOD22378   3.222   5.351   6.198 -0.1629  0.0413 -0.1449
  251SOD    SOD22379   1.534   4.716   4.855  0.3235 -0.8064 -0.5943
  252SOD    SOD22380   2.898   0.821  16.060  0.0238 -0.1617 -0.2614
  253SOD    SOD22381   2.269   1.134   4.514  0.0276  0.3834 -0.2504
  254SOD    SOD22382   0.241   1.292  15.807  0.4298 -0.1093 -0.0581
  255SOD    SOD22383   0.768   4.235   3.578 -0.0084  0.2865 -0.4088
  256SOD    SOD22384   6.435   2.700  14.642 -0.5871 -0.3597 -0.4780
  257SOD    SOD22385   6.125   1.116   3.964 -0.5238 -0.2701 -0.6726
  258SOD    SOD22386   4.577   1.563   3.168  0.2636  0.1602 -0.1538
  259SOD    SOD22387   1.749   3.416  11.727 -0.5103  0.0818  0.1307
  260SOD    SOD22388   2.898   3.421   5.641 -0.1863 -0.3802 -0.6870
  261SOD    SOD22389   3.613   2.333  10.856  0.1766 -0.2104 -0.1680
  262SOD    SOD22390   1.087   5.499   5.542  0.3724  0.3286 -0.0602
  263SOD    SOD22391   5.260   0.271   4.293 -0.0489 -0.2777  0.1554
  264SOD    SOD22392   3.861   1.798   4.803  0.1004  0.1219 -0.1197
  265SOD    SOD22393   3.011   4.321   3.948 -0.1168  0.2097  0.1822
  266CLA    CLA22394   1.407   1.338   5.300 -0.0386 -0.2457 -0.1964
  267CLA    CLA22395   6.350   1.167  15.302  0.1084  0.0753 -0.3189
  268CLA    CLA22396   5.854   2.780  16.872  0.0195  0.2363  0.2266
  269CLA    CLA22397   2.095   3.910  11.437  0.0476 -0.1191  0.4784
  270CLA    CLA22398   3.641   6.795   1.148 -0.1739 -0.2113 -0.5919
  271CLA    CLA22399   3.340   4.709  11.772  0.0080  0.0346  0.3249
  272CLA    CLA22400   5.042   2.364   2.866  0.5719  0.0115  0.0231
  273CLA    CLA22401   4.322   3.382  15.285 -0.3838  0.0717  0.5874
  274CLA    CLA22402   0.612   4.481  16.769  0.0771  0.2619 -0.1190
  275CLA    CLA22403   3.744   0.043  16.334  0.1073 -0.0176 -0.3840
  276CLA    CLA22404   2.714   1.272   4.525 -0.1776  0.1287  0.2044
  277CLA    CLA22405   0.756   2.892   2.841 -0.1664 -0.1395 -0.2382
  278CLA    CLA22406   2.629   6.637  14.764 -0.1485 -0.3585 -0.3199
  279CLA    CLA22407   6.163   1.835   4.284 -0.0378  0.2663  0.0271
  280CLA    CLA22408   1.688   3.857  12.290 -0.0321  0.1940  0.0230
  281CLA    CLA22409   6.229   2.370   1.715 -0.6531 -0.6094  0.1523
  282CLA    CLA22410   0.956   5.707  14.216 -0.2354 -0.6475 -0.3085
  283CLA    CLA22411   1.489   6.576   0.333 -0.5211 -0.0555 -0.0493
  284CLA    CLA22412   5.954   5.813   0.098  0.5731  0.1341  0.1643
  285CLA    CLA22413   1.609   4.936   4.751 -0.0340 -0.6451 -0.3684
  286CLA    CLA22414   5.143   3.214   0.181 -0.1152  0.0281  0.0817
  287CLA    CLA22415   3.790   2.612   0.292 -0.2724 -0.0965 -0.1830
  288CLA    CLA22416   2.863   1.675   0.247  0.3586 -0.1243 -0.1518
  289CLA    CLA22417   3.492   3.247  11.659 -0.1063 -0.1159 -0.2863
  290CLA    CLA22418   3.620   4.687   2.732  0.3695  0.0766 -0.0556
  291CLA    CLA22419   0.113   4.121  12.695  0.2020 -0.0485  0.5845
  292CLA    CLA22420   5.354   1.042  12.040  0.4168  0.0368  0.0926
  293CLA    CLA22421   5.562   4.875   3.387  0.4373  0.0242 -0.0467
  294CLA    CLA22422   4.314   0.478   1.280  0.0076  0.0152  0.1552
  295CLA    CLA22423   5.789   2.364  11.764 -0.0117  0.2671 -0.2280
  296CLA    CLA22424   5.499   6.183  16.143 -0.0953  0.4529  0.3033
  297CLA    CLA22425   2.012   6.808  13.795  0.0683 -0.2691 -0.4458
  298CLA    CLA22426   0.860   0.045   1.079 -0.0664  0.1133 -0.1451
  299CLA    CLA22427   0.579   3.156  16.297  0.7499 -0.3212 -0.1953
  300CLA    CLA22428   1.903   5.333   1.037 -0.2857 -0.1982 -0.1139
  301CLA    CLA22429   5.949   0.183   2.373  0.1458  0.1183 -0.0551
  302CLA    CLA22430   2.493   4.720   0.396  0.2296 -0.0200 -0.3074
  303CLA    CLA22431   6.615   3.907   0.349  0.0863  0.6611 -0.2622
  304CLA    CLA22432   6.222   0.722   5.076 -0.5364 -0.1071  0.1630
  305CLA    CLA22433   1.580   6.111  14.260 -0.4338 -0.2516  0.2877
  306CLA    CLA22434   2.552   4.633   5.230  0.1750 -0.0356  0.1145
  307CLA    CLA22435   4.738   2.980   0.739  0.2697  0.1263  0.3471
  308CLA    CLA22436   5.398   6.666   5.346 -0.2544  0.0794 -0.2537
  309CLA    CLA22437   5.838   6.686  11.824 -0.0354 -0.3347  0.0843
  310CLA    CLA22438   3.028   3.568  13.973 -0.4206 -0.3337  0.1275
  311CLA    CLA22439   6.481   3.833  11.923 -0.3352  0.2564 -0.2346
  312CLA    CLA22440   0.646   0.496   2.383  0.1134  0.1710  0.0967
  313CLA    CLA22441   3.345   1.708   1.848  0.1248 -0.0149 -0.0246
  314CLA    CLA22442   5.362   1.098  17.275 -0.2342  0.1084  0.1443
  315CLA    CLA22443   2.373   3.758   5.541 -0.0554  0.2292 -0.1961
  316CLA    CLA22444   0.800   2.382   4.036  0.2561 -0.3329  0.2207
  317CLA    CLA22445   4.430   2.154  14.496 -0.0795  0.4387  0.2608
  318CLA    CLA22446   6.483   1.675   0.555 -0.4029 -0.1826  0.0717
  319TIP3   OH222447   6.176   4.239  11.333  0.3768  0.1867  0.9133
  319TIP3    H122448   6.229   4.183  11.389  1.0810  1.1989  1.2748
  319TIP3    H222449   6.239   4.296  11.289 -0.2746  0.2353  0.0303
  320TIP3   OH222450   4.099   5.845   3.055  0.1395 -0.1430  0.0040
  320TIP3    H122451   4.110   5.751   3.068  0.6948 -0.0809 -0.0102
  320TIP3    H222452   4.145   5.864   2.973  0.3035  0.1942  0.1704
  321TIP3   OH222453   0.609   3.751  13.134  0.1595  0.1829 -0.1030
  321TIP3    H122454   0.519   3.763  13.164 -0.0632  1.1401 -1.1421
  321TIP3    H222455   0.662   3.803  13.194 -0.0287  0.0568  0.1740
  322TIP3   OH222456   5.768   1.920   6.689  0.7733  0.0253  0.6314
  322TIP3    H122457   5.704   1.991   6.696  1.8333  0.8832  1.8769
  322TIP3    H222458   5.849   1.957   6.723  1.4229 -1.6831  1.0008
  323TIP3   OH222459   5.017   2.841   1.688  1.0298 -0.5520  0.3238
  323TIP3    H122460   5.075   2.795   1.626 -0.5216  0.1996 -1.7271
  323TIP3    H222461   4.950   2.776   1.709  1.4516 -0.7434  1.0798
  324TIP3   OH222462   6.506   0.193   2.152  0.3054  0.0311 -0.2481
  324TIP3    H122463   6.414   0.174   2.172  0.0107  1.1666 -0.4491
  324TIP3    H222464   6.554   0.170   2.231 -0.1018 -0.9413 -0.2783
  325TIP3   OH222465   1.041   2.844   4.734  0.3819  0.0949  0.0951
  325TIP3    H122466   1.055   2.884   4.648  3.3741  0.6417  0.7812
  325TIP3    H222467   1.117   2.787   4.747 -0.9840 -1.4470  1.5870
  326TIP3   OH222468   0.617   2.759  13.412 -0.2165  0.3678 -0.4228
  326TIP3    H122469   0.638   2.666  13.398 -2.4774 -0.2363 -0.0644
  326TIP3    H222470   0.696   2.806  13.385  0.7981 -1.6304 -1.0538
  327TIP3   OH222471   2.643   1.328   0.443  0.4417 -0.2288  0.4852
  327TIP3    H122472   2.556   1.292   0.454 -0.1892  0.6447 -1.4881
  327TIP3    H222473   2.640   1.412   0.489  0.1692 -0.0747  0.1813
  328TIP3   OH222474   0.559   0.421  16.034  0.2364  0.1868 -0.6337
  328TIP3    H122475   0.505   0.421  16.113 -0.0101  1.3522 -0.7827
  328TIP3    H222476   0.517   0.359  15.975  0.6179 -0.9517  0.2704
  329TIP3   OH222477   0.634   5.313  15.107 -0.8481  0.4453 -0.2476
  329TIP3    H122478   0.602   5.318  15.197 -0.8055  0.6361 -0.2419
  329TIP3    H222479   0.581   5.377  15.059 -1.1814  0.0134 -0.4552
  330TIP3   OH222480   5.818   5.288  17.279 -0.5645 -0.6688 -0.2286
  330TIP3    H122481   5.753   5.249  17.338  0.1469 -0.5836  0.6292
  330TIP3    H222482   5.828   5.225  17.208  2.1389 -3.0756  2.1996
  331TIP3   OH222483   2.456   0.130  12.593  0.6520 -0.4430 -0.0068
  331TIP3    H122484   2.411   0.051  12.565  2.1143 -1.9146  1.6622
  331TIP3    H222485   2.430   0.141  12.685  2.7304 -0.6510  0.6323
  332TIP3   OH222486   3.078   1.423   4.006 -0.7688 -0.2753 -0.1010
  332TIP3    H122487   3.013   1.471   4.057 -1.5520 -2.2139  0.7497
  332TIP3    H222488   3.159   1.434   4.055 -0.8671  0.4365 -0.0884
  333TIP3   OH222489   4.466   2.892  15.439 -0.5290 -0.3880 -0.7464
  333TIP3    H122490   4.433   2.823  15.382 -4.1062  0.0495  0.6478
  333TIP3    H222491   4.442   2.973  15.394 -0.4670 -0.0382 -0.1509
  334TIP3   OH222492   6.419   2.855  15.939 -0.3563 -0.0698 -0.2557
  334TIP3    H122493   6.501   2.861  15.891 -0.0179 -0.4104  0.2869
  334TIP3    H222494   6.372   2.783  15.896 -1.1966  1.3561 -1.8105
  335TIP3   OH222495   0.188   4.079   4.242 -0.3157 -0.0222 -0.2185
  335TIP3    H122496   0.095   4.069   4.263  0.3674 -2.3298  1.9634
  335TIP3    H222497   0.219   4.142   4.307 -0.2588  0.4468 -0.6975
  336TIP3   OH222498   2.658   3.813   5.154  0.6887 -0.0670  0.1498
  336TIP3    H122499   2.631   3.832   5.064 -0.6367  0.7011  0.6931
  336TIP3    H222500   2.728   3.875   5.172  0.9071 -0.1718 -0.3242
  337TIP3   OH222501   2.372   0.132   4.384  0.1521  0.1263  0.1182
  337TIP3    H122502   2.364   0.126   4.479 -0.0399  1.0666  0.1680
  337TIP3    H222503   2.323   0.057   4.350  1.9364 -1.3844  0.8185
  338TIP3   OH222504   5.778   1.553  16.617  0.1296  0.1117  0.2055
  338TIP3    H122505   5.724   1.550  16.696  0.0607  1.3044  0.2136
  338TIP3    H222506   5.860   1.592  16.646 -0.4094  1.9087 -0.5824
  339TIP3   OH222507   4.720   4.368   1.141 -0.1898 -0.1208  0.2189
  339TIP3    H122508   4.678   4.404   1.063 -0.8398 -1.0052  0.1509
  339TIP3    H222509   4.793   4.428   1.160 -1.5738  1.5143  0.4381
  340TIP3   OH222510   3.903   1.881  14.246  0.0720 -0.2359  0.5818
  340TIP3    H122511   3.993   1.900  14.220  0.0078 -2.3455 -1.3832
  340TIP3    H222512   3.909   1.858  14.339  1.2571  1.4706  0.9415
  341TIP3   OH222513   5.986   3.769   1.571  0.5828 -0.1376  0.5794
  341TIP3    H122514   6.046   3.732   1.506 -1.5869 -2.7571 -0.0288
  341TIP3    H222515   6.030   3.757   1.655  2.7364  1.8713 -0.2192
  342TIP3   OH222516   4.896   1.287   4.887 -0.4195  0.4132  0.3326
  342TIP3    H122517   4.856   1.201   4.870 -0.1206  0.2102  0.6446
  342TIP3    H222518   4.972   1.290   4.829 -0.2521  0.3388  0.5475
  343TIP3   OH222519   0.531   4.238   1.041 -0.2993  0.0498 -0.9454
  343TIP3    H122520   0.490   4.258   1.125 -0.6492  0.5265 -1.2239
  343TIP3    H222521   0.483   4.292   0.978 -0.5942 -0.9432 -1.5733
  344TIP3   OH222522   4.884   3.515   1.527 -0.0962  0.0594 -0.4379
  344TIP3    H122523   4.947   3.562   1.582 -2.0937  0.1219  1.8549
  344TIP3    H222524   4.810   3.498   1.584 -1.0439 -2.4719 -2.3418
  345TIP3   OH222525   4.802   2.105  13.855  0.3878  0.1457  0.0698
  345TIP3    H122526   4.833   2.056  13.779  1.7680  0.1483  0.6005
  345TIP3    H222527   4.871   2.093  13.921 -1.3232 -0.8135  1.7384
  346TIP3   OH222528   0.510   6.800   5.947 -0.0897  0.1445  0.3903
  346TIP3    H122529   0.553   6.806   6.032  2.0302 -1.4244 -0.5204
  346TIP3    H222530   0.423   6.837   5.961  0.4188  0.4000  3.0949
  347TIP3   OH222531   6.785   0.116  14.717  0.3137 -0.0618 -0.2380
  347TIP3    H122532   6.859   0.170  14.746  0.4840  0.0342 -0.8291
  347TIP3    H222533   6.708   0.170  14.732  0.6288  1.1095 -2.5263
  348TIP3   OH222534   6.588   6.677  16.658 -0.6314  0.1245 -0.2060
  348TIP3    H122535   6.599   6.661  16.565  0.1531 -1.6794  0.1666
  348TIP3    H222536   6.617   6.767  16.671  1.5207 -0.3625 -1.3669
  349TIP3   OH222537   3.501   4.218   4.082  0.0573 -0.4606  0.1266
  349TIP3    H122538   3.502   4.123   4.074  0.4617 -0.5641  1.2777
  349TIP3    H222539   3.577   4.247   4.032 -0.2418 -0.7213 -0.4772
  350TIP3   OH222540   4.931   1.294   5.520 -0.0451 -0.4782  0.5425
  350TIP3    H122541   4.853   1.342   5.492  0.1872  0.1576  0.9748
  350TIP3    H222542   5.004   1.349   5.494  0.2907 -1.3459 -0.3761
  351TIP3   OH222543   0.230   6.028   1.161  0.6146  0.1452 -0.0611
  351TIP3    H122544   0.322   6.040   1.140  1.0093  1.0516  2.0653
  351TIP3    H222545   0.230   5.977   1.242 -0.7329  0.5883  0.2291
  352TIP3   OH222546   6.501   6.273  12.422 -0.7254 -0.0562  0.4277
  352TIP3    H122547   6.415   6.313  12.407 -0.4054  0.0184 -1.2702
  352TIP3    H222548   6.564   6.342  12.400 -0.1854 -1.1796 -1.5964
  353TIP3   OH222549   2.869   5.708   0.624 -0.4937  0.2313 -0.0493
  353TIP3    H122550   2.831   5.642   0.565 -2.6481  0.8433  0.6097
  353TIP3    H222551   2.806   5.715   0.695  0.1222  2.4221  0.2978
  354TIP3   OH222552   2.555   0.288   3.669 -0.5250  0.8760  0.7956
  354TIP3    H122553   2.635   0.237   3.678  0.3125  2.2448  1.4155
  354TIP3    H222554   2.545   0.302   3.575  0.4460  1.4049  0.7619
  355TIP3   OH222555   5.454   5.800  16.080  0.0709 -0.0765 -0.6347
  355TIP3    H122556   5.527   5.741  16.097 -1.2228 -1.7886 -0.8571
  355TIP3    H222557   5.484   5.885  16.112  1.8715 -0.8935 -0.0697
  356TIP3   OH222558   1.023   5.662   2.255  0.4681  0.2028  0.1148
  356TIP3    H122559   0.956   5.705   2.308  1.9356  0.4901  1.7957
  356TIP3    H222560   0.978   5.590   2.212 -0.6811 -0.3324  2.1445
  357TIP3   OH222561   1.132   4.960   4.909 -0.2184 -0.1562  0.0092
  357TIP3    H122562   1.211   4.988   4.956 -0.8386 -0.6975  1.3830
  357TIP3    H222563   1.161   4.952   4.818  1.7753 -1.9560  0.7400
  358TIP3   OH222564   3.879   6.192   0.449 -0.4275  0.5432  0.3952
  358TIP3    H122565   3.812   6.222   0.387 -0.0376 -0.1233 -0.3637
  358TIP3    H222566   3.830   6.171   0.529 -1.2046 -0.4404 -0.3167
  359TIP3   OH222567   1.112   5.040   0.702  0.0595 -0.5762 -0.2753
  359TIP3    H122568   1.081   5.129   0.717 -1.2519 -1.0030 -0.3872
  359TIP3    H222569   1.127   5.005   0.790 -0.3174 -0.5523 -0.2011
  360TIP3   OH222570   4.503   3.106   5.055 -0.5258  0.2369 -0.0815
  360TIP3    H122571   4.449   3.152   5.119 -2.1697 -0.2522 -1.1030
  360TIP3    H222572   4.589   3.148   5.062 -0.8949  0.7431  1.8443
  361TIP3   OH222573   3.472   0.735   2.379 -0.8337 -0.3954 -0.0463
  361TIP3    H122574   3.390   0.692   2.405 -0.3095 -2.2363 -1.3434
  361TIP3    H222575   3.495   0.693   2.296  1.3749  0.1860  0.2536
  362TIP3   OH222576   2.336   4.601  16.412  0.5971  0.2269 -0.0388
  362TIP3    H122577   2.405   4.562  16.466 -1.3308 -1.6364  1.1538
  362TIP3    H222578   2.375   4.610  16.325  2.3825 -0.6689  0.6467
  363TIP3   OH222579   0.631   3.324   4.640  0.6030 -0.6514  0.2196
  363TIP3    H122580   0.636   3.253   4.576  0.0168 -0.2121 -0.3258
  363TIP3    H222581   0.696   3.388   4.610 -0.4066  0.0308 -0.5451
  364TIP3   OH222582   1.488   4.376  16.934  0.9269  0.0165  0.0947
  364TIP3    H122583   1.484   4.404  16.842 -0.5215 -2.8269 -0.7666
  364TIP3    H222584   1.580   4.354  16.948  0.9244 -0.7536 -1.0631
  365TIP3   OH222585   3.609   4.948   4.250 -0.8043 -0.2200  0.6211
  365TIP3    H122586   3.557   5.013   4.298 -0.2308  0.7676 -0.0618
  365TIP3    H222587   3.554   4.924   4.175  0.4179  2.1837 -1.1069
  366TIP3   OH222588   2.696   1.352  14.582  0.2125 -0.3863  0.8071
  366TIP3    H122589   2.789   1.353  14.605  0.3794 -0.3317  0.1334
  366TIP3    H222590   2.694   1.341  14.487 -0.3811  2.5379  0.4244
  367TIP3   OH222591   2.655   2.897  13.597 -0.5034 -0.0198 -0.2375
  367TIP3    H122592   2.722   2.938  13.542  0.5345 -0.9118  0.3260
  367TIP3    H222593   2.665   2.940  13.682  0.8203 -1.6014  0.4559
  368TIP3   OH222594   5.464   5.392   5.266 -0.0995  0.6963 -0.8713
  368TIP3    H122595   5.471   5.387   5.362 -0.2864  1.7238 -0.7930
  368TIP3    H222596   5.555   5.385   5.236  0.0158  0.8987 -0.5810
  369TIP3   OH222597   0.715   5.035  12.546 -0.2401 -0.1526 -0.6813
  369TIP3    H122598   0.789   4.975  12.533  0.8883  1.1308 -0.3455
  369TIP3    H222599   0.675   5.044  12.460  3.5870  3.6963 -2.2440
  370TIP3   OH222600   5.700   6.429  12.212  0.3485  0.0554  0.2136
  370TIP3    H122601   5.782   6.379  12.210 -0.4010 -1.1656 -0.9107
  370TIP3    H222602   5.728   6.520  12.219  1.8796 -0.2285 -1.6133
  371TIP3   OH222603   6.176   2.561  14.240  0.3895 -0.0102 -0.3190
  371TIP3    H122604   6.144   2.542  14.329  0.7545  2.5725  0.4098
  371TIP3    H222605   6.240   2.491  14.223 -1.8653 -2.2884  0.2128
  372TIP3   OH222606   1.443   2.495  12.638  0.4026 -0.4748  0.5577
  372TIP3    H122607   1.525   2.456  12.668  0.9330  2.0853  2.6242
  372TIP3    H222608   1.405   2.534  12.716 -0.3000  2.7232 -1.2813
  373TIP3   OH222609   3.329   5.838  12.439 -0.1561  0.0378  0.1954
  373TIP3    H122610   3.286   5.774  12.382  0.2233  1.3075 -1.5850
  373TIP3    H222611   3.277   5.839  12.518 -1.2969 -1.0541 -0.5194
  374TIP3   OH222612   2.412   3.760   4.284 -0.3231 -0.4004 -0.2581
  374TIP3    H122613   2.495   3.805   4.264 -0.7096 -0.0167 -1.0139
  374TIP3    H222614   2.372   3.743   4.198 -1.2087 -0.2501  0.1198
  375TIP3   OH222615   3.216   4.230  10.994  0.2494 -0.0951 -0.5783
  375TIP3    H122616   3.264   4.290  10.936 -0.2319  0.2133 -0.6560
  375TIP3    H222617   3.160   4.180  10.935 -1.9790  1.8336 -0.1537
  376TIP3   OH222618   4.666   3.339   4.931  0.1722  0.1394  0.0446
  376TIP3    H122619   4.654   3.365   4.839 -1.7976 -1.1908 -0.0971
  376TIP3    H222620   4.591   3.377   4.977  1.8104  1.8843  1.3728
  377TIP3   OH222621   6.657   2.863  15.807 -0.0712  0.5719  0.1749
  377TIP3    H122622   6.675   2.933  15.744  1.2638  1.7499  1.8198
  377TIP3    H222623   6.691   2.784  15.766  2.3134  1.5897  0.0851
  378TIP3   OH222624   2.095   1.168  13.249  0.4932 -0.2175 -0.1805
  378TIP3    H122625   2.097   1.252  13.203  0.2388  1.1509  2.1873
  378TIP3    H222626   2.187   1.139  13.250  0.6691  0.3129 -0.5316
  379TIP3   OH222627   6.323   3.832  17.209  0.5684 -0.1703 -0.6801
  379TIP3    H122628   6.330   3.824  17.304  1.1240  1.0493 -0.6099
  379TIP3    H222629   6.411   3.861  17.181 -0.5319  2.9362 -1.1628
  380TIP3   OH222630   2.990   5.642   1.537  0.2090 -0.1816  0.1073
  380TIP3    H122631   3.028   5.660   1.624  0.7679  0.4863 -0.2635
  380TIP3    H222632   2.923   5.576   1.553 -0.7940  1.0907  1.3046
  381TIP3   OH222633   2.207   2.747  15.762 -0.0612  0.3328 -0.0431
  381TIP3    H122634   2.244   2.679  15.706 -0.6980  1.2228 -1.5706
  381TIP3    H222635   2.150   2.699  15.823 -1.0474 -0.4358 -1.5494
  382TIP3   OH222636   1.688   6.589  15.027  0.2268 -0.2733 -0.5435
  382TIP3    H122637   1.695   6.656  14.960  0.6197 -0.6987 -0.9295
  382TIP3    H222638   1.779   6.566  15.048  0.1896  1.3636  1.6556
  383TIP3   OH222639   0.597   5.258   4.928  0.0327 -0.0324 -0.4334
  383TIP3    H122640   0.673   5.312   4.945 -1.3990  2.8215 -2.7040
  383TIP3    H222641   0.532   5.286   4.993  0.3893 -1.4624  0.5767
  384TIP3   OH222642   0.767   6.136   4.604 -0.0011  0.1994 -0.3679
  384TIP3    H122643   0.718   6.166   4.527  1.0871  0.7131 -0.8659
  384TIP3    H222644   0.706   6.149   4.677 -1.0501 -0.3092 -1.1342
  385TIP3   OH222645   2.346   1.252   1.159  0.0855 -0.2906  0.1810
  385TIP3    H122646   2.410   1.271   1.091 -0.8650 -1.0977 -0.9534
  385TIP3    H222647   2.281   1.321   1.151  0.4712  0.1756  0.9341
  386TIP3   OH222648   3.871   5.229   6.100 -0.1431  0.1577 -0.8858
  386TIP3    H122649   3.780   5.212   6.124  0.0053 -0.0735 -0.4728
  386TIP3    H222650   3.899   5.298   6.161  0.1009 -0.1117 -0.6911
  387TIP3   OH222651   5.242   0.174  15.823 -0.3201  0.3072 -0.1007
  387TIP3    H122652   5.175   0.242  15.826 -1.2966 -0.6275 -0.2066
  387TIP3    H222653   5.237   0.131  15.908  0.0917  0.1743 -0.1411
  388TIP3   OH222654   3.143   2.688   0.852 -0.4338  1.0045  0.9143
  388TIP3    H122655   3.128   2.599   0.884  0.4663  0.3122 -0.5311
  388TIP3    H222656   3.082   2.742   0.902 -0.1789 -0.2527  2.6389
  389TIP3   OH222657   1.983   2.231  17.135  0.3416 -0.0577  0.7108
  389TIP3    H122658   1.894   2.264  17.126 -0.0625 -1.2686  0.1858
  389TIP3    H222659   2.036   2.309  17.151 -0.6180  0.8135 -0.3058
  390TIP3   OH222660   4.156   5.208  15.212  0.1289  0.0470 -0.1612
  390TIP3    H122661   4.207   5.142  15.165 -1.5066  1.0726 -3.5521
  390TIP3    H222662   4.068   5.170  15.217 -0.1449  0.7581  0.4045
  391TIP3   OH222663   5.473   5.786  15.139 -0.4296 -0.3143  0.0620
  391TIP3    H122664   5.466   5.849  15.067  2.0364  1.0383  0.9532
  391TIP3    H222665   5.411   5.819  15.205 -0.4654  0.1599 -0.2061
  392TIP3   OH222666   6.680   1.186  17.292 -0.8277 -0.0511  0.0872
  392TIP3    H122667   6.704   1.118  17.229 -0.8129  1.0769 -1.1539
  392TIP3    H222668   6.706   1.150  17.377  3.5307  0.2687 -0.9944
  393TIP3   OH222669   6.724   5.400   1.358 -0.4854 -0.3366 -0.5958
  393TIP3    H122670   6.792   5.349   1.402 -0.2944  0.2855 -0.1564
  393TIP3    H222671   6.762   5.426   1.275  0.2667  1.0161  0.1526
  394TIP3   OH222672   0.805   4.543   1.817  0.1150  0.1955  0.5526
  394TIP3    H122673   0.848   4.468   1.858  0.9424  0.3243 -0.0664
  394TIP3    H222674   0.850   4.619   1.854 -0.5983  0.3833  1.0414
  395TIP3   OH222675   5.411   5.561  13.982 -0.1402  0.1423 -0.2216
  395TIP3    H122676   5.467   5.616  14.037 -2.9735  1.7879  1.1751
  395TIP3    H222677   5.471   5.513  13.926  2.7438  0.4763  2.4424
  396TIP3   OH222678   6.378   4.707  15.260  0.7904  0.0452  0.0292
  396TIP3    H122679   6.353   4.757  15.182 -1.3926 -1.5795 -0.3793
  396TIP3    H222680   6.319   4.738  15.329  0.6025 -0.6993  0.2166
  397TIP3   OH222681   0.927   5.403   2.417 -0.0039  0.5984  0.1826
  397TIP3    H122682   0.934   5.497   2.433 -2.7336  1.0206 -0.7918
  397TIP3    H222683   0.840   5.380   2.450  0.9726 -1.7783  1.2124
  398TIP3   OH222684   2.732   6.036  15.884 -0.1343 -0.3769 -0.0704
  398TIP3    H122685   2.674   5.998  15.817 -0.2935 -0.4268  0.0958
  398TIP3    H222686   2.778   5.961  15.921  0.8399 -0.2232 -0.9588
  399TIP3   OH222687   0.638   2.941  14.909 -0.1753 -0.4395 -0.3581
  399TIP3    H122688   0.614   2.859  14.865 -1.3544 -0.7358  0.8089
  399TIP3    H222689   0.713   2.918  14.964  1.0124 -0.1730 -1.8381
  400TIP3   OH222690   2.791   5.530   4.651 -0.1886  0.3051  0.0359
  400TIP3    H122691   2.711   5.548   4.701  0.5528  0.1612  1.2908
  400TIP3    H222692   2.807   5.436   4.664  1.3176  0.7430  1.5024
  401TIP3   OH222693   2.508   1.740  17.284  0.3894  0.1423  0.7737
  401TIP3    H122694   2.573   1.709  17.221  0.1657 -0.3661  0.7982
  401TIP3    H222695   2.535   1.699  17.367 -1.7364 -2.5546  0.1948
  402TIP3   OH222696   0.117   6.689  15.908 -0.3028  0.9801 -0.1213
  402TIP3    H122697   0.123   6.609  15.856  0.7007  1.8651 -1.3921
  402TIP3    H222698   0.032   6.726  15.886 -1.0248 -0.0365  0.9229
  403TIP3   OH222699   0.972   1.940  14.342 -0.5571  0.2798 -0.2618
  403TIP3    H122700   1.026   1.926  14.420 -0.6209 -0.9407 -0.4397
  403TIP3    H222701   0.948   1.852  14.313 -1.5340  0.7708 -0.9603
  404TIP3   OH222702   2.887   2.667  14.997 -0.1906  0.0331  0.2082
  404TIP3    H122703   2.859   2.758  14.988  0.1615  0.1784  0.5664
  404TIP3    H222704   2.808   2.616  14.980 -0.8259  0.4570  1.7723
  405TIP3   OH222705   5.100   4.211  13.616 -0.0541  0.1344  0.1054
  405TIP3    H122706   5.092   4.122  13.582  1.7387  0.2229 -0.5893
  405TIP3    H222707   5.036   4.262  13.565 -1.3813 -0.8071  0.7901
  406TIP3   OH222708   1.831   6.118   1.856 -0.2895  0.1032  0.0517
  406TIP3    H122709   1.896   6.162   1.911  0.9863 -0.1467 -1.2324
  406TIP3    H222710   1.762   6.091   1.918  0.3831  1.1679  1.2894
  407TIP3   OH222711   1.260   4.930  11.375 -0.1032  0.1433 -0.3820
  407TIP3    H122712   1.241   4.920  11.282  0.1389 -2.7049 -0.1590
  407TIP3    H222713   1.174   4.933  11.417 -0.1826 -0.3892 -0.5129
  408TIP3   OH222714   0.493   0.415   5.831 -0.4388 -0.3312  0.4428
  408TIP3    H122715   0.475   0.403   5.924 -3.3256 -3.2614 -0.3847
  408TIP3    H222716   0.526   0.330   5.802 -0.5816  0.2159 -1.4104
  409TIP3   OH222717   2.327   0.025   5.650  0.1026 -0.2811 -0.1520
  409TIP3    H122718   2.375   0.056   5.727 -0.2985 -1.0873  0.4378
  409TIP3    H222719   2.236   0.019   5.680 -0.9174  3.8725 -2.0273
  410TIP3   OH222720   3.842   2.003   2.720 -0.0133 -0.2275 -0.6435
  410TIP3    H122721   3.900   2.078   2.733  0.2779 -0.4032 -0.9180
  410TIP3    H222722   3.876   1.959   2.642  1.5526 -2.2867  1.1587
  411TIP3   OH222723   4.849   2.995  12.385  0.5795 -0.0325  0.1933
  411TIP3    H122724   4.901   2.916  12.370  0.4180  0.0792 -1.0074
  411TIP3    H222725   4.780   2.992  12.318  1.6046  1.9994 -1.0025
  412TIP3   OH222726   6.295   0.562   2.376  0.4730 -0.2062 -0.1527
  412TIP3    H122727   6.202   0.582   2.381  0.2209 -0.5526 -2.8121
  412TIP3    H222728   6.329   0.581   2.464 -2.2914 -1.1572  1.1739
  413TIP3   OH222729   3.295   0.951   0.744 -0.7034 -0.0787  0.0400
  413TIP3    H122730   3.216   0.914   0.783 -0.4294 -1.4273 -0.6601
  413TIP3    H222731   3.348   0.875   0.720  1.8037  0.8183  2.5096
  414TIP3   OH222732   4.885   5.234   4.503 -0.2785  0.4111 -0.1751
  414TIP3    H122733   4.922   5.293   4.569  1.2856 -1.5652  0.8015
  414TIP3    H222734   4.790   5.242   4.514 -0.1119  2.8819 -0.2397
  415TIP3   OH222735   3.154   0.859  12.266  0.7048  0.3630  0.0760
  415TIP3    H122736   3.247   0.842  12.281  0.6597 -1.5590 -1.6404
  415TIP3    H222737   3.152   0.906  12.182  0.0018 -1.2951 -0.8479
  416TIP3   OH222738   0.301   0.172  10.756  0.4037  0.6859 -0.0501
  416TIP3    H122739   0.366   0.224  10.708 -0.1592  1.7331  0.2931
  416TIP3    H222740   0.224   0.170  10.699 -0.7017  2.9625  1.2513
  417TIP3   OH222741   1.675   4.560   4.373 -0.0535  0.1328 -0.6540
  417TIP3    H122742   1.584   4.553   4.401 -0.0878  0.6346 -0.6242
  417TIP3    H222743   1.682   4.649   4.338  0.8436  0.6848  0.8849
  418TIP3   OH222744   2.784   6.027   4.527 -0.1845 -0.0281  0.4214
  418TIP3    H122745   2.740   5.942   4.538 -1.1295  0.8454  4.0919
  418TIP3    H222746   2.819   6.048   4.614 -2.8719  4.8665  0.5215
  419TIP3   OH222747   2.167   3.089  11.871  0.2579 -0.3140  0.1711
  419TIP3    H122748   2.189   3.130  11.788  0.7206 -0.0734  0.4083
  419TIP3    H222749   2.208   3.145  11.937  0.7693 -1.0709  0.5050
  420TIP3   OH222750   5.156   1.104   0.260 -0.3720 -0.6014 -0.2809
  420TIP3    H122751   5.072   1.076   0.223 -0.7560 -1.1124  0.9402
  420TIP3    H222752   5.208   1.130   0.184 -1.1096 -1.6950 -1.1866
  421TIP3   OH222753   6.196   1.279   5.899 -0.4273 -0.7074  0.1792
  421TIP3    H122754   6.110   1.312   5.923 -0.2982  0.6689 -1.2324
  421TIP3    H222755   6.238   1.259   5.983 -1.1408  1.1179  0.9882
  422TIP3   OH222756   5.933   3.378  14.122  0.0455  0.0564  0.0355
  422TIP3    H122757   5.928   3.314  14.051  0.2033 -1.8525  1.6992
  422TIP3    H222758   6.026   3.401  14.127 -0.1281  1.0392 -1.0825
  423TIP3   OH222759   1.630   2.999  12.250 -0.0048  0.4102  0.0962
  423TIP3    H122760   1.716   3.025  12.218 -0.4455  0.6150 -0.9253
  423TIP3    H222761   1.573   3.073  12.231 -0.5967 -0.0671 -0.0134
  424TIP3   OH222762   4.163   1.846  15.380  0.2835  0.5376 -0.3511
  424TIP3    H122763   4.251   1.813  15.396 -0.3480 -0.8029  0.4529
  424TIP3    H222764   4.127   1.789  15.312  0.6099  2.1157 -1.8775
  425TIP3   OH222765   1.412   1.898   2.717  0.2169 -0.0043  0.3249
  425TIP3    H122766   1.404   1.967   2.783  0.0621  0.5404 -0.2704
  425TIP3    H222767   1.439   1.943   2.638  2.3237 -0.8985  0.4933
  426TIP3   OH222768   5.904   0.862   0.954 -0.5010 -0.2020 -0.2883
  426TIP3    H122769   5.978   0.805   0.936 -1.1261 -0.6807 -1.4229
  426TIP3    H222770   5.856   0.817   1.024  0.9607  0.7608  1.3710
  427TIP3   OH222771   6.440   1.368   3.289 -0.5475  0.0707  0.6671
  427TIP3    H122772   6.464   1.424   3.215 -3.2912 -2.2875 -2.1337
  427TIP3    H222773   6.520   1.319   3.308 -0.0488  0.0882 -1.2971
  428TIP3   OH222774   0.883   5.564  13.576  0.3293  0.1712 -0.3194
  428TIP3    H122775   0.936   5.548  13.498 -0.5283  1.0409 -1.0855
  428TIP3    H222776   0.942   5.544  13.649  1.2469 -0.2905 -1.1753
  429TIP3   OH222777   5.125   1.645  12.323  0.3816 -0.4446  0.5725
  429TIP3    H122778   5.085   1.674  12.241  1.1591  0.3181  0.4504
  429TIP3    H222779   5.063   1.583  12.360 -0.8694  0.6548  0.3504
  430TIP3   OH222780   1.559   1.920  15.389 -0.6220  0.3327  0.4200
  430TIP3    H122781   1.573   1.877  15.474 -0.1171  1.3062  0.8310
  430TIP3    H222782   1.635   1.894  15.337 -1.1938 -0.7010  0.0730
  431TIP3   OH222783   2.093   3.813  16.521 -0.4297  0.4256 -0.2544
  431TIP3    H122784   2.015   3.840  16.472 -0.8359  0.5033  0.4260
  431TIP3    H222785   2.079   3.846  16.609 -0.0608 -0.3861  0.1129
  432TIP3   OH222786   5.076   5.134  15.774 -0.1356  0.0873 -0.4192
  432TIP3    H122787   4.997   5.147  15.828  0.3202  0.2489  0.2145
  432TIP3    H222788   5.075   5.208  15.713  0.2155  0.8010  0.4362
  433TIP3   OH222789   1.499   3.411  11.368  0.3418 -0.3085  0.3652
  433TIP3    H122790   1.563   3.475  11.337  1.2647 -1.2194  0.3766
  433TIP3    H222791   1.495   3.346  11.298 -1.2681  0.2191 -0.0550
  434TIP3   OH222792   0.036   1.318   5.551  0.0016  0.1449  0.3360
  434TIP3    H122793  -0.021   1.395   5.548 -0.4237 -0.2146 -2.3801
  434TIP3    H222794   0.101   1.334   5.482 -0.5075 -2.2182 -0.7211
  435TIP3   OH222795   0.019   0.550   1.486 -0.2716 -0.3580  0.2171
  435TIP3    H122796  -0.025   0.511   1.561  0.4605 -0.6955  0.4742
  435TIP3    H222797   0.017   0.644   1.504  2.2263 -0.5840  1.9814
  436TIP3   OH222798   1.581   2.194   1.198  0.2008 -0.3591 -0.1079
  436TIP3    H122799   1.636   2.256   1.150  0.1572  0.2682  0.6470
  436TIP3    H222800   1.503   2.184   1.143  1.3508 -1.8107 -1.5439
  437TIP3   OH222801   6.147   3.978   4.253  0.7040 -0.3014 -0.6659
  437TIP3    H122802   6.107   4.010   4.334  1.6601 -0.0040 -0.3090
  437TIP3    H222803   6.090   3.907   4.225 -1.2682  1.4890 -1.2960
  438TIP3   OH222804   0.735   2.683  13.069 -0.4922 -0.1260  0.0480
  438TIP3    H122805   0.785   2.646  13.142  0.9091  0.0833 -0.7968
  438TIP3    H222806   0.669   2.617  13.049  1.7779 -2.0467 -1.2469
  439TIP3   OH222807   3.050   6.189   4.998 -0.2436  0.1603  0.0205
  439TIP3    H122808   3.098   6.271   5.006  0.9970 -0.4490 -1.1019
  439TIP3    H222809   3.088   6.132   5.064  0.4592 -0.2595 -0.7397
  440TIP3   OH222810   5.653   5.397   1.096 -0.1766  0.3000 -0.2384
  440TIP3    H122811   5.691   5.452   1.027  0.8310 -0.4482 -0.2937
  440TIP3    H222812   5.644   5.456   1.172 -2.1797  1.3802 -1.2598
  441TIP3   OH222813   0.806   0.629  14.346  0.0895  0.0514  0.2967
  441TIP3    H122814   0.848   0.706  14.383  0.8969  0.1357 -0.8006
  441TIP3    H222815   0.759   0.661  14.269  0.1924 -0.5019  0.0022
  442TIP3   OH222816   5.068   3.959  15.831  0.2967  0.2476 -0.2121
  442TIP3    H122817   5.054   3.946  15.737 -2.3570  0.1925  0.1596
  442TIP3    H222818   5.013   3.894  15.873 -1.1768  2.4637  1.4272
  443TIP3   OH222819   4.264   4.875   3.874 -0.2526 -0.0201  0.2709
  443TIP3    H122820   4.253   4.852   3.967 -0.0753 -1.4288 -0.0462
  443TIP3    H222821   4.337   4.936   3.873 -0.1719 -0.0935  1.0459
  444TIP3   OH222822   0.880   5.046  16.505  0.7186 -0.1626 -0.3393
  444TIP3    H122823   0.908   4.956  16.522 -2.9605 -1.1849  0.7377
  444TIP3    H222824   0.920   5.097  16.576  1.5434 -1.2229 -0.0289
  445TIP3   OH222825   4.723   3.443  14.956  0.0993  0.0168  0.1378
  445TIP3    H122826   4.774   3.363  14.945  0.5564  0.2255  0.7236
  445TIP3    H222827   4.687   3.437  15.044 -1.5436 -0.4960 -0.5543
  446TIP3   OH222828   5.792   0.148  13.971 -0.8145 -0.2181  0.3837
  446TIP3    H122829   5.766   0.111  13.886  0.5222 -0.4899  0.0748
  446TIP3    H222830   5.735   0.106  14.035 -1.6002 -0.2718 -0.3459
  447TIP3   OH222831   4.421   5.158  14.603 -0.8285  0.1328  0.2343
  447TIP3    H122832   4.357   5.195  14.663 -0.4285  1.8971 -0.3930
  447TIP3    H222833   4.494   5.133  14.658 -2.3724 -2.7190  1.0745
  448TIP3   OH222834   2.529   1.155   2.599  0.1787  0.0153 -0.1410
  448TIP3    H122835   2.598   1.215   2.627 -1.7556  0.5114  3.9241
  448TIP3    H222836   2.475   1.207   2.540  1.0879  0.8106 -0.2938
  449TIP3   OH222837   0.788   2.712  15.921 -0.3317  0.4113 -0.2566
  449TIP3    H122838   0.771   2.806  15.911  1.5873  0.8086  0.0114
  449TIP3    H222839   0.881   2.707  15.943 -0.3669 -1.5764 -0.4977
  450TIP3   OH222840   5.518   3.270   5.431 -0.1121  0.5874 -0.1181
  450TIP3    H122841   5.514   3.360   5.461  1.4663 -0.0170  2.0164
  450TIP3    H222842   5.490   3.218   5.506 -1.4758 -0.7027 -1.4728
  451TIP3   OH222843   2.651   2.647   4.691  0.6572  0.3937 -0.2886
  451TIP3    H122844   2.619   2.608   4.772  0.6256  0.4441 -0.2760
  451TIP3    H222845   2.625   2.739   4.697  2.4138  0.8621  0.5757
  452TIP3   OH222846   0.031   0.777   3.157  0.4265 -0.1575 -0.3537
  452TIP3    H122847  -0.010   0.707   3.208 -2.0804  1.1604 -0.5257
  452TIP3    H222848   0.116   0.789   3.199  0.5575 -2.6872  0.2215
  453TIP3   OH222849   3.840   4.258  12.744  0.1833  0.2382  0.3599
  453TIP3    H122850   3.862   4.279  12.835 -1.6597  2.8642  0.2578
  453TIP3    H222851   3.889   4.322  12.693 -1.0874  0.6766 -0.3188
  454TIP3   OH222852   6.773   1.518   0.629  0.0494  0.5041 -0.3240
  454TIP3    H122853   6.715   1.546   0.559 -0.4188  1.5525  0.4731
  454TIP3    H222854   6.858   1.558   0.606 -0.3757  1.8028  0.2858
  455TIP3   OH222855   2.222   0.454  15.509  0.1488  0.0941 -0.2324
  455TIP3    H122856   2.310   0.475  15.476 -0.4935  0.9084 -1.4177
  455TIP3    H222857   2.198   0.374  15.462  0.1720 -0.0157 -0.0573
  456TIP3   OH222858   4.750   3.107   1.019  0.1888 -0.1631 -0.2882
  456TIP3    H122859   4.703   3.167   0.961 -1.2056 -0.2252  0.7509
  456TIP3    H222860   4.772   3.032   0.963  1.3059  0.9785 -1.4050
  457TIP3   OH222861   0.347   2.517   4.238 -0.4366 -0.2037  0.1499
  457TIP3    H122862   0.404   2.562   4.176 -1.0732 -0.5630 -0.7086
  457TIP3    H222863   0.393   2.436   4.259 -1.6986 -1.6750 -2.4368
  458TIP3   OH222864   1.779   2.564   4.794 -0.7965 -0.0774 -0.3164
  458TIP3    H122865   1.742   2.646   4.828 -0.0192  1.1291 -2.3331
  458TIP3    H222866   1.849   2.592   4.735 -0.7131 -2.1976 -1.2417
  459TIP3   OH222867   3.232   3.766  14.777 -0.3928  0.1985 -0.0332
  459TIP3    H122868   3.200   3.699  14.716  0.5488 -1.5192  1.3041
  459TIP3    H222869   3.153   3.810  14.808 -1.0114 -0.1026 -1.1370
  460TIP3   OH222870   5.376   5.372   1.034  0.2892  0.3583  0.2183
  460TIP3    H122871   5.465   5.369   1.070 -0.1593 -0.5476  1.2736
  460TIP3    H222872   5.322   5.328   1.099 -1.1996  2.3007  0.3286
  461TIP3   OH222873   6.377   0.350  13.932 -0.6124 -0.7578  0.6066
  461TIP3    H122874   6.312   0.384  13.994 -1.3569 -2.4771  0.7880
  461TIP3    H222875   6.452   0.326  13.987 -0.5370 -0.4949  0.6173
  462TIP3   OH222876   6.308   3.506   0.783  0.7053  0.4734 -0.0377
  462TIP3    H122877   6.399   3.506   0.753  0.1115  3.4349 -2.0406
  462TIP3    H222878   6.268   3.581   0.739 -2.3861  0.0206  1.8362
  463TIP3   OH222879   6.208   4.495   4.607 -0.6949  0.8457  0.0943
  463TIP3    H122880   6.177   4.513   4.695 -0.4078  0.5373  0.2583
  463TIP3    H222881   6.130   4.498   4.552 -1.0623 -0.2654  0.5553
  464TIP3   OH222882   1.068   3.563  12.657  0.5823  0.4802  1.0053
  464TIP3    H122883   1.018   3.492  12.698  1.0120 -1.0596 -1.0803
  464TIP3    H222884   1.005   3.636  12.653 -1.0778 -0.9707 -0.2623
  465TIP3   OH222885   3.169   6.801  14.565  0.0672 -0.5618  0.5775
  465TIP3    H122886   3.236   6.868  14.554  1.2248 -1.8637 -0.3051
  465TIP3    H222887   3.098   6.828  14.506  1.4117 -1.2608 -1.3632
  466TIP3   OH222888   3.738   0.601   3.568  0.4777 -0.1588  0.0637
  466TIP3    H122889   3.716   0.610   3.661  1.0204  0.1294  0.1683
  466TIP3    H222890   3.714   0.685   3.530  1.7934  0.3241  0.2657
  467TIP3   OH222891   2.362   1.145  13.191 -0.4073 -0.4174  0.0413
  467TIP3    H122892   2.450   1.177  13.212  0.2952 -2.7353  0.8064
  467TIP3    H222893   2.363   1.129  13.097 -0.3437  0.5568 -0.1222
  468TIP3   OH222894   6.164   0.368  16.501 -0.7491  0.6541  0.2996
  468TIP3    H122895   6.162   0.328  16.414  0.8064  1.1446  0.0298
  468TIP3    H222896   6.143   0.296  16.560  0.8211 -0.2996 -0.2806
  469TIP3   OH222897   1.451   3.171   5.983 -0.1618 -0.2433 -0.2431
  469TIP3    H122898   1.466   3.265   5.976 -0.2967 -0.2744 -0.8988
  469TIP3    H222899   1.370   3.163   6.033  0.5125 -0.0338  0.9027
  470TIP3   OH222900   2.401   1.632  14.196  0.0869 -0.2174 -0.0085
  470TIP3    H122901   2.322   1.649  14.145  0.2655  0.4983 -0.0542
  470TIP3    H222902   2.470   1.617  14.130  0.1977  0.1387  0.0277
  471TIP3   OH222903   1.992   5.522  14.345 -0.1465 -0.2775  0.1254
  471TIP3    H122904   1.937   5.449  14.374 -1.7809  0.5641 -0.7764
  471TIP3    H222905   1.937   5.570  14.282  1.2559  1.1645 -0.0293
  472TIP3   OH222906   1.439   4.038   5.010 -0.2755  0.3626 -0.1450
  472TIP3    H122907   1.416   4.111   4.953 -2.2498 -0.3213 -0.2570
  472TIP3    H222908   1.523   4.064   5.049  0.1070  1.7342 -1.7884
  473TIP3   OH222909   0.241   3.450   3.977 -0.8144 -0.6569  0.2299
  473TIP3    H122910   0.275   3.539   3.972 -1.6621 -0.4354 -1.7894
  473TIP3    H222911   0.260   3.423   4.067  0.6691  1.0539  0.4614
  474TIP3   OH222912   5.310   1.968  16.246  0.7093 -0.0568 -0.2030
  474TIP3    H122913   5.395   1.927  16.260  0.7475  0.2457  0.4438
  474TIP3    H222914   5.299   1.969  16.150  0.4707 -2.0599 -0.2119
  475TIP3   OH222915   1.077   4.921   3.365 -0.8115  0.5446  0.2894
  475TIP3    H122916   1.127   4.848   3.403 -0.1731  0.1266 -1.3286
  475TIP3    H222917   0.991   4.884   3.346 -1.1443  0.7639  1.3398
  476TIP3   OH222918   4.493   6.433   0.490  0.1993  0.0427  0.0091
  476TIP3    H122919   4.423   6.488   0.525 -0.4272 -1.8768  1.8960
  476TIP3    H222920   4.476   6.431   0.396 -2.3635 -0.4363  0.4255
  477TIP3   OH222921   3.993   5.177   2.226 -0.1985  0.3385  0.4492
  477TIP3    H122922   3.959   5.099   2.270  0.1813  0.2539  0.5982
  477TIP3    H222923   3.960   5.170   2.136 -0.3464  0.1175  0.5201
  478TIP3   OH222924   6.640   3.155  16.404  0.0431  0.3189  0.3391
  478TIP3    H122925   6.603   3.068  16.417 -0.7616  0.5537 -0.3658
  478TIP3    H222926   6.723   3.139  16.359 -0.1493 -0.0789  0.1224
  479TIP3   OH222927   0.491   4.703  11.925 -0.3470 -0.3506 -0.7616
  479TIP3    H122928   0.409   4.671  11.887 -0.2073 -0.9164 -0.5949
  479TIP3    H222929   0.463   4.760  11.997 -0.5971 -0.2003 -0.9735
  480TIP3   OH222930   4.492   6.005   0.765 -0.3951 -0.1569  0.2964
  480TIP3    H122931   4.459   6.012   0.675 -0.6079  1.1218  0.4517
  480TIP3    H222932   4.583   6.033   0.760 -0.3763 -0.1884  0.4507
  481TIP3   OH222933   5.484   3.979  12.284  0.0346  0.6417 -0.6288
  481TIP3    H122934   5.410   4.007  12.339  0.3620 -0.3598  0.3357
  481TIP3    H222935   5.554   4.040  12.305  0.1190  0.3390 -0.0303
  482TIP3   OH222936   5.657   4.409  12.112  0.1272  0.1671  0.0747
  482TIP3    H122937   5.748   4.378  12.113 -0.0302 -0.2768  1.2869
  482TIP3    H222938   5.648   4.454  12.028  0.4759 -2.7600 -1.6222
  483TIP3   OH222939   1.100   3.297   2.115 -1.0344 -0.4548  0.1995
  483TIP3    H122940   1.065   3.244   2.187  0.8445  1.8779  2.9285
  483TIP3    H222941   1.195   3.292   2.126 -0.7874  2.0654 -0.4959
  484TIP3   OH222942   4.098   3.614   6.324  0.1258 -0.1236 -0.3076
  484TIP3    H122943   4.189   3.620   6.296  0.4753 -2.1468  0.2738
  484TIP3    H222944   4.048   3.601   6.244  0.6004 -1.1080 -0.4562
  485TIP3   OH222945   4.343   4.787   0.765  0.5285  0.3935  0.0458
  485TIP3    H122946   4.366   4.797   0.857 -0.1926  0.5929  0.2047
  485TIP3    H222947   4.292   4.706   0.761 -0.3622  0.9499 -0.0045
  486TIP3   OH222948   5.697   1.944   4.139 -0.4237 -0.1797 -0.5876
  486TIP3    H122949   5.761   2.015   4.147 -0.8788  0.2021 -0.3324
  486TIP3    H222950   5.623   1.972   4.192 -0.3133 -1.1884  0.1145
  487TIP3   OH222951   6.129   6.041  12.309  0.8927  0.2990  0.3497
  487TIP3    H122952   6.058   6.083  12.259  0.2234 -1.3691 -0.1407
  487TIP3    H222953   6.209   6.072  12.267  0.4496  1.7092  0.5117
  488TIP3   OH222954   3.027   5.571   3.154 -0.2621  0.3063  0.0131
  488TIP3    H122955   3.073   5.597   3.234  0.2454 -2.0909  0.5351
  488TIP3    H222956   3.096   5.542   3.094 -0.8947 -1.4393  0.0878
  489TIP3   OH222957   2.252   2.594  12.152 -0.2668  0.0619 -0.0960
  489TIP3    H122958   2.203   2.516  12.127  1.3566 -1.2398  0.7069
  489TIP3    H222959   2.322   2.602  12.087  0.6959 -0.2301  0.8918
  490TIP3   OH222960   1.473   3.269  15.710 -0.4324 -0.9943  0.7488
  490TIP3    H122961   1.535   3.332  15.673 -1.6160  0.4893  1.2407
  490TIP3    H222962   1.499   3.185  15.673  0.6791 -0.0928 -0.5517
  491TIP3   OH222963   2.132   1.844  13.964 -0.3883  0.6835 -0.2690
  491TIP3    H122964   2.134   1.754  13.997  3.6706  0.4973 -0.7383
  491TIP3    H222965   2.091   1.894  14.034 -1.5418 -1.3010  0.5321
  492TIP3   OH222966   4.039   4.509   5.672 -0.5114 -0.2571 -0.3430
  492TIP3    H122967   4.113   4.541   5.724 -0.3545 -0.3253 -0.5235
  492TIP3    H222968   3.961   4.535   5.722 -0.3410 -0.9784  0.2885
  493TIP3   OH222969   0.461   5.413   0.710 -0.4157  0.4779 -0.2135
  493TIP3    H122970   0.380   5.390   0.757  0.2515 -0.1527  0.6484
  493TIP3    H222971   0.509   5.330   0.705  0.0442  0.7914 -0.9968
  494TIP3   OH222972   3.469   4.539  14.092 -0.4311  0.2590 -0.3312
  494TIP3    H122973   3.520   4.509  14.017 -1.5062 -2.0259 -0.1776
  494TIP3    H222974   3.402   4.472  14.104 -2.0510  2.0657  0.8997
  495TIP3   OH222975   0.797   4.636  12.317 -0.3073  0.9510  0.1013
  495TIP3    H122976   0.731   4.643  12.249 -1.5976  0.8731  1.3085
  495TIP3    H222977   0.757   4.580  12.384  1.1726  0.4837  0.6335
  496TIP3   OH222978   5.744   6.219  13.805  0.2416 -0.8392  0.1501
  496TIP3    H122979   5.777   6.304  13.775  0.4098 -1.2471 -0.8488
  496TIP3    H222980   5.683   6.240  13.875 -0.4974  0.1803 -0.7812
  497TIP3   OH222981   3.293   2.177   0.706  0.3747  0.0732 -0.6804
  497TIP3    H122982   3.344   2.111   0.753  0.2410 -0.7780 -1.7071
  497TIP3    H222983   3.350   2.205   0.634 -0.8800 -1.4970 -2.3375
  498TIP3   OH222984   5.926   5.066  15.983  0.1682  0.6254  0.1362
  498TIP3    H122985   5.904   4.980  16.018 -1.3601 -0.0966 -2.4221
  498TIP3    H222986   6.014   5.055  15.945 -0.7096 -0.3251 -1.6880
  499TIP3   OH222987   4.771   0.777  15.899 -0.0709 -0.2541 -0.2727
  499TIP3    H122988   4.678   0.795  15.909  0.2712  0.6614  1.4730
  499TIP3    H222989   4.801   0.839  15.832 -0.6786 -0.4201 -0.6935
  500TIP3   OH222990   5.918   4.085   6.702 -0.3080 -0.5561  0.2400
  500TIP3    H122991   5.928   4.038   6.785  1.5468 -0.9362 -0.1877
  500TIP3    H222992   5.833   4.130   6.710 -0.6865 -1.5316  1.8615
  501TIP3   OH222993   2.716   2.139  13.089 -0.2444  0.7895  0.5478
  501TIP3    H122994   2.765   2.064  13.123  0.7287  0.9310 -0.5081
  501TIP3    H222995   2.701   2.195  13.165  0.3615  0.2585  1.0647
  502TIP3   OH222996   5.884   6.241   3.365 -0.0441  0.2037  0.4503
  502TIP3    H122997   5.928   6.163   3.398 -1.0586 -0.2620  0.7468
  502TIP3    H222998   5.954   6.302   3.343  0.7181 -0.3922  1.2213
  503TIP3   OH222999   4.777   5.979  11.837  0.3889  0.4341 -0.2948
  503TIP3    H123000   4.771   5.933  11.753 -0.9492 -0.5505  0.3160
  503TIP3    H223001   4.772   6.072  11.814 -0.2278  0.1650 -1.2891
  504TIP3   OH223002   0.298   3.306   0.930  0.3729 -0.3223  0.1034
  504TIP3    H123003   0.320   3.238   0.994 -0.2921 -0.7283 -0.1003
  504TIP3    H223004   0.355   3.380   0.954 -0.5326 -0.1219  1.7569
  505TIP3   OH223005   4.118   6.472  16.813 -0.5550  0.0144  0.2328
  505TIP3    H123006   4.048   6.407  16.817 -2.4147  1.6578 -2.8708
  505TIP3    H223007   4.081   6.542  16.759  3.3218  1.1944 -1.0046
  506TIP3   OH223008   5.966   1.401   1.029  0.1706 -0.0183  0.1652
  506TIP3    H123009   5.976   1.425   0.937  0.0588 -0.2523  0.0902
  506TIP3    H223010   5.929   1.313   1.026 -2.6345  1.1143  0.4280
  507TIP3   OH223011   0.265   3.051   3.065  0.3011  0.3935 -0.0495
  507TIP3    H123012   0.280   2.962   3.033 -0.0938 -0.2507  1.5159
  507TIP3    H223013   0.184   3.045   3.116  1.2407  1.2496  1.5798
  508TIP3   OH223014   6.044   1.424   0.188  0.3671  0.0031  0.3368
  508TIP3    H123015   6.098   1.486   0.140  0.2759  1.6642  2.2932
  508TIP3    H223016   6.105   1.382   0.249  0.0086 -0.2314  0.5353
  509TIP3   OH223017   6.715   2.786  16.752  0.0971 -0.0380 -0.1372
  509TIP3    H123018   6.760   2.866  16.779  2.3179 -0.7715 -1.4899
  509TIP3    H223019   6.641   2.816  16.700  0.2392  1.1504  0.3396
  510TIP3   OH223020   0.891   2.952   3.795  0.3881 -0.1911 -0.2552
  510TIP3    H123021   0.971   2.906   3.822  0.0346 -0.6588  0.0028
  510TIP3    H223022   0.870   3.009   3.869  0.6028  0.0890 -0.4107
  511TIP3   OH223023   1.454   3.819   5.193 -0.4736  0.8011 -0.0827
  511TIP3    H123024   1.449   3.898   5.139  0.9706  0.9295 -0.0400
  511TIP3    H223025   1.364   3.788   5.198 -0.6306  0.7252 -2.6700
  512TIP3   OH223026   6.349   3.179   3.372 -0.8620  0.2885 -0.4201
  512TIP3    H123027   6.366   3.226   3.453 -0.7951 -0.5925  0.0733
  512TIP3    H223028   6.265   3.214   3.341 -0.5370  1.1435 -0.3615
  513TIP3   OH223029   1.529   0.913  14.831  0.7661 -0.2684 -0.0864
  513TIP3    H123030   1.498   0.989  14.880 -1.9239 -1.3065 -0.1131
  513TIP3    H223031   1.461   0.896  14.766  1.5616 -2.3967 -0.4161
  514TIP3   OH223032   6.287   0.267   3.132  0.2025  0.2955  0.2527
  514TIP3    H123033   6.239   0.318   3.067  0.6331 -0.8939 -1.0135
  514TIP3    H223034   6.219   0.224   3.184 -0.1492  1.5299  0.8454
  515TIP3   OH223035   1.646   5.976   1.185 -0.2215 -0.1956  0.3804
  515TIP3    H123036   1.553   5.999   1.182 -0.0723  0.3303 -0.2759
  515TIP3    H223037   1.647   5.882   1.200 -0.8520 -0.0461  1.4519
  516TIP3   OH223038   1.777   6.145   5.934  0.1097 -0.0272  0.0332
  516TIP3    H123039   1.767   6.208   5.862  1.9707 -1.1479 -1.2519
  516TIP3    H223040   1.871   6.127   5.938 -0.2513 -1.8339  1.1451
  517TIP3   OH223041   4.047   5.705   1.007 -0.1813 -0.0767 -0.6319
  517TIP3    H123042   3.992   5.772   1.048 -0.6427 -0.6709 -0.2708
  517TIP3    H223043   4.113   5.755   0.958  0.1383  0.6539  0.5036
  518TIP3   OH223044   1.047   4.371   0.284 -0.2314  0.2264  0.2538
  518TIP3    H123045   1.115   4.439   0.281  0.9451 -1.0267 -2.2877
  518TIP3    H223046   1.065   4.323   0.364  0.3981  1.3935  0.8294
  519TIP3   OH223047   2.213   6.017   1.739  0.1000  0.0234  0.1688
  519TIP3    H123048   2.236   6.086   1.802  0.9657  0.1437 -0.2691
  519TIP3    H223049   2.218   6.060   1.654 -1.7505  0.0363  0.0587
  520TIP3   OH223050   3.236   1.876  16.493 -0.1877  0.4009 -0.2977
  520TIP3    H123051   3.239   1.940  16.422  2.0591 -0.5589 -1.1076
  520TIP3    H223052   3.162   1.819  16.471 -0.1112  0.7064 -1.3625
  521TIP3   OH223053   0.254   4.895   3.902 -0.0302  0.6933  0.0328
  521TIP3    H123054   0.274   4.802   3.897 -0.5282  0.5941 -0.2102
  521TIP3    H223055   0.336   4.939   3.883 -0.8233  0.3153 -4.9065
  522TIP3   OH223056   1.414   0.570   2.865  1.4530 -0.2584  0.5660
  522TIP3    H123057   1.467   0.560   2.944  3.0382 -1.4094 -0.6332
  522TIP3    H223058   1.460   0.521   2.798 -0.4649 -0.2098 -0.8300
  523TIP3   OH223059   4.388   5.720   6.385 -0.3652 -0.2898  0.3290
  523TIP3    H123060   4.297   5.694   6.376 -0.7924  0.2945  2.6402
  523TIP3    H223061   4.434   5.639   6.409 -0.6930 -0.1168  1.5665
  524TIP3   OH223062   3.006   4.948   0.747 -0.2770  0.8101  0.5579
  524TIP3    H123063   3.079   4.985   0.698 -0.2398  0.6739  0.5107
  524TIP3    H223064   3.012   4.989   0.834  0.1758  0.3927  0.7266
  525TIP3   OH223065   4.451   5.906  11.279  0.2666 -0.3847  0.3893
  525TIP3    H123066   4.534   5.928  11.322  1.1226 -1.4580 -0.6664
  525TIP3    H223067   4.463   5.816  11.249 -1.1562 -0.4248 -0.0901
  526TIP3   OH223068   0.208   5.385   0.838 -0.1331 -0.0106  0.6663
  526TIP3    H123069   0.168   5.470   0.858  2.2524  1.2204  0.3967
  526TIP3    H223070   0.263   5.367   0.914  0.0031 -0.9442  0.3481
  527TIP3   OH223071   1.731   4.205   1.589 -0.2812 -0.3981 -0.0276
  527TIP3    H123072   1.651   4.219   1.537 -0.0663  0.5927 -0.0967
  527TIP3    H223073   1.711   4.244   1.674 -0.0589 -0.6242  0.1277
  528TIP3   OH223074   4.306   3.107  14.351 -0.5226  0.4254 -0.4776
  528TIP3    H123075   4.373   3.155  14.399 -1.0786 -1.5179  2.4033
  528TIP3    H223076   4.307   3.020  14.391 -3.8395 -0.0320 -1.2954
  529TIP3   OH223077   0.504   2.867   3.769 -0.0902  0.2468  0.0281
  529TIP3    H123078   0.484   2.837   3.858 -0.5676  0.4466 -0.0096
  529TIP3    H223079   0.451   2.946   3.758  0.0280  0.2657 -0.4076
  530TIP3   OH223080   4.640   2.112   5.118  0.0192  0.2814 -0.1124
  530TIP3    H123081   4.570   2.170   5.147 -0.0361  0.0428  0.2449
  530TIP3    H223082   4.618   2.027   5.158  1.2071  0.5167  1.0967
  531TIP3   OH223083   3.051   5.861  15.724 -0.4614 -0.0156 -0.1239
  531TIP3    H123084   2.976   5.833  15.671  1.4917 -1.4460 -2.2209
  531TIP3    H223085   3.053   5.800  15.798 -1.5547  0.2434  0.1248
  532TIP3   OH223086   4.320   5.033  11.054 -0.3923  0.3310  0.2911
  532TIP3    H123087   4.344   4.957  11.000 -0.2713 -0.2775  1.1856
  532TIP3    H223088   4.230   5.052  11.030 -0.6577 -0.5454  0.5676
  533TIP3   OH223089   4.695   6.655   4.612 -0.0319 -0.4150  0.6510
  533TIP3    H123090   4.650   6.587   4.661 -0.3322 -2.0969 -1.8707
  533TIP3    H223091   4.693   6.731   4.670 -3.7887 -1.1810  1.6608
  534TIP3   OH223092   1.590   0.793   1.501  0.3400  0.2943  0.5954
  534TIP3    H123093   1.532   0.779   1.575 -1.6902 -0.8269 -1.1344
  534TIP3    H223094   1.613   0.705   1.471  2.8249  0.7145  1.1330
  535TIP3   OH223095   3.870   1.500   2.704  0.2096 -0.0961  0.5634
  535TIP3    H123096   3.957   1.525   2.675  0.8297 -0.1674  2.2961
  535TIP3    H223097   3.857   1.411   2.671  1.1268 -0.3945  1.0083
  536TIP3   OH223098   3.469   0.003   1.681 -0.6960 -0.7483 -0.3288
  536TIP3    H123099   3.382   0.042   1.681 -0.2164  0.3243 -0.5440
  536TIP3    H223100   3.525   0.069   1.641  0.4710 -0.9013  1.0442
  537TIP3   OH223101   2.915   4.044   3.323 -0.1869 -0.2597 -0.3645
  537TIP3    H123102   2.920   4.049   3.228 -0.0699 -0.5370 -0.3731
  537TIP3    H223103   2.850   4.110   3.347  0.0866  0.0988 -0.6055
  538TIP3   OH223104   6.235   2.435   5.309 -0.4248 -0.2733 -0.0733
  538TIP3    H123105   6.227   2.440   5.404  1.8669  0.4595  0.1063
  538TIP3    H223106   6.228   2.342   5.289  0.3853 -0.5632  0.9655
  539TIP3   OH223107   4.659   6.503  15.307  0.1655  0.3688 -0.0088
  539TIP3    H123108   4.624   6.551  15.232 -0.5023  1.0207  0.7060
  539TIP3    H223109   4.699   6.571  15.362 -1.2605  0.1991  1.2677
  540TIP3   OH223110   0.757   3.222   3.348 -0.3147  0.3218  0.2223
  540TIP3    H123111   0.713   3.220   3.264  1.1772 -1.6947 -0.5474
  540TIP3    H223112   0.850   3.226   3.327  0.0449  0.5140  1.7660
  541TIP3   OH223113   5.047   1.230   6.941  0.1782  0.4132  0.2277
  541TIP3    H123114   4.957   1.204   6.962  1.0500 -0.6762  2.9183
  541TIP3    H223115   5.040   1.319   6.908 -2.0219 -0.1560 -0.9481
  542TIP3   OH223116   0.146   1.913  11.927 -0.6379 -0.4215  0.6682
  542TIP3    H123117   0.203   1.850  11.971  0.9097 -0.8937 -1.9517
  542TIP3    H223118   0.128   1.874  11.842  0.3799  2.6657 -1.0224
  543TIP3   OH223119   1.892   5.166  15.846  0.5061 -0.7904 -0.2926
  543TIP3    H123120   1.961   5.126  15.899  2.8949  2.7139 -0.6520
  543TIP3    H223121   1.923   5.155  15.756  0.6903  0.9347 -0.4435
  544TIP3   OH223122   5.707   2.839   0.868  0.0057 -0.6949 -0.4045
  544TIP3    H123123   5.736   2.911   0.924 -0.5389 -0.3219 -0.5914
  544TIP3    H223124   5.744   2.859   0.782 -1.0382 -0.0658 -0.7111
  545TIP3   OH223125   1.864   3.206   6.674  0.2829 -0.5400 -0.1598
  545TIP3    H123126   1.816   3.155   6.740 -0.5346 -0.9833 -1.0901
  545TIP3    H223127   1.907   3.140   6.619 -0.0379 -0.2086 -0.8119
  546TIP3   OH223128   4.045   4.539   4.814  0.0984 -0.3385 -0.2230
  546TIP3    H123129   4.084   4.497   4.738  0.1959  1.0484 -0.9619
  546TIP3    H223130   4.110   4.528   4.883  0.0404 -1.5348 -0.3497
  547TIP3   OH223131   2.475   1.382  17.129  0.1586  0.0737 -0.3601
  547TIP3    H123132   2.460   1.436  17.206  0.6124 -2.4890  1.5874
  547TIP3    H223133   2.567   1.355  17.136 -0.1665 -1.2537 -1.0647
  548TIP3   OH223134   0.764   2.909  16.209 -0.7143  0.0741 -0.2364
  548TIP3    H123135   0.705   2.838  16.236 -0.9772 -0.0838 -1.2377
  548TIP3    H223136   0.715   2.989  16.225 -0.2650  0.0756  1.2965
  549TIP3   OH223137   2.141   1.073   1.345  0.2540  0.3684 -0.0101
  549TIP3    H123138   2.231   1.098   1.322  0.3942  0.9984  1.1760
  549TIP3    H223139   2.092   1.082   1.264  1.4044 -0.6620 -0.8430
  550TIP3   OH223140   6.199   3.271  14.670 -0.4742  0.1652  0.4348
  550TIP3    H123141   6.195   3.259  14.575 -1.4880  3.5798 -0.0138
  550TIP3    H223142   6.255   3.199  14.701  0.9565 -0.2289 -2.8727
  551TIP3   OH223143   2.056   4.068  12.744 -1.0761 -0.1112  0.2379
  551TIP3    H123144   1.981   4.075  12.804 -3.1257  1.4891 -2.4092
  551TIP3    H223145   2.040   4.135  12.678  2.9844  0.5831 -0.1464
  552TIP3   OH223146   0.550   4.708   2.777 -0.5903  0.0687  0.4243
  552TIP3    H123147   0.558   4.793   2.734 -0.3759 -0.7011 -1.0956
  552TIP3    H223148   0.529   4.647   2.706 -1.9387 -0.9577  1.6562
  553TIP3   OH223149   4.018   5.853  16.148 -0.1656 -0.4263  0.9146
  553TIP3    H123150   4.104   5.811  16.141  0.2498  0.7291 -1.6864
  553TIP3    H223151   4.019   5.896  16.234  1.1401 -1.9492  1.6800
  554TIP3   OH223152   4.860   2.161  17.080 -0.1384 -0.1979  0.3099
  554TIP3    H123153   4.855   2.065  17.091 -1.4946 -0.2515 -0.6896
  554TIP3    H223154   4.948   2.176  17.047 -0.8593 -1.3984 -2.2925
  555TIP3   OH223155   1.704   4.580   1.747  0.0705 -0.2849 -0.1212
  555TIP3    H123156   1.682   4.655   1.803  1.5795 -0.4458  0.7025
  555TIP3    H223157   1.651   4.593   1.669 -0.0436  1.3924  0.2086
  556TIP3   OH223158   1.130   0.282   6.409  0.1340 -0.2563  0.5995
  556TIP3    H123159   1.216   0.314   6.381 -0.3613 -1.1419 -2.0602
  556TIP3    H223160   1.138   0.186   6.407 -0.9941 -0.3526 -0.0076
  557TIP3   OH223161   5.569   0.046   2.829  0.3747 -0.3841 -0.0575
  557TIP3    H123162   5.652   0.060   2.783  0.7473 -2.3948 -0.0177
  557TIP3    H223163   5.547   0.132   2.865  0.8466  0.8869 -2.6823
  558TIP3   OH223164   0.953   0.684   1.607  0.4292  0.0908 -0.0414
  558TIP3    H123165   0.928   0.701   1.516  2.7990 -0.6392 -0.8563
  558TIP3    H223166   0.989   0.596   1.606  1.2006  0.3754  1.4584
  559TIP3   OH223167   6.302   5.219   1.402 -0.5201  0.0875 -0.0707
  559TIP3    H123168   6.223   5.238   1.452  0.9409  0.8619  1.9853
  559TIP3    H223169   6.326   5.130   1.429 -0.0396  0.2917  0.1627
  560TIP3   OH223170   6.743   2.723   5.036  0.2085  0.5105  0.0660
  560TIP3    H123171   6.728   2.761   5.122  0.1170  0.0742  0.2423
  560TIP3    H223172   6.692   2.777   4.976 -2.2336 -1.0736  0.6687
  561TIP3   OH223173   0.865   3.177   1.917  0.6050  0.4257 -0.3439
  561TIP3    H123174   0.934   3.207   1.857  1.0391  0.5432  0.2062
  561TIP3    H223175   0.899   3.095   1.953 -0.4238 -0.5753 -1.5700
  562TIP3   OH223176   1.353   4.834   0.577  0.3212 -0.6093  0.1606
  562TIP3    H123177   1.375   4.778   0.503  0.1468 -1.1682  0.5290
  562TIP3    H223178   1.321   4.915   0.537 -0.1939 -1.0728 -0.3816
  563TIP3   OH223179   1.133   5.680   4.207 -0.4394  0.4678  0.9147
  563TIP3    H123180   1.098   5.671   4.118 -1.4559  0.3840  1.3105
  563TIP3    H223181   1.174   5.766   4.209 -0.5564  0.5340  0.4130
  564TIP3   OH223182   1.381   5.489  17.190 -0.3119 -0.0743  0.4988
  564TIP3    H123183   1.393   5.521  17.279 -0.6347  1.6633 -0.0636
  564TIP3    H223184   1.457   5.432  17.175  0.3884  0.5835  1.4607
  565TIP3   OH223185   6.783   0.613  14.991 -0.7099 -0.2074  0.0820
  565TIP3    H123186   6.817   0.604  14.902 -1.6461 -2.3740 -0.0834
  565TIP3    H223187   6.706   0.670  14.981 -1.1489 -0.9018 -0.5936
  566TIP3   OH223188   4.447   4.789  11.629  0.3094 -0.1030  0.3365
  566TIP3    H123189   4.401   4.869  11.603 -1.9179 -1.4914 -0.1669
  566TIP3    H223190   4.536   4.800  11.596 -0.6972  1.0083 -2.1040
  567TIP3   OH223191   0.817   6.148   5.192  0.1034 -0.6820 -0.0264
  567TIP3    H123192   0.729   6.180   5.171  0.9217  1.1393 -0.7979
  567TIP3    H223193   0.810   6.118   5.283 -1.4844 -1.2585 -0.3064
  568TIP3   OH223194   6.677   1.208   3.349 -0.7049  0.0328 -0.4714
  568TIP3    H123195   6.664   1.188   3.442  0.0726  0.9345 -0.1553
  568TIP3    H223196   6.699   1.124   3.309  2.5864  0.1815  0.8419
  569TIP3   OH223197   2.096   3.940  14.625  0.1584 -0.0050 -0.1036
  569TIP3    H123198   2.131   3.884  14.694 -0.1725  0.4468  0.4414
  569TIP3    H223199   2.030   3.886  14.582  1.1069 -0.6593 -0.7660
  570TIP3   OH223200   1.348   2.089  10.814  0.2184  0.4052 -0.1109
  570TIP3    H123201   1.259   2.054  10.820  0.0931  0.7808  0.2362
  570TIP3    H223202   1.337   2.181  10.791  0.5497  0.2425 -0.9554
  571TIP3   OH223203   5.014   0.566  16.521  0.2887  0.1222  0.5127
  571TIP3    H123204   4.947   0.628  16.492  0.0441 -0.6818 -0.6694
  571TIP3    H223205   4.966   0.503  16.575 -0.1172 -1.0442 -1.1746
  572TIP3   OH223206   1.348   3.143  14.364 -0.0390  0.2615  0.1863
  572TIP3    H123207   1.286   3.126  14.435 -2.0589 -1.4043 -1.8941
  572TIP3    H223208   1.297   3.187  14.296  1.3869  0.1240 -1.0225
  573TIP3   OH223209   2.378   2.108   5.086 -0.2116 -0.4240  0.2291
  573TIP3    H123210   2.410   2.174   5.148  2.8539 -1.2252 -0.4477
  573TIP3    H223211   2.376   2.027   5.137 -0.2173 -0.5680 -0.0001
  574TIP3   OH223212   5.527   4.469   5.179  0.0981  0.2229  0.0350
  574TIP3    H123213   5.489   4.537   5.235 -0.1236  0.5642 -0.5287
  574TIP3    H223214   5.581   4.517   5.117 -0.4468 -0.0702 -0.6743
  575TIP3   OH223215   3.016   2.001   2.427  0.2991 -0.2487 -0.3699
  575TIP3    H123216   3.025   1.924   2.483  0.0755 -0.1254 -0.1628
  575TIP3    H223217   3.026   2.075   2.487  0.0923 -0.1179 -0.4983
  576TIP3   OH223218   4.971   4.221   4.212  0.4628  0.1116  0.5703
  576TIP3    H123219   4.891   4.188   4.253  0.8153 -0.9422  0.4199
  576TIP3    H223220   4.941   4.292   4.155 -0.3473 -0.1861  0.6180
  577TIP3   OH223221   5.808   4.546  13.181  0.2952  0.3501 -0.4885
  577TIP3    H123222   5.895   4.573  13.151  0.9358 -0.0079  0.9932
  577TIP3    H223223   5.809   4.450  13.170 -0.1944  0.4268 -1.1957
  578TIP3   OH223224   5.565   4.801  15.821  0.3988  1.1577 -0.5592
  578TIP3    H123225   5.659   4.816  15.836  0.5982 -1.9635  1.9517
  578TIP3    H223226   5.522   4.852  15.890  0.5550 -1.0841  1.2691
  579TIP3   OH223227   0.483   3.141   4.068  0.6326 -0.5451  0.0896
  579TIP3    H123228   0.481   3.058   4.116 -0.0481 -0.1292  0.7868
  579TIP3    H223229   0.576   3.165   4.067  0.9601 -1.8134 -0.9906
  580TIP3   OH223230   6.573   5.359   6.254  0.0525  0.9596  0.0698
  580TIP3    H123231   6.662   5.339   6.226 -0.4354 -0.7928 -0.3091
  580TIP3    H223232   6.517   5.310   6.193 -1.2046  2.8014 -0.3007
  581TIP3   OH223233   2.270   2.509  12.868 -0.1548  0.1360 -0.2544
  581TIP3    H123234   2.337   2.535  12.804 -0.0063 -0.3966 -0.3190
  581TIP3    H223235   2.189   2.504  12.817  0.1280 -1.1644 -0.5988
  582TIP3   OH223236   6.434   6.503   3.951  0.1558  0.1464  0.0080
  582TIP3    H123237   6.342   6.516   3.972  0.5033  2.7606  0.0214
  582TIP3    H223238   6.481   6.569   4.002  1.8756  0.0485 -1.3879
  583TIP3   OH223239   0.356   2.758  16.510  0.4476 -0.0860 -0.2781
  583TIP3    H123240   0.265   2.740  16.534  0.8403 -0.8036  0.7297
  583TIP3    H223241   0.389   2.813  16.580  0.4860  1.0903 -1.2045
  584TIP3   OH223242   0.079   6.073   4.948  0.4617 -0.7399  0.2282
  584TIP3    H123243   0.036   6.120   5.019 -0.2330 -0.6660 -0.2429
  584TIP3    H223244   0.055   5.982   4.961  1.5617 -0.9410  0.9629
  585TIP3   OH223245   0.489   1.810  12.328  0.8273 -0.7955  0.3628
  585TIP3    H123246   0.548   1.740  12.303  0.0689 -0.3484 -2.8572
  585TIP3    H223247   0.535   1.891  12.304  0.2950 -0.3047  0.9514
  586TIP3   OH223248   3.739   5.362  15.332  0.2639  0.6741  0.6227
  586TIP3    H123249   3.771   5.288  15.384  0.1636  1.3549  1.6619
  586TIP3    H223250   3.667   5.325  15.280 -0.2697  0.1938  1.6706
  587TIP3   OH223251   0.540   6.186   2.267  0.1505  0.0218 -0.4426
  587TIP3    H123252   0.475   6.243   2.309  0.5736  0.1151  0.0919
  587TIP3    H223253   0.490   6.135   2.204 -0.2519  0.9229 -0.8682
  588TIP3   OH223254   5.159   6.737  16.433 -0.2837  0.7020  0.4289
  588TIP3    H123255   5.115   6.763  16.352  0.4868  0.9575  0.0886
  588TIP3    H223256   5.240   6.788  16.434  0.5122 -0.5498  0.5316
  589TIP3   OH223257   2.671   1.007   5.057  0.2977 -0.0707 -0.5670
  589TIP3    H123258   2.734   0.964   5.115  0.1783  0.0109 -0.3756
  589TIP3    H223259   2.712   1.091   5.036  0.2799 -0.0432 -0.4910
  590TIP3   OH223260   6.701   1.137   3.872 -0.7559 -0.0761  0.4743
  590TIP3    H123261   6.671   1.223   3.901  0.1400 -0.0163  1.2439
  590TIP3    H223262   6.623   1.082   3.876 -0.3892 -0.4659  4.5226
  591TIP3   OH223263   5.688   2.508   5.877  0.0162 -0.4488 -0.5427
  591TIP3    H123264   5.685   2.556   5.795  0.9874  1.2008  0.3619
  591TIP3    H223265   5.760   2.548   5.926 -0.0080 -1.9463  0.7859
  592TIP3   OH223266   0.116   4.013  15.928 -0.2695  0.5884  0.4505
  592TIP3    H123267   0.071   3.939  15.966  2.3914 -0.8222  0.9878
  592TIP3    H223268   0.150   4.062  16.003  1.2978  0.1721  0.0395
  593TIP3   OH223269   3.403   2.585  13.077 -0.4852 -0.1122 -0.8515
  593TIP3    H123270   3.416   2.561  13.168 -1.2305  1.8005 -0.2193
  593TIP3    H223271   3.488   2.617  13.047 -0.4626  0.0659 -0.5890
  594TIP3   OH223272   3.745   3.654  13.848  0.2019 -0.7140  0.3223
  594TIP3    H123273   3.731   3.563  13.873  0.4847 -0.7837  0.2288
  594TIP3    H223274   3.822   3.682  13.899  0.0784 -0.5090  0.4004
  595TIP3   OH223275   4.265   4.698   2.723 -0.2829  0.0281 -0.1804
  595TIP3    H123276   4.317   4.768   2.683  2.8632 -2.0237  0.1290
  595TIP3    H223277   4.210   4.665   2.652  1.8976 -0.5129 -1.6625
  596TIP3   OH223278   6.184   2.374  15.556  0.4598  0.3422 -0.9939
  596TIP3    H123279   6.163   2.448  15.613  1.8991 -0.5336  0.7235
  596TIP3    H223280   6.214   2.305  15.616  2.5153 -0.4344 -2.8402
  597TIP3   OH223281   6.353   3.150   2.171  0.0750 -0.1224  0.2162
  597TIP3    H123282   6.368   3.241   2.146  1.0853 -0.6897 -1.3517
  597TIP3    H223283   6.440   3.111   2.172 -0.5918 -1.8334 -2.3477
  598TIP3   OH223284   6.380   0.547  11.947  0.5822 -0.2144  0.7210
  598TIP3    H123285   6.326   0.491  12.004  1.1829 -0.5365  0.9787
  598TIP3    H223286   6.468   0.539  11.983  1.1282 -1.0868 -0.7702
  599TIP3   OH223287   4.317   5.861  16.638  0.3923 -0.1707 -0.2909
  599TIP3    H123288   4.393   5.808  16.663 -0.1301 -1.0121 -0.4638
  599TIP3    H223289   4.314   5.854  16.542  1.2960  1.5316 -0.4562
  600TIP3   OH223290   4.843   4.638  15.957  1.0166 -0.1174  0.2471
  600TIP3    H123291   4.823   4.711  15.898  2.3709  1.3035  1.5169
  600TIP3    H223292   4.890   4.575  15.903  1.1039  0.5972 -0.5105
  601TIP3   OH223293   1.308   3.696   1.948  0.0888  0.3146  0.1545
  601TIP3    H123294   1.336   3.605   1.955 -0.5494  0.2137  1.6479
  601TIP3    H223295   1.324   3.719   1.857 -1.4297 -1.8597 -0.7093
  602TIP3   OH223296   5.810   4.109  14.528 -0.2998  0.4226  0.1873
  602TIP3    H123297   5.819   4.205  14.528 -0.9375  0.4876  1.4346
  602TIP3    H223298   5.725   4.093  14.567 -1.4121 -0.5807 -2.5722
  603TIP3   OH223299   6.505   0.733   0.857 -0.9432 -0.6036 -0.1033
  603TIP3    H123300   6.474   0.809   0.907 -0.7366 -0.9311  0.5239
  603TIP3    H223301   6.519   0.665   0.923 -0.1238 -0.8610 -0.5400
  604TIP3   OH223302   0.627   4.382  12.405  0.7620  0.1908  0.4925
  604TIP3    H123303   0.574   4.324  12.350  0.5976  2.8463 -2.2947
  604TIP3    H223304   0.565   4.447  12.438  1.5808  1.0818  0.3163
  605TIP3   OH223305   3.808   3.668  11.977 -0.0274  0.4796 -0.0965
  605TIP3    H123306   3.864   3.591  11.971  2.1599  2.0251 -0.3072
  605TIP3    H223307   3.782   3.672  12.069  0.4786 -0.0782  0.0726
  606TIP3   OH223308   1.177   6.738   2.831 -0.4104  0.0160 -0.1622
  606TIP3    H123309   1.262   6.716   2.792 -1.1322 -0.4209 -1.5413
  606TIP3    H223310   1.120   6.666   2.805 -1.0744  0.0387  1.2194
  607TIP3   OH223311   3.051   1.213  11.139  0.9170  0.8722 -0.0048
  607TIP3    H123312   3.010   1.280  11.194  2.1991  0.9220  0.9244
  607TIP3    H223313   3.102   1.263  11.074  0.9594  0.8078 -0.0205
  608TIP3   OH223314   5.763   4.292   3.391  0.4515  0.2519 -0.2940
  608TIP3    H123315   5.802   4.221   3.340  0.6173 -0.4477  0.7828
  608TIP3    H223316   5.737   4.357   3.326 -0.9059 -1.3697 -1.4235
  609TIP3   OH223317   6.354   4.284   3.515  0.0518 -0.5683  0.0763
  609TIP3    H123318   6.306   4.249   3.440 -0.1945 -3.5068  1.5196
  609TIP3    H223319   6.286   4.317   3.573  0.0701 -0.4186  0.0102
  610TIP3   OH223320   0.887   1.306   0.178  0.0742  0.1701 -0.2572
  610TIP3    H123321   0.803   1.300   0.132 -0.3683  1.3689  0.3752
  610TIP3    H223322   0.953   1.304   0.109 -0.4460 -1.1520 -0.7345
  611TIP3   OH223323   1.747   6.345  11.278 -0.4538 -0.8363  0.6379
  611TIP3    H123324   1.657   6.377  11.283  0.1024  1.2794 -1.8181
  611TIP3    H223325   1.745   6.279  11.208  0.1038 -0.0773 -0.0910
  612TIP3   OH223326   5.716   0.580   0.265 -0.1037 -0.4482 -0.1242
  612TIP3    H123327   5.626   0.548   0.257 -0.4247  0.3889  0.1492
  612TIP3    H223328   5.709   0.675   0.254  0.9122 -0.5135 -1.4736
  613TIP3   OH223329   6.586   4.429   6.821 -0.0994  0.1845  0.4817
  613TIP3    H123330   6.634   4.394   6.896 -0.4558 -1.4256 -0.0268
  613TIP3    H223331   6.601   4.365   6.751 -1.9425  0.3076 -0.0383
  614TIP3   OH223332   5.194   1.847  14.080  0.5976 -0.4256  0.1863
  614TIP3    H123333   5.266   1.865  14.020  1.7661 -0.9731  1.3833
  614TIP3    H223334   5.227   1.875  14.166 -1.5994  1.7843  0.3775
  615TIP3   OH223335   1.746   3.807   5.191  0.2157  0.1594  0.5129
  615TIP3    H123336   1.653   3.783   5.202 -0.2996  1.6769 -0.3557
  615TIP3    H223337   1.794   3.727   5.210 -1.2796 -0.6345  1.0291
  616TIP3   OH223338   6.300   0.853   3.220  0.2337  0.3865 -0.4297
  616TIP3    H123339   6.373   0.838   3.160 -0.9863 -0.1515 -1.8102
  616TIP3    H223340   6.268   0.940   3.198 -1.6281 -0.6871 -2.1332
  617TIP3   OH223341   4.052   4.127   1.221  0.0973  0.4762 -0.3039
  617TIP3    H123342   3.968   4.123   1.176 -0.1679  0.2945  0.2032
  617TIP3    H223343   4.096   4.045   1.195 -0.0547  0.3711 -0.2312
  618TIP3   OH223344   0.745   1.167  12.126  0.1215  0.2925 -0.4720
  618TIP3    H123345   0.770   1.172  12.218 -1.4229 -1.0051  0.0598
  618TIP3    H223346   0.771   1.251  12.089  1.0014  0.7278  1.0837
  619TIP3   OH223347   6.706   4.010   1.971 -0.0223 -0.2385 -0.0609
  619TIP3    H123348   6.791   3.981   1.939 -0.5086 -1.0215 -0.6789
  619TIP3    H223349   6.647   3.937   1.950 -0.7115  0.0141  0.9606
  620TIP3   OH223350   4.729   3.859  12.032 -0.6807 -0.2134 -0.1774
  620TIP3    H123351   4.693   3.819  11.953  0.3908 -0.1703 -0.6931
  620TIP3    H223352   4.731   3.788  12.096  2.2744 -1.3548 -1.4180
  621TIP3   OH223353   1.528   2.801  14.775 -0.1527 -0.1393 -0.1501
  621TIP3    H123354   1.594   2.772  14.712 -0.7713  0.9368 -1.3135
  621TIP3    H223355   1.579   2.839  14.847  0.5523 -1.2217 -0.0647
  622TIP3   OH223356   1.468   6.591   1.271  0.1017 -0.1915 -0.5407
  622TIP3    H123357   1.398   6.635   1.222  1.0553  0.9655 -0.8932
  622TIP3    H223358   1.443   6.499   1.272 -1.7334  0.2977 -0.1492
  623TIP3   OH223359   4.012   5.765  15.459 -0.1596 -0.3700  0.5042
  623TIP3    H123360   3.972   5.851  15.447  0.6660 -0.0224  0.1790
  623TIP3    H223361   4.094   5.783  15.504 -0.7999 -1.1711  2.0233
  624TIP3   OH223362   1.831   5.441  15.888  0.0542  0.2603 -0.0139
  624TIP3    H123363   1.849   5.452  15.982  0.3970 -0.3252 -0.0068
  624TIP3    H223364   1.818   5.347  15.877 -0.3457  0.3699 -0.4940
  625TIP3   OH223365   4.617   2.174   2.720  0.2813 -0.1515  0.0757
  625TIP3    H123366   4.651   2.242   2.663 -0.5941 -0.8403 -1.3066
  625TIP3    H223367   4.537   2.211   2.757  1.6475  0.8786  2.1091
  626TIP3   OH223368   1.312   3.304   4.286  0.2856  0.3494  0.6735
  626TIP3    H123369   1.365   3.224   4.294 -0.1032  0.2561  2.5098
  626TIP3    H223370   1.348   3.349   4.210  0.9620 -1.2444  0.0309
  627TIP3   OH223371   4.335   0.846   0.060 -0.3114 -0.4000  0.2004
  627TIP3    H123372   4.295   0.903  -0.005  0.4163 -0.8456 -0.6715
  627TIP3    H223373   4.272   0.842   0.132 -0.1180  1.9319  0.5284
  628TIP3   OH223374   4.092   3.579  15.772 -0.4270  0.2259 -0.2375
  628TIP3    H123375   4.077   3.489  15.800  2.9907 -0.3016  0.1117
  628TIP3    H223376   4.122   3.572  15.682 -1.6743  1.1554 -0.7432
  629TIP3   OH223377   5.499   4.596  11.430  0.1666  0.2406  0.0324
  629TIP3    H123378   5.561   4.665  11.407  1.0296  0.0967  1.8361
  629TIP3    H223379   5.433   4.640  11.484 -0.3302  0.0271 -0.3939
  630TIP3   OH223380   6.474   3.019   5.185  0.0919 -0.2810  0.2720
  630TIP3    H123381   6.540   3.065   5.133  1.0813 -0.5453  1.2815
  630TIP3    H223382   6.458   3.076   5.260 -1.1054 -0.0467 -0.1482
  631TIP3   OH223383   1.061   0.487   3.845  0.2147 -0.1678 -0.1223
  631TIP3    H123384   1.054   0.551   3.916  0.4544 -1.0689  0.7217
  631TIP3    H223385   1.017   0.528   3.771 -1.2224  0.2171  0.9441
  632TIP3   OH223386   0.539   0.803   3.909  0.0771  0.2331 -0.2204
  632TIP3    H123387   0.515   0.723   3.863  1.2190 -1.8954  2.7505
  632TIP3    H223388   0.468   0.819   3.970  0.8717  0.2606  0.7114
  633TIP3   OH223389   2.095   5.932  12.103  0.1205 -0.4537 -0.0119
  633TIP3    H123390   2.003   5.924  12.129 -0.2015 -1.7757 -1.4981
  633TIP3    H223391   2.144   5.893  12.175 -0.4584  0.3291  0.8274
  634TIP3   OH223392   2.746   1.241   5.723 -0.3909 -0.4795  0.1963
  634TIP3    H123393   2.658   1.204   5.718 -0.4769 -0.1996 -0.3288
  634TIP3    H223394   2.785   1.223   5.637  0.2656 -1.1152  0.6181
  635TIP3   OH223395   2.825   6.289   2.317  0.9320  0.9110 -0.4523
  635TIP3    H123396   2.882   6.277   2.393  0.4967  0.4052 -0.2036
  635TIP3    H223397   2.757   6.222   2.327  0.3832  1.4021 -0.8313
  636TIP3   OH223398   0.767   4.851   1.269  0.0282 -0.1532  0.5728
  636TIP3    H123399   0.775   4.767   1.222  2.9269 -0.1584  0.9949
  636TIP3    H223400   0.759   4.826   1.361 -3.6062 -0.0690  0.3418
  637TIP3   OH223401   0.703   1.195   2.455  0.5441 -0.2674  0.7670
  637TIP3    H123402   0.734   1.264   2.396  0.1808 -1.0082 -0.2830
  637TIP3    H223403   0.682   1.242   2.536  2.1250  0.5894  0.7089
  638TIP3   OH223404   1.857   1.480  14.740  0.3278 -0.1672 -0.1161
  638TIP3    H123405   1.871   1.457  14.832 -1.7651  2.6049  0.9458
  638TIP3    H223406   1.916   1.553  14.724 -1.7910  1.6607  0.0949
  639TIP3   OH223407   1.601   1.063   6.106  0.1594 -0.2246 -0.2997
  639TIP3    H123408   1.656   1.010   6.048  1.2096  0.8685 -0.3278
  639TIP3    H223409   1.511   1.043   6.079  0.6227 -0.0905 -2.0081
  640TIP3   OH223410   3.328   3.196   1.382  0.2786  0.2420 -0.0372
  640TIP3    H123411   3.279   3.239   1.451  1.9269  2.9126 -0.4195
  640TIP3    H223412   3.415   3.182   1.419  0.6127 -0.0563 -0.9083
  641TIP3   OH223413   5.427   3.326   0.743  0.5558 -0.1035  0.7309
  641TIP3    H123414   5.421   3.235   0.714  0.8164  0.1865 -0.2436
  641TIP3    H223415   5.361   3.372   0.691  0.7426  0.3434  0.8917
  642TIP3   OH223416   3.875   2.229  16.784  0.3750 -0.8807  0.1173
  642TIP3    H123417   3.781   2.234  16.798  0.3137  0.2029 -0.6299
  642TIP3    H223418   3.911   2.296  16.842  0.3014  1.9840 -3.0599
  643TIP3   OH223419   2.675   3.778  14.502 -0.6303  0.5945  0.1105
  643TIP3    H123420   2.767   3.757  14.483 -0.7541  0.7842 -0.6865
  643TIP3    H223421   2.678   3.863  14.545 -0.5594  1.3886 -1.4204
  644TIP3   OH223422   6.061   0.702   2.407 -0.3765 -0.4069 -0.6326
  644TIP3    H123423   5.983   0.649   2.425 -0.8714  0.8036  0.9931
  644TIP3    H223424   6.043   0.785   2.452  1.8695 -0.1260 -0.1988
  645TIP3   OH223425   1.734   3.868  12.802  0.0035 -0.3480 -0.1880
  645TIP3    H123426   1.656   3.827  12.839 -0.4633 -0.2796 -1.0767
  645TIP3    H223427   1.706   3.898  12.715  1.3737 -1.5013 -1.0459
  646TIP3   OH223428   3.820   3.273   5.853  0.2938  0.4916 -0.0740
  646TIP3    H123429   3.793   3.319   5.774  2.2606  0.6149 -0.6977
  646TIP3    H223430   3.750   3.290   5.916 -2.0132 -0.7936 -2.2013
  647TIP3   OH223431   1.163   4.450   3.877 -0.3266 -0.0052 -0.0328
  647TIP3    H123432   1.217   4.386   3.925  0.0375 -0.1413 -0.6204
  647TIP3    H223433   1.223   4.523   3.860  0.3007 -1.0841 -2.6137
  648TIP3   OH223434   3.825   6.070   3.621  0.1782  0.7011 -0.2947
  648TIP3    H123435   3.799   6.153   3.580  1.5768  1.2016 -0.1917
  648TIP3    H223436   3.921   6.072   3.620  0.2439  0.3068  2.1537
  649TIP3   OH223437   1.145   3.618   1.493  0.3713  0.4877  0.4577
  649TIP3    H123438   1.147   3.702   1.539 -0.9436 -0.4203  2.1752
  649TIP3    H223439   1.143   3.642   1.400 -0.1201  2.3617  0.9390
  650TIP3   OH223440   3.662   5.680  17.108 -0.5107  0.3959 -0.7362
  650TIP3    H123441   3.582   5.664  17.058 -1.1205  0.9841  0.0318
  650TIP3    H223442   3.655   5.622  17.184 -0.7771  1.3005 -0.0590
  651TIP3   OH223443   3.960   2.803   1.335 -0.2498  0.7302  0.1338
  651TIP3    H123444   3.961   2.748   1.414 -1.0849 -0.4133 -0.6348
  651TIP3    H223445   4.027   2.764   1.278  1.1438  2.2295  0.7103
  652TIP3   OH223446   0.466   3.800   1.175  0.6085 -0.7600  0.2866
  652TIP3    H123447   0.480   3.867   1.242 -1.9776  0.3426 -0.2455
  652TIP3    H223448   0.466   3.847   1.092 -0.5675 -1.5018 -0.1493
  653TIP3   OH223449   6.298   6.750   5.717 -0.1772 -0.3767 -0.2073
  653TIP3    H123450   6.211   6.712   5.714 -1.2935  2.2081 -2.1711
  653TIP3    H223451   6.290   6.826   5.775  0.1130  1.4042 -2.4641
  654TIP3   OH223452   1.961   1.714   1.630  0.2258 -0.1455 -0.2811
  654TIP3    H123453   1.959   1.626   1.667 -0.0891  0.8263  2.1172
  654TIP3    H223454   2.051   1.726   1.599  1.3278  0.0666  2.8966
  655TIP3   OH223455   5.782   2.236   5.187 -0.4514 -0.4275 -0.7205
  655TIP3    H123456   5.800   2.261   5.096  0.5445  1.4785 -0.0401
  655TIP3    H223457   5.688   2.248   5.196 -0.2472  1.5637 -0.9066
  656TIP3   OH223458   5.262   6.565  12.117 -0.5961  0.7253  0.5558
  656TIP3    H123459   5.303   6.479  12.121 -0.2989  0.7680 -1.1498
  656TIP3    H223460   5.190   6.561  12.180 -1.4713 -1.2476 -0.5439
  657TIP3   OH223461   2.683   0.085   4.677 -0.1864  0.6875  0.5374
  657TIP3    H123462   2.753   0.088   4.742 -0.1577 -1.0919  0.6176
  657TIP3    H223463   2.654  -0.006   4.677 -0.5944  0.7823 -1.5070
  658TIP3   OH223464   3.383   4.380   1.368 -0.1848  0.1022  0.1467
  658TIP3    H123465   3.408   4.463   1.329  0.1512  0.6427  1.4569
  658TIP3    H223466   3.315   4.403   1.431  0.2757 -0.5358  0.8888
  659TIP3   OH223467   5.919   6.416  17.003 -0.2184 -0.0793 -0.0013
  659TIP3    H123468   5.980   6.442  17.072 -0.6371  1.8252 -0.3182
  659TIP3    H223469   5.880   6.498  16.973 -1.6353 -1.0971 -1.0220
  660TIP3   OH223470   0.604   3.640  13.719  0.1328  0.1570  0.0172
  660TIP3    H123471   0.642   3.570  13.773  0.9913  0.5739 -0.0529
  660TIP3    H223472   0.679   3.688  13.685 -0.4478  2.5877  1.9784
  661TIP3   OH223473   4.983   5.415  17.115 -0.8754  0.4873  0.0504
  661TIP3    H123474   5.058   5.452  17.067 -0.0342 -0.7721  0.3511
  661TIP3    H223475   4.943   5.490  17.158  1.6883  0.8884  1.8813
  662TIP3   OH223476   5.637   3.804   3.279  0.3016  0.0832 -0.0400
  662TIP3    H123477   5.598   3.777   3.362  1.0345 -0.2608  0.1952
  662TIP3    H223478   5.731   3.810   3.297  0.5670 -0.7853 -1.0461
  663TIP3   OH223479   0.995   5.768   2.964  0.2826  0.4279  0.3882
  663TIP3    H123480   0.991   5.736   3.054  2.6314 -0.2967  0.2927
  663TIP3    H223481   1.011   5.690   2.912  0.8139  1.0757 -0.4359
  664TIP3   OH223482   2.320   6.612  14.433  0.5181  0.4647  0.1101
  664TIP3    H123483   2.387   6.620  14.366  0.2480  1.5537 -0.0323
  664TIP3    H223484   2.242   6.582  14.386  0.0071  2.3292 -0.2727
  665TIP3   OH223485   1.800   2.782   6.384  0.1282  0.2197 -0.1897
  665TIP3    H123486   1.792   2.779   6.289 -0.8320 -3.9100 -0.0986
  665TIP3    H223487   1.715   2.751   6.416  0.6867  0.8455  2.0133
  666TIP3   OH223488   3.831   3.437  17.010  0.2024 -0.1011 -0.0166
  666TIP3    H123489   3.885   3.516  17.022  1.2956 -0.8429  0.0670
  666TIP3    H223490   3.746   3.460  17.048  1.0190  0.4748  1.5320
  667TIP3   OH223491   1.873   1.692  11.911 -0.1594 -0.4061  0.3780
  667TIP3    H123492   1.826   1.624  11.959 -0.3549  1.0409  2.2950
  667TIP3    H223493   1.957   1.700  11.957  1.1493 -1.4917 -1.7211
  668TIP3   OH223494   5.853   6.734   2.474  0.6783  0.2453  0.0144
  668TIP3    H123495   5.943   6.704   2.465  0.9808  0.7229  1.2461
  668TIP3    H223496   5.854   6.823   2.439  0.7883  0.3952  0.3893
  669TIP3   OH223497   3.909   1.906   3.999 -0.2544  0.4113  0.5087
  669TIP3    H123498   3.976   1.891   4.066 -0.5451  0.1825  0.7557
  669TIP3    H223499   3.955   1.902   3.916  0.3418  1.9611  0.7479
  670TIP3   OH223500   2.912   3.950   4.878 -0.3162 -0.5568  0.0410
  670TIP3    H123501   2.917   3.946   4.782  0.7379 -1.5141  0.1315
  670TIP3    H223502   2.998   3.919   4.908 -1.1085 -1.5448  1.3280
  671TIP3   OH223503   4.688   4.679   2.004  0.4984  0.1404 -0.2272
  671TIP3    H123504   4.632   4.601   2.017  0.0880  0.5330  0.3993
  671TIP3    H223505   4.627   4.747   1.977  0.7477  0.4525  0.0049
  672TIP3   OH223506   6.039   6.610   3.057  0.1053 -0.4167  0.1784
  672TIP3    H123507   5.953   6.569   3.059  0.7383 -1.7873 -0.0108
  672TIP3    H223508   6.084   6.568   2.984  1.3403 -0.5694  1.0165
  673TIP3   OH223509   3.144   0.643  13.665  0.3891 -0.1602  0.0965
  673TIP3    H123510   3.084   0.610  13.599 -1.6129  1.1099  1.2439
  673TIP3    H223511   3.220   0.673  13.616 -0.5731 -0.2963 -1.5062
  674TIP3   OH223512   0.324   3.014   5.682  0.0483  0.1772 -0.2815
  674TIP3    H123513   0.321   2.983   5.772  0.9607 -1.2783 -0.7388
  674TIP3    H223514   0.252   3.077   5.676 -0.0183  0.2855  1.4511
  675TIP3   OH223515   0.683   4.318  13.310  0.8983 -0.0330  0.0423
  675TIP3    H123516   0.750   4.313  13.379  1.9049 -0.9760 -0.9986
  675TIP3    H223517   0.602   4.292  13.354  1.3594  0.2630  1.0895
  676TIP3   OH223518   0.085   0.226  15.285 -0.1560  0.0086  0.3438
  676TIP3    H123519   0.046   0.300  15.331  0.7661  0.3781  0.5538
  676TIP3    H223520   0.177   0.229  15.311 -0.0932 -1.1303  0.2355
  677TIP3   OH223521   3.956   2.665   2.943  0.5943  0.1768  0.0293
  677TIP3    H123522   3.918   2.723   2.877 -0.6968 -0.5025  0.1572
  677TIP3    H223523   4.042   2.642   2.908  1.2200  2.3428  0.0946
  678TIP3   OH223524   6.627   4.411  16.883 -0.3174 -0.2177  0.3162
  678TIP3    H123525   6.642   4.392  16.976 -1.2777  2.4747  1.0815
  678TIP3    H223526   6.712   4.437  16.849 -0.6481  2.4568  1.4230
  679TIP3   OH223527   2.603   2.623   0.852 -0.0875  0.5704  0.9400
  679TIP3    H123528   2.510   2.639   0.869  0.0412  0.7496  1.4970
  679TIP3    H223529   2.626   2.553   0.913 -0.0172  0.0568  0.3292
  680TIP3   OH223530   5.141   4.835   4.536  0.5212  0.0944 -0.3955
  680TIP3    H123531   5.220   4.888   4.526  0.7559 -0.1660  0.0718
  680TIP3    H223532   5.170   4.746   4.519  0.7852 -0.2728  1.9080
  681TIP3   OH223533   6.000   5.902  14.677  0.1783  0.6880 -0.4275
  681TIP3    H123534   5.969   5.979  14.724 -1.4573 -0.0682 -0.2411
  681TIP3    H223535   6.009   5.932  14.587 -3.9119  0.2243 -1.0834
  682TIP3   OH223536   2.319   6.054  14.191 -0.4807  0.1594 -0.0931
  682TIP3    H123537   2.247   6.069  14.252 -1.5742 -0.2025 -1.2882
  682TIP3    H223538   2.374   5.989  14.236  0.2869  2.0179  1.7629
  683TIP3   OH223539   4.402   0.394   6.119  0.5020 -0.1493 -0.3475
  683TIP3    H123540   4.471   0.442   6.074  1.3474 -0.7498  0.2965
  683TIP3    H223541   4.321   0.438   6.093  0.9994 -0.2564 -2.1626
  684TIP3   OH223542   3.074   2.668  16.111  0.4468  0.1679 -0.1900
  684TIP3    H123543   3.039   2.743  16.062 -0.5469  0.2246  0.5893
  684TIP3    H223544   2.996   2.623  16.143  1.0884  0.0736  1.2574
  685TIP3   OH223545   0.452   0.031  14.068  0.2029 -0.1716 -0.5956
  685TIP3    H123546   0.403  -0.010  13.997 -0.9329  0.8334 -0.4061
  685TIP3    H223547   0.498  -0.042  14.110 -0.7880 -1.0732 -1.0440
  686TIP3   OH223548   4.978   5.573   5.549 -0.5354 -0.2699  0.5088
  686TIP3    H123549   5.055   5.588   5.604 -0.4322 -2.7838  1.1250
  686TIP3    H223550   4.949   5.485   5.572 -2.1345 -0.3158 -1.5105
  687TIP3   OH223551   3.421   3.185  13.930 -0.1801 -0.0589  0.1961
  687TIP3    H123552   3.452   3.154  14.016  2.4473 -0.0268 -0.6906
  687TIP3    H223553   3.390   3.274  13.947 -0.9689 -0.5384  1.3648
  688TIP3   OH223554   3.997   5.177  14.825 -0.1257 -0.3980 -0.5168
  688TIP3    H123555   3.903   5.163  14.838 -0.2150  1.6664  1.4691
  688TIP3    H223556   4.035   5.089  14.826 -1.7831 -1.1291  1.0054
  689TIP3   OH223557   3.884   2.480  13.931 -0.1196  0.1814 -0.3688
  689TIP3    H123558   3.817   2.436  13.878  1.1351 -0.3063 -1.5790
  689TIP3    H223559   3.956   2.417  13.935  1.4713  1.8692 -1.6251
  690TIP3   OH223560   1.661   1.355  12.289 -0.0555 -0.1416 -0.0383
  690TIP3    H123561   1.594   1.331  12.353 -0.4750  0.1786 -0.3593
  690TIP3    H223562   1.643   1.446  12.267  0.1416 -0.2255 -0.5530
  691TIP3   OH223563   4.927   1.555   4.630  0.2146 -0.0837 -0.5674
  691TIP3    H123564   4.838   1.557   4.596  0.2472 -0.5294 -0.6806
  691TIP3    H223565   4.918   1.573   4.724  0.1692  1.6115 -0.8844
  692TIP3   OH223566   0.660   3.034  16.826 -0.3676 -0.0214  0.2495
  692TIP3    H123567   0.652   3.092  16.902  1.5615 -1.0566  1.2528
  692TIP3    H223568   0.750   3.003  16.828 -0.3025 -0.1303 -2.4297
  693TIP3   OH223569   4.198   4.752  17.078  0.0345 -0.1884  0.6726
  693TIP3    H123570   4.246   4.693  17.136 -1.3766 -0.8912  1.1483
  693TIP3    H223571   4.182   4.830  17.131  1.4395  0.4143  0.2141
  694TIP3   OH223572   0.082   3.357  14.532  0.4023  0.4633  0.1523
  694TIP3    H123573   0.046   3.344  14.444  1.2459  3.0689 -0.6090
  694TIP3    H223574   0.172   3.325  14.526  0.4913  0.7343  0.0291
  695TIP3   OH223575   5.971   4.742   1.508 -0.3813 -0.1098  0.0845
  695TIP3    H123576   5.946   4.771   1.420 -0.2987  0.7092  0.3216
  695TIP3    H223577   5.925   4.659   1.520 -1.9303  0.7120 -0.0029
  696TIP3   OH223578   2.739   4.634  11.584  0.0799 -0.1641  0.0157
  696TIP3    H123579   2.777   4.548  11.564  1.1472 -0.1732  1.9665
  696TIP3    H223580   2.681   4.617  11.659 -2.0593  0.2853 -1.4838
  697TIP3   OH223581   4.454   2.189  11.903 -0.2120 -0.4925  0.1682
  697TIP3    H123582   4.524   2.254  11.890 -0.6851  0.2596  1.2950
  697TIP3    H223583   4.500   2.105  11.909  0.6288  0.0358  1.2926
  698TIP3   OH223584   0.309   5.684  14.576 -0.4291 -0.2449 -0.0345
  698TIP3    H123585   0.259   5.630  14.514  0.3566  1.3134 -2.0878
  698TIP3    H223586   0.375   5.727  14.522  0.8598  0.4790  2.0660
  699TIP3   OH223587   0.179   2.446  16.599  0.2532  0.4846  0.0932
  699TIP3    H123588   0.135   2.527  16.627  0.7932  1.1560 -0.9498
  699TIP3    H223589   0.176   2.389  16.675 -1.8975  0.7460  0.2463
  700TIP3   OH223590   4.473   0.317  14.458  0.0355 -0.6622  0.3882
  700TIP3    H123591   4.480   0.413  14.457 -0.1272 -0.6605 -0.4797
  700TIP3    H223592   4.388   0.299  14.418 -0.1226 -1.1550  0.9362
  701TIP3   OH223593   1.022   1.185   6.152 -0.9525 -0.3282 -0.1271
  701TIP3    H123594   1.038   1.256   6.215 -1.7360 -0.7708  0.5774
  701TIP3    H223595   1.105   1.137   6.150 -0.8412 -0.1684  0.3937
  702TIP3   OH223596   6.118   2.634  13.855 -0.4402  0.1533 -0.3444
  702TIP3    H123597   6.201   2.611  13.815 -2.1902 -0.9150 -3.5395
  702TIP3    H223598   6.054   2.626  13.784 -3.4704 -0.3253  2.3312
  703TIP3   OH223599   4.819   1.723  13.367  0.4765  0.2053  0.0974
  703TIP3    H123600   4.744   1.711  13.426  0.9215 -1.3495  0.3698
  703TIP3    H223601   4.786   1.700  13.281 -0.5449  3.7573 -0.5402
  704TIP3   OH223602   1.595   3.168  14.827 -0.4965  0.7952 -0.6280
  704TIP3    H123603   1.523   3.168  14.890  0.1001 -2.2053  0.1240
  704TIP3    H223604   1.559   3.125  14.749 -0.1231  1.1471 -0.9976
  705TIP3   OH223605   1.413   1.940  14.998  0.0839  0.4922  0.2076
  705TIP3    H123606   1.336   1.903  15.041 -0.7541  0.8317 -0.9939
  705TIP3    H223607   1.400   2.035  15.004  0.0221  0.5428 -0.6720
  706TIP3   OH223608   0.947   1.282  16.346 -0.0444  0.0905  0.0080
  706TIP3    H123609   0.991   1.243  16.270  1.7243 -1.3066  1.7054
  706TIP3    H223610   0.943   1.212  16.411 -0.5321  1.5775  1.6299
  707TIP3   OH223611   4.925   2.930   6.282 -0.2972 -0.0839  0.1303
  707TIP3    H123612   4.967   3.012   6.307 -1.3822  0.5977 -0.2656
  707TIP3    H223613   4.964   2.908   6.198  1.8311 -1.2934  1.3992
  708TIP3   OH223614   5.696   0.060  14.453  0.1224  0.1233  0.3702
  708TIP3    H123615   5.773   0.004  14.467 -0.5276 -0.6503  0.8941
  708TIP3    H223616   5.644   0.049  14.533 -0.8378  0.1496 -0.2475
  709TIP3   OH223617   4.286   1.340  12.533 -0.7196 -0.2003 -0.0699
  709TIP3    H123618   4.275   1.250  12.563 -0.1591  0.2640  1.5696
  709TIP3    H223619   4.379   1.347  12.513 -1.0406 -0.4292 -1.7062
  710TIP3   OH223620   5.388   6.586   4.551  0.5353 -0.1428 -0.2237
  710TIP3    H123621   5.347   6.532   4.483  1.8980 -0.9890 -0.3857
  710TIP3    H223622   5.315   6.629   4.595 -0.4923 -1.2898 -0.8018
  711TIP3   OH223623   0.674   3.815   1.692 -0.0096  0.2281  0.0462
  711TIP3    H123624   0.684   3.891   1.635 -0.2377 -1.7004 -2.7000
  711TIP3    H223625   0.760   3.805   1.734  0.3535  1.3575 -0.4073
  712TIP3   OH223626   3.353   6.426   4.243  0.6383  0.3103  0.3638
  712TIP3    H123627   3.275   6.470   4.210  0.7488  0.3486  0.1566
  712TIP3    H223628   3.367   6.464   4.330  1.1727  1.2262 -0.1179
  713TIP3   OH223629   2.032   1.676   1.240  0.2827  0.3750  0.0386
  713TIP3    H123630   1.952   1.728   1.232 -0.1160 -0.4626 -1.4896
  713TIP3    H223631   2.018   1.621   1.318  0.0427  1.3741  0.7038
  714TIP3   OH223632   3.565   1.298  12.962  0.3040 -0.5607 -0.6406
  714TIP3    H123633   3.574   1.203  12.957  0.0722 -0.5266 -2.0250
  714TIP3    H223634   3.481   1.313  13.005  1.6615 -0.9504  2.2164
  715TIP3   OH223635   4.755   5.239  11.884  0.1192  0.6913 -0.2248
  715TIP3    H123636   4.722   5.267  11.970 -2.7426  1.3000 -1.4516
  715TIP3    H223637   4.676   5.220  11.834  1.8082 -2.3928 -1.8475
  716TIP3   OH223638   4.428   1.486   4.185 -0.1685  0.0743 -0.1173
  716TIP3    H123639   4.446   1.455   4.274 -0.0906  0.2224 -0.0811
  716TIP3    H223640   4.456   1.578   4.186 -1.5065  0.4944  0.1405
  717TIP3   OH223641   3.227   3.758   5.894 -0.0410 -0.3266  0.2202
  717TIP3    H123642   3.209   3.749   5.987 -0.2567  0.7788  0.2872
  717TIP3    H223643   3.306   3.706   5.879  0.2037 -0.1943  1.0840
  718TIP3   OH223644   2.052   1.741   5.819 -0.0856 -0.2973  0.2121
  718TIP3    H123645   2.038   1.833   5.797  2.2461  0.7024  2.6938
  718TIP3    H223646   2.133   1.718   5.774 -0.1487 -0.8896  0.3959
  719TIP3   OH223647   4.061   6.816   0.097  0.1190  0.3520  0.1454
  719TIP3    H123648   4.119   6.752   0.056 -1.7990 -1.9082  0.8162
  719TIP3    H223649   4.014   6.856   0.024 -0.8590 -1.2447 -0.1415
  720TIP3   OH223650   1.150   1.993  16.732  0.5491  0.2960  0.1177
  720TIP3    H123651   1.197   1.934  16.672  1.3270  0.9463  0.0766
  720TIP3    H223652   1.177   1.964  16.819 -0.3470 -0.4565  0.1448
  721TIP3   OH223653   5.366   5.601  13.015  0.5950 -0.2569  0.5488
  721TIP3    H123654   5.275   5.626  13.001  0.8255 -0.6262 -1.9153
  721TIP3    H223655   5.362   5.515  13.056 -0.1959 -1.0010 -1.0442
  722TIP3   OH223656   3.758   1.454  13.299 -0.2351  0.0724  0.4396
  722TIP3    H123657   3.727   1.363  13.297 -2.1615  0.6309  3.0393
  722TIP3    H223658   3.684   1.505  13.267  1.2630  0.7194 -2.2236
  723TIP3   OH223659   2.277   5.486  11.480  0.1557 -0.3770  0.4923
  723TIP3    H123660   2.232   5.570  11.489  1.3868  0.1470  2.0926
  723TIP3    H223661   2.300   5.482  11.387 -1.8812  0.0079 -0.0462
  724TIP3   OH223662   0.679   2.726  15.427 -0.0781 -1.0490 -0.2083
  724TIP3    H123663   0.681   2.661  15.497  0.5118  0.5623  1.3138
  724TIP3    H223664   0.632   2.801  15.466 -1.2913 -0.7780 -2.1206
  725TIP3   OH223665   6.689   0.071  11.008  0.1321  0.0346  0.0436
  725TIP3    H123666   6.619   0.088  11.071  0.4627 -0.5721  0.5806
  725TIP3    H223667   6.708   0.156  10.969  0.8187  0.6715  1.7130
  726TIP3   OH223668   4.117   4.146   2.255 -0.7262 -0.1492 -0.7167
  726TIP3    H123669   4.192   4.187   2.298 -1.3202 -0.0501  0.2304
  726TIP3    H223670   4.050   4.214   2.255 -0.9427 -0.3559 -1.2495
  727TIP3   OH223671   6.197   0.480   5.403  0.6078  0.1471 -0.0906
  727TIP3    H123672   6.240   0.550   5.453 -3.4045  1.8108  1.2281
  727TIP3    H223673   6.177   0.520   5.318  0.7474 -0.2802 -0.3240
  728TIP3   OH223674   1.748   3.054  17.051 -0.5678  0.2512  0.5306
  728TIP3    H123675   1.797   3.120  17.002 -0.1720 -0.7300 -0.4073
  728TIP3    H223676   1.814   3.004  17.098 -0.8746  0.5561  1.2965
  729TIP3   OH223677   5.957   4.306  16.121  0.1579  0.1625  0.2268
  729TIP3    H123678   5.918   4.223  16.096  0.3150  0.4004 -0.8493
  729TIP3    H223679   6.051   4.294  16.106  0.0093  1.0569 -1.4951
  730TIP3   OH223680   5.056   1.197  11.126  0.4800 -0.0257 -0.2436
  730TIP3    H123681   5.144   1.183  11.091  0.3457 -2.1083  0.2084
  730TIP3    H223682   4.997   1.177  11.053  0.3180 -0.6762  0.0633
  731TIP3   OH223683   6.519   0.492   2.753  0.4057 -0.0290 -0.2366
  731TIP3    H123684   6.559   0.491   2.840  0.5700 -0.2523 -0.3149
  731TIP3    H223685   6.503   0.400   2.733  0.2261  0.0335 -0.3777
  732TIP3   OH223686   5.412   2.576  14.139 -0.0334  0.2168 -0.2984
  732TIP3    H123687   5.478   2.644  14.127  0.9759 -0.2968  2.0376
  732TIP3    H223688   5.448   2.500  14.094 -0.2713  0.6883 -1.2875
  733TIP3   OH223689   1.795   2.132   4.828 -0.4961  0.0813 -0.0639
  733TIP3    H123690   1.755   2.216   4.847  0.0468  0.1183  0.9263
  733TIP3    H223691   1.876   2.131   4.879  0.2947 -0.3802 -1.3001
  734TIP3   OH223692   5.666   4.146  11.824 -0.3651 -0.0706  0.3239
  734TIP3    H123693   5.627   4.089  11.890 -0.0305 -0.5537  0.1129
  734TIP3    H223694   5.760   4.124  11.826 -0.1000  1.1085  0.8493
  735TIP3   OH223695   5.703   1.017  15.909  0.5384  0.4625  0.4269
  735TIP3    H123696   5.734   1.101  15.940  0.0862 -0.1031  2.4552
  735TIP3    H223697   5.764   0.953  15.946  0.3521 -0.1793 -0.3494
  736TIP3   OH223698   2.785   2.460   6.155 -0.0037  0.4944  0.1260
  736TIP3    H123699   2.748   2.378   6.189 -0.6463  0.2921 -1.0363
  736TIP3    H223700   2.709   2.518   6.145  0.1152  0.4201 -1.3249
  737TIP3   OH223701   4.825   2.707  12.092  0.1558  0.3708  0.1750
  737TIP3    H123702   4.905   2.734  12.046 -0.2666  0.6481 -0.4175
  737TIP3    H223703   4.756   2.719  12.027 -0.2441 -0.7158  0.3987
  738TIP3   OH223704   6.811   3.929   5.991  0.6332 -0.1758  0.3591
  738TIP3    H123705   6.804   3.869   5.916 -1.8861 -0.6513  0.9224
  738TIP3    H223706   6.812   3.871   6.068  0.9469  0.4037  0.7962
  739TIP3   OH223707   3.765   2.112   5.490  0.2484  0.3594  0.0147
  739TIP3    H123708   3.769   2.176   5.419  1.9433 -0.8924 -1.0625
  739TIP3    H223709   3.709   2.043   5.457 -0.6578  0.7340  0.7374
  740TIP3   OH223710   0.864   5.270  13.936  0.1152  0.5292 -0.2163
  740TIP3    H123711   0.792   5.210  13.953  1.7526 -1.2902  0.6483
  740TIP3    H223712   0.858   5.335  14.006  0.0187 -0.3416  0.6084
  741TIP3   OH223713   5.825   0.145   5.831  0.1390 -0.6662 -0.2436
  741TIP3    H123714   5.752   0.206   5.823  1.2107  0.3859 -2.8925
  741TIP3    H223715   5.844   0.142   5.924 -1.5699  1.0944  0.2085
  742TIP3   OH223716   4.651   3.789   1.307 -0.2817 -0.2046  0.6068
  742TIP3    H123717   4.568   3.794   1.260  0.1204  1.1451  0.0199
  742TIP3    H223718   4.627   3.801   1.399 -0.5907  1.7348  0.2953
  743TIP3   OH223719   6.174   5.247  16.923  1.1969 -0.0049  0.1180
  743TIP3    H123720   6.197   5.245  17.015  1.3202 -0.1624  0.0842
  743TIP3    H223721   6.080   5.265  16.921  1.4753  1.4755  0.2307
  744TIP3   OH223722   4.029   6.690  15.279 -0.1049  0.2864 -0.0154
  744TIP3    H123723   3.961   6.691  15.347 -0.9614  0.2545 -0.8620
  744TIP3    H223724   4.031   6.780  15.247 -0.3746  0.0869 -0.5987
  745TIP3   OH223725   6.538   1.166   6.653 -0.0406  0.1645 -0.5423
  745TIP3    H123726   6.600   1.136   6.719 -1.7388  0.1830  1.1163
  745TIP3    H223727   6.477   1.093   6.642 -0.5045  0.6313 -1.1577
  746TIP3   OH223728   1.398   6.116   2.288  0.1459  0.3813  0.0584
  746TIP3    H123729   1.391   6.150   2.199  2.0300  2.8909  0.8237
  746TIP3    H223730   1.421   6.024   2.277  1.5445  0.9582 -2.0647
  747TIP3   OH223731   3.604   6.294  11.142 -0.8698 -0.3805  0.0645
  747TIP3    H123732   3.549   6.241  11.201  0.5452 -0.7014  1.1060
  747TIP3    H223733   3.682   6.314  11.193  0.7290 -1.2983 -1.9337
  748TIP3   OH223734   0.607   0.716  11.023  0.1789  0.0656  0.1306
  748TIP3    H123735   0.593   0.801  11.064 -0.1799  0.2684 -0.4109
  748TIP3    H223736   0.528   0.700  10.971  0.8805  0.0983 -0.9712
  749TIP3   OH223737   5.712   3.422   2.793  0.0772 -0.7655 -0.1921
  749TIP3    H123738   5.637   3.363   2.784  0.0830 -0.7441 -0.3921
  749TIP3    H223739   5.730   3.452   2.703 -0.3750  0.0918 -0.0068
  750TIP3   OH223740   0.529   6.288  14.455  0.2693 -0.5964  0.5807
  750TIP3    H123741   0.528   6.201  14.495 -2.8571  0.1317  2.3462
  750TIP3    H223742   0.509   6.347  14.528  4.3564  1.8540 -0.1676
  751TIP3   OH223743   5.527   1.037   0.593  0.6052 -0.0004  0.1860
  751TIP3    H123744   5.458   0.971   0.594  0.6993 -0.1076  2.3660
  751TIP3    H223745   5.604   0.992   0.625  0.6301  1.1751  1.8685
  752TIP3   OH223746   2.906   0.719  11.151 -0.1214 -0.3732  0.0617
  752TIP3    H123747   2.970   0.648  11.152  0.6122  0.2744  1.9495
  752TIP3    H223748   2.842   0.693  11.085  1.9198 -1.1885 -1.6365
  753TIP3   OH223749   0.063   4.929  17.165  0.5655  0.2769 -0.3425
  753TIP3    H123750   0.113   4.876  17.227 -0.9359 -0.0145  0.6561
  753TIP3    H223751   0.116   4.931  17.086  2.8464  1.2261  1.1721
  754TIP3   OH223752   6.326   1.522   4.042  0.0781  0.0741 -0.0978
  754TIP3    H123753   6.267   1.596   4.052 -1.3515 -1.1833  1.0191
  754TIP3    H223754   6.389   1.550   3.975 -0.9919  1.9192 -0.3607
  755TIP3   OH223755   3.917   1.453  15.002 -0.0721  0.0188 -0.1941
  755TIP3    H123756   3.846   1.420  15.057  2.0212  1.0043  3.2406
  755TIP3    H223757   3.973   1.377  14.986 -0.7488 -0.2952 -1.0826
  756TIP3   OH223758   2.856   0.532  14.773  0.3012 -0.1969 -0.2457
  756TIP3    H123759   2.941   0.520  14.729  0.2103  2.3150 -1.1416
  756TIP3    H223760   2.856   0.623  14.801 -2.9003  0.3569 -1.8894
  757TIP3   OH223761   1.855   3.650   4.584  0.2526  0.3035 -0.4890
  757TIP3    H123762   1.798   3.665   4.659  0.1924 -1.0683 -0.2539
  757TIP3    H223763   1.909   3.575   4.609 -0.0015 -0.3919 -1.9304
  758TIP3   OH223764   2.245   6.817  12.759  0.2024  0.0506  0.1851
  758TIP3    H123765   2.196   6.812  12.841 -0.8471 -0.8354 -0.4805
  758TIP3    H223766   2.183   6.856  12.697  0.7398  0.0296 -0.3663
  759TIP3   OH223767   2.311   3.442   2.489  0.3465 -0.0435 -0.1298
  759TIP3    H123768   2.285   3.485   2.570  0.5978  0.3835 -0.2753
  759TIP3    H223769   2.406   3.443   2.489  0.3479  0.3165 -0.6139
  760TIP3   OH223770   1.427   3.777  13.494  0.3741 -0.2578  0.7114
  760TIP3    H123771   1.367   3.806  13.426 -0.8591 -1.8797  1.0934
  760TIP3    H223772   1.387   3.699  13.530  1.4294  0.1068  2.7461
  761TIP3   OH223773   2.501   4.376   3.071 -0.1253  0.2890  0.1527
  761TIP3    H123774   2.551   4.303   3.106  0.4934 -0.0761 -1.4324
  761TIP3    H223775   2.475   4.427   3.148  1.1379 -0.4981  1.1208
  762TIP3   OH223776   0.372   2.229  16.288  0.1120 -0.2486  0.4127
  762TIP3    H123777   0.380   2.160  16.354 -1.1650  0.1063  0.9630
  762TIP3    H223778   0.311   2.292  16.327  1.5687  1.4061  0.0932
  763TIP3   OH223779   6.142   5.274   0.202 -0.1709 -0.1992 -0.4268
  763TIP3    H123780   6.121   5.242   0.114 -0.7782  0.4988 -0.5491
  763TIP3    H223781   6.058   5.269   0.249  0.5412 -2.2532  0.6545
  764TIP3   OH223782   1.395   0.784  12.040  0.2946  0.1209 -0.6126
  764TIP3    H123783   1.402   0.689  12.033  0.0335 -0.0725  1.3639
  764TIP3    H223784   1.334   0.799  12.113 -1.1303  1.8096 -2.0841
  765TIP3   OH223785   0.903   0.188   2.631  0.1816  0.6284  0.0700
  765TIP3    H123786   0.889   0.111   2.575  1.8228 -0.0651  0.5741
  765TIP3    H223787   0.815   0.217   2.653 -0.4786 -0.8682 -0.4724
  766TIP3   OH223788   1.124   5.128   6.104  0.1361 -0.3909  0.0873
  766TIP3    H123789   1.072   5.206   6.122  2.6202  1.5308 -0.7987
  766TIP3    H223790   1.067   5.055   6.129 -1.7616  1.7212  2.1562
  767TIP3   OH223791   1.708   4.466  12.741 -0.4902 -0.0478 -0.0755
  767TIP3    H123792   1.625   4.496  12.705 -0.4616 -1.1706 -1.1247
  767TIP3    H223793   1.698   4.370  12.746  0.6257 -0.1564  0.0782
  768TIP3   OH223794   0.856   6.380   6.477 -0.4018 -0.4959  0.3253
  768TIP3    H123795   0.813   6.299   6.505  0.2045 -0.6080  0.9679
  768TIP3    H223796   0.787   6.431   6.436 -1.2409 -0.5062  1.6961
  769TIP3   OH223797   3.125   2.404   0.820 -0.3981  0.1066  0.1455
  769TIP3    H123798   3.145   2.340   0.750  0.9337  2.2397 -1.5004
  769TIP3    H223799   3.177   2.374   0.895  0.4226 -0.6269 -0.6958
  770TIP3   OH223800   4.187   1.130   3.986  0.0282 -0.0796 -0.2801
  770TIP3    H123801   4.203   1.133   3.891  0.2910 -1.3381 -0.2737
  770TIP3    H223802   4.270   1.160   4.025  0.3191 -0.6982 -0.4183
  771TIP3   OH223803   5.719   3.419  15.175 -0.3640 -0.2379  0.5863
  771TIP3    H123804   5.669   3.430  15.095  0.8208  0.1215 -0.1152
  771TIP3    H223805   5.687   3.488  15.233  0.6346  1.2116 -0.5428
  772TIP3   OH223806   6.218   4.091  12.499 -0.4509  0.7818 -0.1597
  772TIP3    H123807   6.224   4.001  12.531 -2.9047  0.8036  0.4891
  772TIP3    H223808   6.306   4.112  12.470  0.6763 -1.0855  1.7167
  773TIP3   OH223809   5.181   2.350   5.316 -0.1675 -0.5447  0.3343
  773TIP3    H123810   5.177   2.442   5.288 -0.2818 -0.3613  0.9344
  773TIP3    H223811   5.104   2.310   5.276  0.8165 -0.7839 -1.3336
  774TIP3   OH223812   2.380   3.827  11.348  0.2829 -0.2263  0.3537
  774TIP3    H123813   2.297   3.858  11.383  1.0045  0.5051  1.4850
  774TIP3    H223814   2.386   3.866  11.260 -0.3341  0.1356  0.4740
  775TIP3   OH223815   0.377   1.508  11.167 -0.0403  0.4558 -0.4154
  775TIP3    H123816   0.455   1.521  11.113  1.5666 -0.6274  1.5703
  775TIP3    H223817   0.311   1.566  11.128  1.2685  0.2505 -3.0616
  776TIP3   OH223818   6.403   5.183  16.707  0.5049  0.2329  0.1870
  776TIP3    H123819   6.474   5.130  16.744 -0.4087 -0.0997  1.5242
  776TIP3    H223820   6.330   5.169  16.768 -1.0547 -0.3069 -1.7681
  777TIP3   OH223821   1.927   0.162  14.484 -0.7378  0.3419 -0.4726
  777TIP3    H123822   1.985   0.139  14.556 -0.2643  1.0884 -0.6116
  777TIP3    H223823   1.908   0.079  14.441 -1.1315 -0.1263  0.5855
  778TIP3   OH223824   0.464   2.700  14.396  0.1861  0.1554 -0.4538
  778TIP3    H123825   0.449   2.666  14.307  0.5864  0.4372 -0.6294
  778TIP3    H223826   0.536   2.647  14.430 -1.4586 -1.5019  0.5534
  779TIP3   OH223827   0.392   6.115  15.450 -0.0555  0.6100 -1.0160
  779TIP3    H123828   0.338   6.036  15.446  1.2851 -0.3238 -1.0001
  779TIP3    H223829   0.410   6.128  15.543  0.5173  0.3891 -1.0967
  780TIP3   OH223830   0.442   6.760   2.024 -0.1553 -0.2366  1.0217
  780TIP3    H123831   0.511   6.785   1.962  0.0474 -1.4175  0.7601
  780TIP3    H223832   0.361   6.763   1.972 -0.1871  0.2212  1.0897
  781TIP3   OH223833   0.039   4.018  13.088 -1.0135  0.0731 -0.5491
  781TIP3    H123834  -0.001   3.989  13.006  1.8963  1.2465 -2.4809
  781TIP3    H223835   0.122   3.970  13.092 -1.0961  0.0842  1.6984
  782TIP3   OH223836   6.094   3.264   3.304 -0.6637  0.2428 -0.0656
  782TIP3    H123837   6.041   3.270   3.384  0.3812 -0.1528  0.6711
  782TIP3    H223838   6.071   3.179   3.267  1.3783 -1.1226  1.6700
  783TIP3   OH223839   2.846   5.545   0.394 -0.4463 -0.0328 -0.4771
  783TIP3    H123840   2.828   5.584   0.308 -1.3784 -3.4822 -1.9388
  783TIP3    H223841   2.936   5.513   0.387 -0.4757 -0.1923 -0.1292
  784TIP3   OH223842   5.706   6.163   5.688 -0.3310 -0.6491 -0.3288
  784TIP3    H123843   5.694   6.258   5.696  0.8250 -0.5025 -0.3071
  784TIP3    H223844   5.617   6.128   5.689 -0.7224  0.3085  1.2396
  785TIP3   OH223845   3.096   5.268   4.522  0.8607  0.3659 -0.0470
  785TIP3    H123846   3.090   5.207   4.595  0.5309 -0.6555 -0.9159
  785TIP3    H223847   3.075   5.215   4.444  1.9659  1.2522 -0.9665
  786TIP3   OH223848   1.661   3.377   5.592 -0.1538 -0.7031 -0.1761
  786TIP3    H123849   1.644   3.403   5.682  0.7831 -1.2691  0.1712
  786TIP3    H223850   1.676   3.459   5.545  1.7560 -0.5424  0.6865
  787TIP3   OH223851   4.948   0.505   1.127  0.1366 -0.0170  0.2686
  787TIP3    H123852   4.938   0.429   1.185  1.4341  0.4503  1.1442
  787TIP3    H223853   4.894   0.485   1.051 -0.2572 -1.4117  0.8970
  788TIP3   OH223854   1.173   5.666  11.455 -0.2624 -0.2842  0.2238
  788TIP3    H123855   1.216   5.743  11.417  0.2126 -1.2329 -1.2241
  788TIP3    H223856   1.230   5.639  11.526  0.4043 -0.2308 -0.2846
  789TIP3   OH223857   1.299   6.017   6.345  0.3122  0.3850 -0.5593
  789TIP3    H123858   1.291   5.960   6.421 -0.8458  1.3095  0.0184
  789TIP3    H223859   1.374   5.982   6.297  0.5874 -0.6566  0.6101
  790TIP3   OH223860   5.653   5.411  13.598 -0.1003 -0.0918  0.2569
  790TIP3    H123861   5.671   5.433  13.690  1.3184 -2.0050  0.4943
  790TIP3    H223862   5.708   5.334  13.582 -0.2006  0.3284 -2.2592
  791TIP3   OH223863   6.803   2.955  13.736 -0.7839  0.3280  0.0470
  791TIP3    H123864   6.822   2.912  13.653 -0.8441  0.1086  0.1465
  791TIP3    H223865   6.825   2.890  13.803 -1.3683  0.2685  0.1817
  792TIP3   OH223866   6.183   1.144   6.131 -0.7234  0.2507  0.4613
  792TIP3    H123867   6.109   1.180   6.181 -1.0396  0.8491 -0.4385
  792TIP3    H223868   6.161   1.051   6.120 -2.4530  0.8759 -1.7475
  793TIP3   OH223869   2.611   6.469   4.282 -0.1114 -0.3776 -0.1024
  793TIP3    H123870   2.531   6.436   4.242 -0.1959  0.4712 -0.6301
  793TIP3    H223871   2.624   6.412   4.359 -1.1438 -0.5940 -0.0808
  794TIP3   OH223872   4.747   0.681   3.343 -0.4882 -0.3436 -0.2205
  794TIP3    H123873   4.766   0.589   3.360 -0.0256  0.1260  1.8326
  794TIP3    H223874   4.738   0.721   3.429 -1.0349  1.4771 -1.0896
  795TIP3   OH223875   4.707   4.899  12.128 -0.2915  0.4981 -0.1274
  795TIP3    H123876   4.670   4.895  12.040  0.8017 -1.3970 -0.5242
  795TIP3    H223877   4.800   4.882  12.116  0.1854  2.0318  1.2123
  796TIP3   OH223878   5.737   5.202  11.511  0.2311 -0.0163 -0.3541
  796TIP3    H123879   5.789   5.282  11.521 -2.0788  1.2440  2.5792
  796TIP3    H223880   5.656   5.231  11.470  0.4216 -1.3303 -1.6820
  797TIP3   OH223881   2.894   1.818  13.708 -0.3258  0.2730  0.2838
  797TIP3    H123882   2.855   1.767  13.637 -0.3225  1.4955 -0.6154
  797TIP3    H223883   2.855   1.783  13.788  0.6613 -2.0166 -0.1979
  798TIP3   OH223884   5.348   5.542  13.303 -0.2279  0.0117 -0.4846
  798TIP3    H123885   5.264   5.501  13.283 -0.4830  0.0370  0.4891
  798TIP3    H223886   5.339   5.632  13.271 -0.9547  0.3125  0.5360
  799TIP3   OH223887   4.979   2.479   3.158  0.2084  0.0748 -0.1292
  799TIP3    H123888   4.921   2.543   3.116  2.3658  2.5062  0.4818
  799TIP3    H223889   5.023   2.435   3.085 -0.6852 -0.1657 -0.5310
  800TIP3   OH223890   5.123   5.693  12.894  0.3274  0.2985 -0.3418
  800TIP3    H123891   5.109   5.656  12.807  2.0290 -1.2383  0.0050
  800TIP3    H223892   5.108   5.787  12.882  0.3318  0.0866 -2.2545
  801TIP3   OH223893   6.071   2.912   2.766 -0.6662 -0.4000  0.2997
  801TIP3    H123894   6.017   2.987   2.742  0.9223  0.5248 -0.4825
  801TIP3    H223895   6.117   2.940   2.845  0.7397 -0.1127 -0.5934
  802TIP3   OH223896   5.301   3.320  16.119 -0.5400  0.0875 -0.2085
  802TIP3    H123897   5.281   3.406  16.083 -0.5710  0.4613  0.6896
  802TIP3    H223898   5.222   3.268  16.103 -0.8588  0.4885  0.0468
  803TIP3   OH223899   6.500   0.783   3.045  0.1293 -0.4968  0.7341
  803TIP3    H123900   6.511   0.798   2.951  1.3662  0.0924  0.9627
  803TIP3    H223901   6.584   0.747   3.074 -1.1719 -3.4113  1.1001
  804TIP3   OH223902   0.485   2.189   1.580 -0.1837 -0.5099 -0.2181
  804TIP3    H123903   0.494   2.285   1.583  1.3159 -0.6642  0.6798
  804TIP3    H223904   0.492   2.167   1.487  0.3602  0.1719 -0.3466
  805TIP3   OH223905   1.807   1.514  16.352 -0.6043  0.2619 -0.0140
  805TIP3    H123906   1.826   1.480  16.265 -1.5617 -0.9192  0.2178
  805TIP3    H223907   1.715   1.492  16.367 -0.4710  0.5047  1.2657
  806TIP3   OH223908   3.939   3.227   0.097 -0.0081 -0.2580  0.2481
  806TIP3    H123909   4.009   3.169   0.066 -0.6489 -0.0893 -1.6244
  806TIP3    H223910   3.973   3.315   0.082 -0.4646 -0.1766 -0.3606
  807TIP3   OH223911   3.948   6.254  16.813 -0.1376  0.2094  0.0913
  807TIP3    H123912   3.863   6.242  16.769 -0.7683  1.0705  1.0431
  807TIP3    H223913   3.990   6.169  16.809 -2.1073 -0.8920  1.7773
  808TIP3   OH223914   4.667   6.609   4.115  0.1864  0.0332  0.3320
  808TIP3    H123915   4.618   6.639   4.192 -1.3105  0.2651 -0.6868
  808TIP3    H223916   4.609   6.629   4.041  0.8702 -1.7864 -0.7071
  809TIP3   OH223917   3.479   5.248  14.242 -0.0096 -0.3734  0.2109
  809TIP3    H123918   3.518   5.331  14.269 -2.0886  0.5626  0.4201
  809TIP3    H223919   3.405   5.273  14.187  0.3109 -2.1397 -1.0604
  810TIP3   OH223920   3.459   3.454  13.589  0.7702 -0.2699 -0.2690
  810TIP3    H123921   3.377   3.503  13.597  2.2306  2.1762  0.5811
  810TIP3    H223922   3.518   3.514  13.543  2.3000 -1.6824 -0.1973
  811TIP3   OH223923   1.125   6.247   4.427  0.6395 -0.5674  0.3949
  811TIP3    H123924   1.219   6.228   4.420  0.4694 -0.8704 -1.3972
  811TIP3    H223925   1.108   6.308   4.355 -0.7116 -1.2118  0.1645
  812TIP3   OH223926   1.729   4.938  14.304  0.6113  0.4747  0.0182
  812TIP3    H123927   1.696   4.862  14.352 -1.0547  1.2655  0.1601
  812TIP3    H223928   1.734   4.909  14.213  0.2791  0.0929  0.1221
  813TIP3   OH223929   6.703   6.518   3.748 -0.3055 -0.1373 -0.4657
  813TIP3    H123930   6.644   6.443   3.744 -1.1983  0.6154 -4.5214
  813TIP3    H223931   6.664   6.576   3.814 -0.6900 -2.3215  1.2731
  814TIP3   OH223932   2.528   6.364   3.007 -0.3288  0.0066 -0.5228
  814TIP3    H123933   2.515   6.390   2.916  0.0928 -0.0738 -0.6065
  814TIP3    H223934   2.615   6.397   3.029 -0.4918  0.1604 -0.1021
  815TIP3   OH223935   1.600   5.134  15.085  0.5826  0.0054  0.2839
  815TIP3    H123936   1.611   5.201  15.153 -2.0407  0.8268 -0.0499
  815TIP3    H223937   1.580   5.184  15.005  0.0969 -1.1179 -0.3023
  816TIP3   OH223938   5.029   6.168   5.811 -0.3421  0.2555  0.1379
  816TIP3    H123939   4.982   6.122   5.742 -2.2596 -1.0331  2.2233
  816TIP3    H223940   5.037   6.104   5.882  1.7049  1.4923  1.0734
  817TIP3   OH223941   4.718   1.809   2.870  0.1601 -0.1805 -0.0573
  817TIP3    H123942   4.696   1.805   2.777  1.9942 -0.9392 -0.4883
  817TIP3    H223943   4.655   1.871   2.907  1.0803  2.2077 -2.3109
  818TIP3   OH223944   5.078   0.954   1.510  0.7071  0.1974  0.4764
  818TIP3    H123945   5.060   0.871   1.466  1.6629  0.5558 -0.6289
  818TIP3    H223946   5.002   0.969   1.565  0.1982 -1.0573  0.1414
  819TIP3   OH223947   2.538   5.894   4.279  0.0512  0.4139  0.0636
  819TIP3    H123948   2.494   5.909   4.195 -0.4460  0.5476  0.3482
  819TIP3    H223949   2.619   5.848   4.256 -0.5759 -0.4779 -0.3985
  820TIP3   OH223950   2.776   5.902  12.758 -0.5438  0.1512 -0.3617
  820TIP3    H123951   2.856   5.953  12.768 -0.7020  0.2069  0.6103
  820TIP3    H223952   2.751   5.877  12.847 -2.9143  2.1598 -0.4159
  821TIP3   OH223953   3.593   4.168  12.775 -0.2474 -0.1166 -0.0472
  821TIP3    H123954   3.687   4.186  12.771 -0.0540 -1.3851 -1.8404
  821TIP3    H223955   3.551   4.249  12.746  0.2710  0.5989  1.1856
  822TIP3   OH223956   2.242   5.510  13.857 -0.6639  0.4803 -0.1999
  822TIP3    H123957   2.216   5.571  13.926  0.2937 -0.0718  0.6698
  822TIP3    H223958   2.224   5.423  13.893  2.8782  0.0448  0.7177
  823TIP3   OH223959   4.163   5.982  17.035 -0.0784  0.8818 -1.0522
  823TIP3    H123960   4.259   5.973  17.033 -0.1846 -1.0851  0.5532
  823TIP3    H223961   4.132   5.920  16.969 -0.3060 -0.1577  0.0123
  824TIP3   OH223962   4.039   3.354   3.449  0.6132  0.5853  0.1214
  824TIP3    H123963   4.006   3.405   3.523 -1.1022  0.3131 -0.4407
  824TIP3    H223964   3.961   3.315   3.410  1.4579  0.9207 -1.9765
  825TIP3   OH223965   4.513   0.919  15.902 -0.0264  0.2037 -0.7694
  825TIP3    H123966   4.513   1.008  15.865 -0.5640  0.7322  0.4807
  825TIP3    H223967   4.423   0.905  15.930  0.8083  0.6315  2.2608
  826TIP3   OH223968   5.813   1.485  15.754 -0.4734 -0.1679  0.1990
  826TIP3    H123969   5.878   1.425  15.791 -1.6521 -2.7476 -1.7537
  826TIP3    H223970   5.817   1.469  15.660 -3.1416  0.3944 -0.0616
  827TIP3   OH223971   0.496   5.943  11.095  0.0243  0.6751 -0.6281
  827TIP3    H123972   0.402   5.939  11.081 -0.4292  2.9263  1.3429
  827TIP3    H223973   0.533   5.964  11.009 -1.1661 -1.2558 -1.6172
  828TIP3   OH223974   3.946   4.475  14.796  0.0028 -0.0242  0.1245
  828TIP3    H123975   3.903   4.412  14.739 -0.5252  1.7838 -1.5447
  828TIP3    H223976   4.031   4.490  14.754  0.4919 -0.3093  1.0123
  829TIP3   OH223977   4.526   5.079   3.984 -0.2300  0.0595  0.2373
  829TIP3    H123978   4.506   5.082   4.077  1.3682 -1.1459  0.6408
  829TIP3    H223979   4.572   5.162   3.967  1.3245 -0.6322  0.9831
  830TIP3   OH223980   6.000   0.572   3.507  0.6279  0.4053  0.0691
  830TIP3    H123981   5.998   0.505   3.438  2.8931 -1.0027  1.3195
  830TIP3    H223982   6.069   0.633   3.480  2.4380 -0.8711  1.6955
  831TIP3   OH223983   3.445   6.655   1.888  0.5171  0.2920  0.0245
  831TIP3    H123984   3.474   6.731   1.836 -0.1669  2.1890  2.3342
  831TIP3    H223985   3.367   6.624   1.842 -0.0308  1.8844 -0.1678
  832TIP3   OH223986   6.494   4.028   5.079  0.2004 -0.1333  0.9074
  832TIP3    H123987   6.446   4.012   5.160 -0.8164 -1.0108  0.1585
  832TIP3    H223988   6.431   4.006   5.010  1.7087 -1.3750 -0.0901
  833TIP3   OH223989   2.480   5.986   4.573  0.8484  0.2163  0.3414
  833TIP3    H123990   2.420   6.035   4.517  1.7979 -0.7861 -1.5972
  833TIP3    H223991   2.535   6.052   4.615 -1.3384  1.1230  1.8622
  834TIP3   OH223992   5.272   0.505  12.929  0.0150 -0.2276 -0.1488
  834TIP3    H123993   5.196   0.513  12.987  0.4398 -0.3700  0.4240
  834TIP3    H223994   5.271   0.586  12.878 -0.2172  0.0047  0.2204
  835TIP3   OH223995   2.669   3.564   4.245 -0.4089 -0.1882 -0.0449
  835TIP3    H123996   2.742   3.502   4.237 -0.8590 -0.5192 -1.7159
  835TIP3    H223997   2.706   3.639   4.292  1.5180  0.4288 -2.4438
  836TIP3   OH223998   4.090   4.540  14.306  0.0541  0.4440  0.6598
  836TIP3    H123999   4.021   4.473  14.301 -0.5874  1.0276  1.6875
  836TIP3    H224000   4.172   4.490  14.313 -0.4392 -0.2320  1.5906
  837TIP3   OH224001   3.373   5.618   2.439  0.2667  0.1666  0.3755
  837TIP3    H124002   3.317   5.692   2.417  0.4645  0.2551  0.1685
  837TIP3    H224003   3.458   5.640   2.401  0.9860  0.9280  2.3458
  838TIP3   OH224004   3.910   1.528  16.044  0.3072  0.0247 -0.2055
  838TIP3    H124005   3.971   1.488  16.106  0.9911  1.8917  0.3417
  838TIP3    H224006   3.901   1.618  16.074 -1.4643  0.2116 -1.2479
  839TIP3   OH224007   1.336   2.346  10.717  0.1707  0.6625 -0.2956
  839TIP3    H124008   1.264   2.336  10.655 -0.8681  1.6358  0.7427
  839TIP3    H224009   1.408   2.382  10.664  0.6742 -2.4173 -1.8317
  840TIP3   OH224010   0.044   5.183   4.707 -0.4402  0.3656  0.0973
  840TIP3    H124011   0.048   5.256   4.646 -0.9154  0.7001  0.4640
  840TIP3    H224012   0.093   5.213   4.784 -0.7061  0.3226  0.2815
  841TIP3   OH224013   3.157   1.254   4.631  0.4710  0.5297  0.1685
  841TIP3    H124014   3.099   1.294   4.696  0.6964 -1.2771  1.5318
  841TIP3    H224015   3.099   1.202   4.576  0.3035  1.9261 -1.0167
  842TIP3   OH224016   0.606   5.446  11.622  0.2837 -0.7432  0.1170
  842TIP3    H124017   0.699   5.455  11.601 -0.0504  2.4487 -0.2900
  842TIP3    H224018   0.601   5.472  11.715 -0.4496  1.3130 -0.4618
  843TIP3   OH224019   6.063   1.316   5.642  0.8064  0.8386  0.0842
  843TIP3    H124020   6.138   1.366   5.610  1.3444  0.3632  0.5866
  843TIP3    H224021   6.100   1.259   5.710  0.6348 -1.7363 -1.8813
  844TIP3   OH224022   3.067   1.738  15.058  0.4400  0.0681  0.2809
  844TIP3    H124023   3.031   1.772  14.977 -1.5016 -0.9965  0.6666
  844TIP3    H224024   3.023   1.788  15.127  2.1116  1.0023  0.6993
  845TIP3   OH224025   0.933   0.806  12.527 -0.7664  0.2975  1.0570
  845TIP3    H124026   0.894   0.811  12.440  0.4524  1.1498  0.5638
  845TIP3    H224027   0.972   0.718  12.531  0.2130  0.6900  0.2987
  846TIP3   OH224028   3.566   3.653  12.258  0.1227  0.0402 -0.1335
  846TIP3    H124029   3.590   3.736  12.219 -0.8367  1.1955  1.6720
  846TIP3    H224030   3.631   3.638  12.327 -0.0048 -0.4354 -0.1131
  847TIP3   OH224031   1.399   2.737  13.446  0.3468  0.2389  0.3317
  847TIP3    H124032   1.494   2.726  13.441  0.3809  0.8892 -0.5888
  847TIP3    H224033   1.386   2.816  13.497  0.2624 -0.4255  1.3616
  848TIP3   OH224034   1.746   2.882  14.900  0.0986  0.1669  0.2916
  848TIP3    H124035   1.827   2.932  14.899  0.5079 -0.4711  0.9768
  848TIP3    H224036   1.772   2.795  14.931 -0.4717 -0.6929 -1.5744
  849TIP3   OH224037   0.343   0.219   4.069  0.4713 -0.1499  0.1704
  849TIP3    H124038   0.416   0.160   4.091 -1.5909 -1.9770  2.2885
  849TIP3    H224039   0.333   0.211   3.974  2.7731 -0.1348 -0.1021
  850TIP3   OH224040   2.150   1.752   3.936  0.3193  0.5146  0.5906
  850TIP3    H124041   2.139   1.661   3.906  1.6896  0.8108 -0.8932
  850TIP3    H224042   2.230   1.750   3.988  0.9354  1.0788 -0.3351
  851TIP3   OH224043   5.854   5.953   0.442 -0.2328  0.3036  0.2636
  851TIP3    H124044   5.895   6.028   0.397 -0.5229  0.4482  0.2387
  851TIP3    H224045   5.912   5.935   0.516  0.9739 -0.7855 -0.9261
  852TIP3   OH224046   2.411   1.448   4.718 -0.6050 -0.1580  0.4667
  852TIP3    H124047   2.376   1.454   4.807  1.2988 -1.6946  1.3479
  852TIP3    H224048   2.404   1.355   4.696 -1.4191  0.2782 -1.1459
  853TIP3   OH224049   0.686   6.116  15.549  0.4520 -0.2468 -0.3212
  853TIP3    H124050   0.606   6.110  15.497 -0.5543 -0.1755  1.1872
  853TIP3    H224051   0.736   6.037  15.525  0.6073  0.4295 -2.3330
  854TIP3   OH224052   1.204   0.629  14.796  0.5725 -0.2232 -0.2438
  854TIP3    H124053   1.267   0.557  14.802 -0.2231 -0.8803  0.2235
  854TIP3    H224054   1.119   0.588  14.813 -0.0822  0.5090 -1.7275
  855TIP3   OH224055   6.089   1.612  12.316 -0.2273 -0.2047 -0.2218
  855TIP3    H124056   6.033   1.547  12.274 -0.9652  0.3710 -0.1333
  855TIP3    H224057   6.075   1.692  12.265  0.1755  0.0585  0.0773
  856TIP3   OH224058   1.103   4.245  10.675  0.3200 -0.1185  0.6868
  856TIP3    H124059   1.180   4.301  10.679 -0.9995  1.7677  0.2040
  856TIP3    H224060   1.049   4.271  10.749 -0.3656 -0.6817  0.3963
  857TIP3   OH224061   3.314   5.850   3.439 -0.1599  0.4042 -0.0429
  857TIP3    H124062   3.271   5.855   3.353  2.1181 -2.0514 -1.3715
  857TIP3    H224063   3.407   5.863   3.420  0.0979  2.8715  2.4723
  858TIP3   OH224064   5.075   4.756   3.026 -0.1733  0.0336 -0.0976
  858TIP3    H124065   5.125   4.721   3.100  0.8901 -0.2548 -0.9370
  858TIP3    H224066   5.049   4.843   3.055 -0.4886 -0.3917  0.9432
  859TIP3   OH224067   3.636   1.866  12.295 -0.2117 -0.6627 -0.3216
  859TIP3    H124068   3.662   1.933  12.231 -0.4965  2.6311  2.8580
  859TIP3    H224069   3.718   1.826  12.323  0.3358  0.8829  0.3506
  860TIP3   OH224070   4.659   0.225  14.958  0.1730  0.5685 -0.6782
  860TIP3    H124071   4.665   0.227  14.863  0.3087  1.8747 -0.6631
  860TIP3    H224072   4.725   0.289  14.987 -1.4200  1.8365  0.2073
  861TIP3   OH224073   5.006   3.069   5.930  0.0053  0.0553 -0.5501
  861TIP3    H124074   5.045   2.995   5.884  0.3277 -1.9080  2.7215
  861TIP3    H224075   5.079   3.105   5.982 -0.7211  1.1662 -0.2919
  862TIP3   OH224076   2.168   3.656  12.476 -0.0082  0.0085  0.1412
  862TIP3    H124077   2.125   3.728  12.430 -0.4808 -0.1895  0.2755
  862TIP3    H224078   2.104   3.626  12.540  1.1526  1.1450  1.8423
  863TIP3   OH224079   0.312   5.943  16.906 -0.3615 -0.1514 -0.0967
  863TIP3    H124080   0.225   5.977  16.928 -0.1417 -0.5317  1.4694
  863TIP3    H224081   0.303   5.906  16.818 -1.6330  0.3303 -0.1695
  864TIP3   OH224082   6.441   3.154   1.103 -0.0964  0.1006 -0.4120
  864TIP3    H124083   6.465   3.144   1.011 -1.3533 -1.1548 -0.6234
  864TIP3    H224084   6.463   3.070   1.143  0.9669  0.8344  0.5621
  865TIP3   OH224085   5.650   5.922  16.738  0.1292  0.2119  0.9703
  865TIP3    H124086   5.626   5.852  16.799 -1.1489 -1.4036 -1.2870
  865TIP3    H224087   5.730   5.959  16.775 -0.2527 -1.1321  3.2657
  866TIP3   OH224088   5.183   4.707   4.288 -0.6413 -0.2013 -0.1310
  866TIP3    H124089   5.202   4.729   4.197  0.3589  1.7892  0.5120
  866TIP3    H224090   5.114   4.769   4.313 -0.3849 -0.2294  0.6667
  867TIP3   OH224091   0.140   5.497  16.442 -0.0538 -0.3055 -0.1450
  867TIP3    H124092   0.152   5.422  16.384 -2.2535  1.5507 -3.1228
  867TIP3    H224093   0.228   5.534  16.451  0.6931 -1.9588 -0.3564
  868TIP3   OH224094   5.163   4.579  16.129 -0.3791  0.4614  0.5948
  868TIP3    H124095   5.232   4.544  16.072 -1.1117 -0.6535  0.3660
  868TIP3    H224096   5.180   4.539  16.214 -0.6091  0.3491  0.5903
  869TIP3   OH224097   3.187   3.974  14.346  0.1724  1.1286 -0.6672
  869TIP3    H124098   3.208   3.895  14.396 -0.6678  0.8273 -0.7893
  869TIP3    H224099   3.154   3.941  14.263  0.1790  1.6192 -0.8642
  870TIP3   OH224100   0.415   1.505   4.636  0.5590 -0.0417 -0.1001
  870TIP3    H124101   0.332   1.531   4.596  1.2695  1.0820 -0.8819
  870TIP3    H224102   0.482   1.543   4.580  1.6119 -0.7325  0.6574
  871TIP3   OH224103   5.119   6.756  11.966  0.6114  0.0771  0.4485
  871TIP3    H124104   5.149   6.674  12.004 -2.0066 -1.4556 -0.6753
  871TIP3    H224105   5.160   6.759  11.879 -0.8587 -1.0229 -0.2918
  872TIP3   OH224106   4.687   4.019   5.014 -0.2783  0.1501 -0.5318
  872TIP3    H124107   4.629   4.078   4.967  1.3763  1.0079 -1.5457
  872TIP3    H224108   4.733   3.970   4.946  0.9022  0.2021  0.1971
  873TIP3   OH224109   3.920   2.380  11.658 -0.1716  0.1555  0.6284
  873TIP3    H124110   3.959   2.339  11.735  1.4087  0.2524 -0.0973
  873TIP3    H224111   3.994   2.408  11.605 -1.2258  1.9927  0.0577
  874TIP3   OH224112   1.419   6.351   4.444  0.7775 -0.2167 -1.2995
  874TIP3    H124113   1.461   6.437   4.449 -1.1913  0.7927 -1.4337
  874TIP3    H224114   1.489   6.290   4.422  2.5345  1.0857  0.5911
  875TIP3   OH224115   6.396   4.222   4.867  0.0138 -0.1252 -0.2444
  875TIP3    H124116   6.329   4.156   4.888  0.6661 -0.3998  0.9602
  875TIP3    H224117   6.389   4.232   4.772 -0.5617 -1.4285 -0.3537
  876TIP3   OH224118   5.421   0.066   1.091 -0.5480 -0.3143 -0.2771
  876TIP3    H124119   5.408   0.157   1.064 -0.4883  0.0014  0.7114
  876TIP3    H224120   5.338   0.040   1.130 -0.5445 -0.6651 -0.5040
  877TIP3   OH224121   0.611   2.991   3.445  0.5762  0.3186  0.1364
  877TIP3    H124122   0.666   3.063   3.413 -0.0042  0.1024 -1.3907
  877TIP3    H224123   0.639   2.915   3.393 -0.2602 -0.0923  0.2842
  878TIP3   OH224124   0.025   3.479   4.643  0.0881  0.3388 -0.4092
  878TIP3    H124125   0.040   3.508   4.553  1.0630  2.3164  0.3604
  878TIP3    H224126  -0.064   3.506   4.662  0.4466  1.4101 -0.2353
  879TIP3   OH224127   3.369   3.880  16.847  0.0348 -0.4383  0.0833
  879TIP3    H124128   3.372   3.860  16.941 -2.2840 -0.4649  0.1899
  879TIP3    H224129   3.358   3.794  16.805  1.0869 -0.4284 -0.2244
  880TIP3   OH224130   2.353   2.335   0.745 -0.8180  0.8830 -0.2813
  880TIP3    H124131   2.350   2.416   0.695  1.7121 -0.4212 -2.7142
  880TIP3    H224132   2.445   2.308   0.740 -1.7010 -2.3762  0.0477
  881TIP3   OH224133   1.516   0.254  16.608 -0.6051 -0.3368 -0.2142
  881TIP3    H124134   1.450   0.206  16.658  0.0594 -0.8928  0.1300
  881TIP3    H224135   1.575   0.186  16.575  0.7414  0.2902  0.8575
  882TIP3   OH224136   6.641   1.722  12.790 -0.1151  0.0804 -0.3211
  882TIP3    H124137   6.615   1.785  12.858 -0.1221 -0.5540  0.2634
  882TIP3    H224138   6.641   1.637  12.834 -0.1919 -0.3459 -1.1353
  883TIP3   OH224139   3.381   4.912  12.275  0.3272  0.3676 -0.2405
  883TIP3    H124140   3.455   4.878  12.326  0.2404  1.9915  1.0121
  883TIP3    H224141   3.393   4.875  12.188  2.2369  0.0556  0.1351
  884TIP3   OH224142   6.751   2.478   1.353  0.7265 -0.1581 -0.3740
  884TIP3    H124143   6.719   2.524   1.275  3.5944  1.1809 -0.8269
  884TIP3    H224144   6.760   2.387   1.326  0.7355  0.1162 -1.2948
  885TIP3   OH224145   6.257   4.035  14.292  0.3872 -0.2275  0.0449
  885TIP3    H124146   6.257   3.960  14.350 -0.1605 -0.3911 -0.1649
  885TIP3    H224147   6.164   4.053  14.275  0.5470 -0.6069 -1.3212
  886TIP3   OH224148   2.560   4.730   6.448  0.1425 -0.0827 -0.1589
  886TIP3    H124149   2.613   4.655   6.420  0.2166 -0.3180  0.6018
  886TIP3    H224150   2.624   4.795   6.477  0.0587  0.1162 -0.4129
  887TIP3   OH224151   0.595   5.191   0.826  0.2810  0.1008  0.2796
  887TIP3    H124152   0.558   5.104   0.811 -0.7964  0.0633  2.8030
  887TIP3    H224153   0.686   5.173   0.851  0.5022 -0.1864 -0.7161
  888TIP3   OH224154   6.134   1.647  13.982  0.3674 -0.9080  0.2566
  888TIP3    H124155   6.043   1.671  13.963  0.8568  1.6862  1.0703
  888TIP3    H224156   6.128   1.591  14.059 -0.6511 -2.0834 -0.6420
  889TIP3   OH224157   6.225   3.789   2.356  0.3873 -0.0719  0.3963
  889TIP3    H124158   6.271   3.726   2.411 -1.2163  0.7324  2.7600
  889TIP3    H224159   6.279   3.868   2.360  1.3887 -0.6578 -0.9939
  890TIP3   OH224160   1.344   1.217   1.878 -0.0021  0.1485 -0.4528
  890TIP3    H124161   1.373   1.161   1.806 -0.2613 -0.0603 -0.3968
  890TIP3    H224162   1.320   1.156   1.947 -3.4363  0.1500 -1.5490
  891TIP3   OH224163   4.224   1.694   3.906 -0.2652  0.3001  0.2025
  891TIP3    H124164   4.250   1.765   3.964 -1.1861  1.3364 -0.6400
  891TIP3    H224165   4.227   1.732   3.818 -1.5775 -0.4505 -0.1842
  892TIP3   OH224166   1.847   4.379   0.956  0.2488 -0.2988 -0.1710
  892TIP3    H124167   1.842   4.471   0.980  2.7789 -0.2132  0.1549
  892TIP3    H224168   1.757   4.354   0.937 -0.8547  1.5101  2.4514
  893TIP3   OH224169   1.306   4.257  14.046  0.1783  0.6025  0.4386
  893TIP3    H124170   1.366   4.183  14.039 -0.0953  0.4094  0.0866
  893TIP3    H224171   1.286   4.263  14.139 -2.6892 -2.0957  0.0766
  894TIP3   OH224172   2.374   0.926   3.397  0.1752  0.1872 -0.6406
  894TIP3    H124173   2.454   0.972   3.424 -0.7963  1.7275 -0.3055
  894TIP3    H224174   2.319   0.994   3.358 -0.9280 -0.8677 -0.9675
  895TIP3   OH224175   3.795   4.135   2.962  0.0066 -0.0270 -0.2725
  895TIP3    H124176   3.866   4.116   3.023  0.2510  0.3821 -0.4273
  895TIP3    H224177   3.787   4.231   2.964 -0.1461 -0.0323 -0.7019
  896TIP3   OH224178   2.627   4.630  16.539 -0.3056 -0.2018 -0.4899
  896TIP3    H124179   2.661   4.552  16.495 -1.3670 -0.8698 -0.1443
  896TIP3    H224180   2.655   4.702  16.483  0.8257 -0.8111 -0.7324
  897TIP3   OH224181   5.529   2.783  14.613 -0.1790 -0.1906 -0.4345
  897TIP3    H124182   5.550   2.827  14.531 -1.2469  0.1746 -0.5246
  897TIP3    H224183   5.541   2.851  14.680 -1.7195  0.2323 -0.5632
  898TIP3   OH224184   1.742   5.146   1.500  0.3351 -0.0911 -0.2316
  898TIP3    H124185   1.815   5.203   1.476  1.1031 -0.8664  0.2424
  898TIP3    H224186   1.744   5.075   1.437  0.0813 -0.2012 -0.1187
  899TIP3   OH224187   2.940   3.700   5.008  0.1745  0.0701  0.6740
  899TIP3    H124188   2.930   3.607   4.986  1.9311  0.1146 -0.3875
  899TIP3    H224189   2.938   3.746   4.924  0.0700  0.9270  1.1347
  900TIP3   OH224190   4.292   5.217   2.419 -0.2550  0.1401 -0.1590
  900TIP3    H124191   4.340   5.218   2.336 -0.2366  0.2427 -0.1474
  900TIP3    H224192   4.244   5.134   2.418  0.1024 -0.0667 -0.0684
  901TIP3   OH224193   3.625   2.103  16.515 -0.3867  0.0881  0.1179
  901TIP3    H124194   3.585   2.139  16.436 -0.2314 -1.0081 -0.4697
  901TIP3    H224195   3.709   2.147  16.522  1.0420 -2.1754 -2.1762
  902TIP3   OH224196   5.345   0.968  12.980 -0.5950  0.0337  0.4116
  902TIP3    H124197   5.388   1.031  12.921  0.8600 -1.4844 -0.1957
  902TIP3    H224198   5.253   0.994  12.978 -0.3622  0.8647 -1.4778
  903TIP3   OH224199   4.481   4.349  12.472 -0.6237  0.0763  0.2395
  903TIP3    H124200   4.536   4.408  12.421  0.6414 -2.2421 -1.1354
  903TIP3    H224201   4.465   4.274  12.414 -1.3886 -1.3886  2.2745
  904TIP3   OH224202   4.264   6.110  10.612  0.1235 -0.5441  0.1302
  904TIP3    H124203   4.204   6.159  10.668  0.6287  2.0134 -1.5095
  904TIP3    H224204   4.218   6.102  10.528  1.0363 -0.7656 -0.3604
  905TIP3   OH224205   2.341   2.603  14.082 -0.2713  0.3268 -0.4769
  905TIP3    H124206   2.355   2.676  14.142 -0.1900  0.6086 -0.8359
  905TIP3    H224207   2.375   2.526  14.128 -0.4900  0.4915 -0.0370
  906TIP3   OH224208   0.950   2.698  15.388 -0.4079  0.3409  0.1680
  906TIP3    H124209   0.860   2.726  15.404 -0.3324  1.8355 -1.9412
  906TIP3    H224210   0.954   2.610  15.425 -2.3406  0.7712  1.4930
  907TIP3   OH224211   4.553   2.400  17.081 -0.7022 -0.1579  0.0555
  907TIP3    H124212   4.468   2.429  17.114  0.9985  0.7911  3.7931
  907TIP3    H224213   4.593   2.480  17.046 -0.2706 -0.0556  0.7722
  908TIP3   OH224214   1.870   3.521  16.791 -0.3507  0.0413 -0.1418
  908TIP3    H124215   1.824   3.519  16.875  0.0824  0.3059  0.1029
  908TIP3    H224216   1.934   3.451  16.797  0.2592  0.6139  0.0835
  909TIP3   OH224217   5.333   1.152   1.823 -0.4208  0.2374  0.0844
  909TIP3    H124218   5.347   1.234   1.870 -1.4378  0.7402 -0.4741
  909TIP3    H224219   5.372   1.167   1.737 -0.9391  0.2756 -0.1461
  910TIP3   OH224220   6.377   2.575  11.177  0.0023 -0.4778 -0.2421
  910TIP3    H124221   6.353   2.510  11.111 -1.3447 -1.4629  1.1815
  910TIP3    H224222   6.422   2.524  11.245  0.7613  0.4099 -0.0764
  911TIP3   OH224223   2.509   3.461  15.406 -0.2321 -0.5345  0.2763
  911TIP3    H124224   2.598   3.472  15.375 -0.6194 -0.1860 -0.7264
  911TIP3    H224225   2.510   3.379  15.456  0.8779  0.0040  1.1468
  912TIP3   OH224226   3.852   0.299  15.084 -0.2001  0.8496  0.1197
  912TIP3    H124227   3.782   0.296  15.019 -0.3158  1.7903  0.1923
  912TIP3    H224228   3.807   0.288  15.168 -0.1123  0.1688  0.0787
  913TIP3   OH224229   2.804   6.665  12.113 -0.1533 -0.1375  0.5103
  913TIP3    H124230   2.738   6.716  12.160 -1.2352 -0.8622 -0.2169
  913TIP3    H224231   2.792   6.575  12.143  0.8228 -0.2046  0.7323
  914TIP3   OH224232   3.657   4.238  17.119 -0.2303 -0.1215  0.2340
  914TIP3    H124233   3.703   4.297  17.179  0.4661 -0.5342  0.1243
  914TIP3    H224234   3.660   4.153  17.163 -0.5144 -0.2386  0.0264
  915TIP3   OH224235   3.667   0.385  16.048  0.1725 -0.2520  0.0173
  915TIP3    H124236   3.640   0.314  15.990 -0.1009 -1.0537  1.1261
  915TIP3    H224237   3.589   0.405  16.100  1.2164 -1.5063  2.1220
  916TIP3   OH224238   6.599   1.878  13.809  0.1636 -0.2560 -0.5009
  916TIP3    H124239   6.679   1.828  13.794 -0.4810 -0.9228 -1.7373
  916TIP3    H224240   6.529   1.819  13.784 -0.7701  0.0776  1.2069
  917TIP3   OH224241   6.622   6.166  16.848  0.4970 -0.7529  0.5030
  917TIP3    H124242   6.531   6.162  16.816 -0.1059 -2.4426  2.3031
  917TIP3    H224243   6.656   6.249  16.815 -0.9255 -1.2225 -2.2513
  918TIP3   OH224244   5.545   0.995   3.495 -0.1244 -0.2861 -1.1742
  918TIP3    H124245   5.517   0.951   3.576  1.0022 -1.6689 -1.5154
  918TIP3    H224246   5.544   0.926   3.429 -1.2377  0.8868 -2.4145
  919TIP3   OH224247   6.185   6.010   2.153 -0.0586  0.0938 -0.7476
  919TIP3    H124248   6.279   6.007   2.137  0.0373 -1.5514  0.0049
  919TIP3    H224249   6.175   5.978   2.243 -1.4785 -1.4129 -1.4245
  920TIP3   OH224250   5.525   1.264  13.941  0.0532 -0.0136  0.0932
  920TIP3    H124251   5.439   1.224  13.946 -0.0325  0.2412  0.6260
  920TIP3    H224252   5.508   1.358  13.935  0.2567 -0.0348 -1.0497
  921TIP3   OH224253   4.523   2.789   0.628 -0.4430 -0.1672  0.0259
  921TIP3    H124254   4.565   2.731   0.564  0.5920 -1.3186  1.7160
  921TIP3    H224255   4.593   2.844   0.661 -0.9054  0.1840  0.4379
  922TIP3   OH224256   3.671   4.062  16.437 -0.7699  0.2107  0.1260
  922TIP3    H124257   3.710   4.099  16.516 -1.0382 -0.3056  0.4969
  922TIP3    H224258   3.664   4.137  16.377  1.3358  0.2162 -0.1713
  923TIP3   OH224259   0.796   1.182  10.854  0.1041 -0.3053  0.0661
  923TIP3    H124260   0.710   1.209  10.821  0.6364  0.5332 -0.6774
  923TIP3    H224261   0.820   1.251  10.916 -0.8076 -1.7817  2.1243
  924TIP3   OH224262   0.563   4.642   6.109  0.8253 -0.1700 -0.0769
  924TIP3    H124263   0.614   4.604   6.180 -0.1604 -0.8163  0.3072
  924TIP3    H224264   0.488   4.584   6.100 -0.2449  1.1712 -0.0940
  925TIP3   OH224265   1.894   3.238  14.243 -0.1134 -0.1400 -0.5807
  925TIP3    H124266   1.815   3.198  14.278  0.3471 -0.8508 -0.3277
  925TIP3    H224267   1.863   3.312  14.191 -0.8188  0.8363  1.1727
  926TIP3   OH224268   4.103   6.404   1.749 -0.4975 -0.3396 -0.5038
  926TIP3    H124269   4.187   6.441   1.721  0.0099 -1.0788  0.0134
  926TIP3    H224270   4.050   6.480   1.772 -0.0208  0.1473 -0.9784
  927TIP3   OH224271   2.066   4.889  15.641 -0.0795  0.0627  0.4559
  927TIP3    H124272   2.153   4.925  15.626  0.6404 -1.1591  1.5810
  927TIP3    H224273   2.069   4.801  15.603 -0.1207 -0.7901  2.3274
  928TIP3   OH224274   5.613   4.551   2.102 -0.3853 -0.4613 -0.2785
  928TIP3    H124275   5.612   4.551   2.006  3.4135  1.6736 -0.4249
  928TIP3    H224276   5.683   4.490   2.125 -2.1652 -1.9591  1.1861
  929TIP3   OH224277   3.027   0.409   4.737  0.0805 -0.0564 -0.2421
  929TIP3    H124278   3.030   0.357   4.657 -2.7846 -1.4133  0.4855
  929TIP3    H224279   2.962   0.477   4.718  1.4269  1.3145 -0.0258
  930TIP3   OH224280   5.630   1.351   5.686 -0.2145  0.6605 -0.1267
  930TIP3    H124281   5.591   1.282   5.739  0.3408  2.1890  2.3685
  930TIP3    H224282   5.557   1.388   5.638 -0.8060 -0.5158 -0.1512
  931TIP3   OH224283   5.538   3.349   6.056 -0.4928  0.8550  0.0911
  931TIP3    H124284   5.510   3.283   5.992  0.2276  0.7977 -0.1710
  931TIP3    H224285   5.456   3.380   6.095 -0.8438 -0.2268  0.2537
  932TIP3   OH224286   5.660   1.621  13.589 -0.4444 -0.7007  0.4104
  932TIP3    H124287   5.722   1.558  13.553  0.4146  0.0844  0.5019
  932TIP3    H224288   5.582   1.611  13.534  1.4639  1.7678 -2.9375
  933TIP3   OH224289   5.775   0.454   0.933 -0.0176 -0.0800  0.8571
  933TIP3    H124290   5.803   0.446   1.024  1.9716  0.0871  0.2939
  933TIP3    H224291   5.777   0.364   0.899 -2.7148 -0.4111  1.5048
  934TIP3   OH224292   5.869   6.515   5.298  0.2055  0.5710  0.6347
  934TIP3    H124293   5.837   6.545   5.213  0.8923  0.8960  0.4849
  934TIP3    H224294   5.899   6.594   5.342 -0.2412  0.4177  1.2243
  935TIP3   OH224295   3.127   0.160   5.401  0.2195  0.1428 -0.2172
  935TIP3    H124296   3.187   0.164   5.475  0.0050 -0.4327 -0.0061
  935TIP3    H224297   3.065   0.231   5.416 -1.1828 -1.3423  1.3626
  936TIP3   OH224298   4.732   6.011  16.770  0.0351  0.6459  0.6315
  936TIP3    H124299   4.748   6.105  16.770  0.5481  0.5593 -0.5011
  936TIP3    H224300   4.688   5.994  16.687  1.5234 -0.3832  0.0467
  937TIP3   OH224301   2.737   5.167   6.029  0.0895  0.2755  0.0536
  937TIP3    H124302   2.778   5.099   6.082 -1.9691 -0.8626  0.2520
  937TIP3    H224303   2.682   5.215   6.091 -0.4750  0.4536 -0.5781
  938TIP3   OH224304   1.647   2.265  12.088  0.1336  0.0677  0.2310
  938TIP3    H124305   1.679   2.272  12.178 -4.0794  1.1459  1.7862
  938TIP3    H224306   1.666   2.174  12.063  0.1151 -0.6904  2.7834
  939TIP3   OH224307   4.040   2.031   1.335  0.6108  0.8637 -0.0393
  939TIP3    H124308   4.031   1.952   1.388 -1.0886 -0.0127 -1.5792
  939TIP3    H224309   4.133   2.035   1.314  0.8039 -0.4055  0.5307
  940TIP3   OH224310   3.541   2.204   5.944  0.4252  0.3338 -0.3100
  940TIP3    H124311   3.478   2.274   5.926 -0.5547 -0.3572  0.3771
  940TIP3    H224312   3.545   2.199   6.039  0.2720 -0.7268 -0.3542
  941TIP3   OH224313   2.528   4.977   5.183 -0.4773  0.9121  0.4101
  941TIP3    H124314   2.540   5.009   5.273 -0.2039  2.5513 -0.2035
  941TIP3    H224315   2.530   4.882   5.192 -1.0617  1.0431  2.2355
  942TIP3   OH224316   5.960   3.062   6.217  0.2991 -0.7150 -0.2842
  942TIP3    H124317   5.924   3.140   6.258 -0.6811  0.2335 -2.8578
  942TIP3    H224318   5.987   3.006   6.290 -0.0824  1.5032  1.5962
  943TIP3   OH224319   0.505   0.699  17.212  0.3155 -0.2851  0.0722
  943TIP3    H124320   0.563   0.669  17.282  1.5962 -0.9674 -1.2525
  943TIP3    H224321   0.417   0.681  17.244  0.8541  0.1031  1.8116
  944TIP3   OH224322   0.020   3.670  15.269 -0.8250 -0.3115  0.0478
  944TIP3    H124323  -0.043   3.738  15.243  0.0805  0.2250 -0.7724
  944TIP3    H224324  -0.030   3.589  15.266 -1.7073  0.2195  0.2439
  945TIP3   OH224325   0.404   1.445  17.024 -0.5806 -0.3863  0.1226
  945TIP3    H124326   0.466   1.514  17.002  1.7356 -1.4754  3.0297
  945TIP3    H224327   0.393   1.451  17.118 -2.0693 -2.5757  0.1241
  946TIP3   OH224328   5.869   5.975   5.052  0.2437 -0.6038 -0.3158
  946TIP3    H124329   5.881   6.061   5.012  0.7758 -0.4859  0.0949
  946TIP3    H224330   5.817   5.926   4.988  0.2149 -0.0848 -0.6926
  947TIP3   OH224331   0.919   4.770   0.043  0.0707  0.5681  0.3614
  947TIP3    H124332   0.904   4.830   0.116  2.2010  2.3750 -0.6111
  947TIP3    H224333   0.832   4.737   0.020 -1.3198  4.1066  0.2700
  948TIP3   OH224334   1.340   2.879   4.497  0.0783 -0.3105  0.6301
  948TIP3    H124335   1.403   2.823   4.543  1.9564 -0.7562 -2.3742
  948TIP3    H224336   1.278   2.817   4.457 -0.3799  0.0012  0.8468
  949TIP3   OH224337   2.653   6.071  12.416  0.2123 -0.8267  0.3610
  949TIP3    H124338   2.564   6.037  12.410  0.6546 -1.9307  0.0305
  949TIP3    H224339   2.709   5.994  12.405  1.2056 -0.1377  0.5726
  950TIP3   OH224340   5.199   1.343  14.113  0.2976  0.1218  0.1632
  950TIP3    H124341   5.212   1.272  14.050 -0.0302 -0.9472  1.2588
  950TIP3    H224342   5.142   1.304  14.180 -2.4140  2.3709 -0.7569
  951TIP3   OH224343   5.552   0.348   2.917  0.5000  0.3079  0.3816
  951TIP3    H124344   5.563   0.435   2.956  1.4210  1.0455 -1.4458
  951TIP3    H224345   5.512   0.365   2.831 -1.1148 -1.2322  0.8034
  952TIP3   OH224346   3.427   4.803  12.044 -0.0737  0.3849 -0.0551
  952TIP3    H124347   3.519   4.785  12.021 -0.4266 -0.4334 -0.8387
  952TIP3    H224348   3.376   4.760  11.976 -1.0608  0.5051  0.5981
  953TIP3   OH224349   4.319   3.563   0.695  0.9269 -0.0910 -0.1736
  953TIP3    H124350   4.296   3.596   0.608 -1.6531 -2.1241 -0.3261
  953TIP3    H224351   4.342   3.472   0.681  0.5829 -0.4112  1.2558
  954TIP3   OH224352   1.723   5.573  16.715  1.0697 -0.1783  0.4516
  954TIP3    H124353   1.649   5.554  16.773  0.5730 -0.7087 -0.3507
  954TIP3    H224354   1.787   5.505  16.736  0.0147 -1.7202 -1.1386
  955TIP3   OH224355   0.799   3.220   2.334  0.0268 -0.2024  0.3344
  955TIP3    H124356   0.800   3.133   2.373  1.3032 -0.4616 -0.2411
  955TIP3    H224357   0.806   3.280   2.408  0.5581 -0.6318  0.6320
  956TIP3   OH224358   2.483   3.614   1.501  0.1573 -0.1489 -0.8526
  956TIP3    H124359   2.560   3.631   1.446  1.1972 -1.6372  0.0860
  956TIP3    H224360   2.499   3.527   1.538 -1.7627 -0.2736 -0.2573
  957TIP3   OH224361   1.526   3.471   2.337  0.8472  0.1820 -0.1466
  957TIP3    H124362   1.588   3.434   2.275  0.7390 -0.0489 -0.1169
  957TIP3    H224363   1.516   3.562   2.309  1.3409  0.2710 -0.0390
  958TIP3   OH224364   4.937   1.169  12.034 -0.0000  0.3127  0.4219
  958TIP3    H124365   4.923   1.264  12.034 -0.9129  0.2028 -1.1637
  958TIP3    H224366   5.009   1.156  11.972  0.1910 -0.0214  0.7127
  959TIP3   OH224367   5.192   0.820  14.049 -0.2354 -0.5824 -0.3912
  959TIP3    H124368   5.122   0.818  14.114  0.3230  0.7645  0.2935
  959TIP3    H224369   5.240   0.739  14.063 -0.6822 -0.7406  0.2541
  960TIP3   OH224370   1.891   0.638   1.524 -0.6538 -0.4242 -0.2213
  960TIP3    H124371   1.911   0.551   1.558 -1.6575 -0.5007  0.1704
  960TIP3    H224372   1.822   0.672   1.581 -1.1237  0.1424 -1.1132
  961TIP3   OH224373   1.119   5.501  12.049  0.0451 -0.1749  0.3602
  961TIP3    H124374   1.072   5.448  12.114 -0.3762  1.7594  1.6871
  961TIP3    H224375   1.185   5.442  12.012  0.3122 -1.3015  2.5758
  962TIP3   OH224376   1.280   2.378   1.717 -0.3630 -0.2678  0.4021
  962TIP3    H124377   1.254   2.295   1.756 -0.5120 -0.7218 -0.6331
  962TIP3    H224378   1.250   2.372   1.626  0.2058  0.6578  0.1439
  963TIP3   OH224379   3.040   3.853  12.890  0.1257  0.2062  0.2947
  963TIP3    H124380   3.058   3.813  12.805 -0.1822 -0.8418  0.7138
  963TIP3    H224381   2.946   3.838  12.904  0.3060 -0.2188  1.1123
  964TIP3   OH224382   5.989   2.782  12.966 -0.0586  0.8502  0.0610
  964TIP3    H124383   5.950   2.821  12.888 -2.3386 -0.7335  0.3791
  964TIP3    H224384   6.036   2.705  12.933 -1.8306 -0.3687  0.3543
  965TIP3   OH224385   3.149   1.957   3.348  0.1875  0.5225  0.0582
  965TIP3    H124386   3.077   2.007   3.385 -1.0387 -1.9787  1.1852
  965TIP3    H224387   3.226   1.985   3.397 -0.2319  2.2168 -0.2275
  966TIP3   OH224388   1.125   5.074  12.736 -0.3058  0.3759 -0.7072
  966TIP3    H124389   1.154   4.989  12.702 -0.3241  0.1913 -0.2663
  966TIP3    H224390   1.151   5.073  12.828 -1.7886  0.1838 -0.2873
  967TIP3   OH224391   2.836   6.634  11.222 -0.1757 -0.2301  0.8039
  967TIP3    H124392   2.785   6.660  11.145  0.8063  1.4266  0.7072
  967TIP3    H224393   2.903   6.574  11.187 -0.6749 -0.6838  0.6100
  968TIP3   OH224394   3.233   0.632  13.935 -0.2125  0.0032  0.4144
  968TIP3    H124395   3.223   0.611  13.842 -1.6019 -2.1470  1.0086
  968TIP3    H224396   3.189   0.716  13.945  0.3485  0.4758 -0.9560
  969TIP3   OH224397   3.717   3.400  13.010 -0.4486 -0.7968  0.8865
  969TIP3    H124398   3.728   3.495  13.007 -1.9891 -0.5909  1.1685
  969TIP3    H224399   3.646   3.383  12.948  0.1692 -1.8247  0.4589
  970TIP3   OH224400   6.010   2.959   0.263 -0.0995  1.1322 -0.1004
  970TIP3    H124401   6.009   2.870   0.226 -1.2644  1.9184 -2.0553
  970TIP3    H224402   5.930   2.965   0.314 -0.7522  1.5058 -1.1442
  971TIP3   OH224403   0.066   1.627  15.385 -0.3693  0.3006 -0.0923
  971TIP3    H124404   0.006   1.685  15.430  0.7062  0.9473  0.5262
  971TIP3    H224405   0.122   1.685  15.334  0.5406 -0.1938  0.3245
  972TIP3   OH224406   2.927   3.980   6.180  0.5286 -0.3109 -0.1343
  972TIP3    H124407   2.943   3.964   6.273 -0.6421  1.2081  0.3496
  972TIP3    H224408   2.981   4.056   6.160 -0.0080 -0.0155 -0.4463
  973TIP3   OH224409   1.598   2.129  13.023  0.3361 -0.0108  0.5949
  973TIP3    H124410   1.632   2.213  12.991 -0.3110 -0.2073 -0.6272
  973TIP3    H224411   1.513   2.150  13.063  0.3665 -0.0253  0.6676
  974TIP3   OH224412   1.784   0.451  10.517 -0.0740  0.4605 -0.1082
  974TIP3    H124413   1.867   0.491  10.491 -0.2959  0.8489 -0.2191
  974TIP3    H224414   1.798   0.358  10.504  0.3546  0.5195 -0.1034
  975TIP3   OH224415   6.741   0.836  13.766 -0.1846 -0.1572 -0.1630
  975TIP3    H124416   6.829   0.797  13.758 -0.1859 -0.0103 -0.9094
  975TIP3    H224417   6.688   0.787  13.704 -0.3092  0.6890 -0.7285
  976TIP3   OH224418   6.582   2.780   4.293 -0.0209  0.7991 -0.5275
  976TIP3    H124419   6.657   2.817   4.246  0.4220 -0.2180 -0.6468
  976TIP3    H224420   6.505   2.814   4.247  0.2519  4.3187  1.4332
  977TIP3   OH224421   6.335   1.906  15.558 -0.4480 -0.0064  0.2661
  977TIP3    H124422   6.316   1.880  15.648  0.6439 -1.1505  0.1835
  977TIP3    H224423   6.298   1.835  15.505 -1.5809  0.9423 -0.2226
  978TIP3   OH224424   5.371   5.417  12.592  0.4654  0.2197  0.1939
  978TIP3    H124425   5.351   5.356  12.521 -0.6612 -1.9761  2.3214
  978TIP3    H224426   5.314   5.492  12.576 -0.5019 -0.6867 -0.6559
  979TIP3   OH224427   1.755   4.048  16.514 -0.5331  0.1092 -0.2144
  979TIP3    H124428   1.727   3.987  16.446 -0.1969  0.5858 -0.7828
  979TIP3    H224429   1.850   4.039  16.517 -0.5794 -0.1898  0.4647
  980TIP3   OH224430   0.292   6.629  11.915 -0.2140 -0.6150 -0.2619
  980TIP3    H124431   0.307   6.544  11.874  2.1979 -0.4759  0.2509
  980TIP3    H224432   0.379   6.669  11.919 -1.2804  1.7477 -0.2153
  981TIP3   OH224433   5.176   6.183  16.543  0.0197  0.1707  0.0489
  981TIP3    H124434   5.216   6.270  16.550  2.0328 -0.6079 -1.3220
  981TIP3    H224435   5.223   6.141  16.470 -0.0615 -2.5084  1.4732
  982TIP3   OH224436   4.107   4.517   2.573 -0.1839 -0.0976  0.2515
  982TIP3    H124437   4.170   4.512   2.502 -0.5628  0.1966 -0.1080
  982TIP3    H224438   4.029   4.472   2.540 -0.3024 -0.1132  0.5454
  983TIP3   OH224439   0.261   3.575   5.023 -0.3147 -0.2318 -0.3731
  983TIP3    H124440   0.301   3.660   5.006 -0.5834  0.7212  3.2795
  983TIP3    H224441   0.317   3.534   5.089 -1.1406 -2.1752 -0.8274
  984TIP3   OH224442   3.605   5.573  15.982  0.2548 -0.4559 -0.2350
  984TIP3    H124443   3.674   5.531  15.931  0.8452 -1.3111  1.2328
  984TIP3    H224444   3.652   5.622  16.050 -0.5520 -0.6143  0.4470
  985TIP3   OH224445   1.297   6.511   4.209 -0.0194  0.0251 -0.2539
  985TIP3    H124446   1.218   6.462   4.185  0.9304 -2.1356  0.8735
  985TIP3    H224447   1.287   6.527   4.303  0.0171  1.3987 -0.4771
  986TIP3   OH224448   3.465   0.157   2.678 -0.1764 -0.2393 -0.1698
  986TIP3    H124449   3.558   0.160   2.655 -0.2529  1.2820 -0.3380
  986TIP3    H224450   3.434   0.246   2.663 -1.8420 -0.9145 -0.8572
  987TIP3   OH224451   0.797   3.911  15.450  0.1594  0.4483 -0.3922
  987TIP3    H124452   0.717   3.938  15.405 -0.8710 -1.0392  0.4827
  987TIP3    H224453   0.831   3.838  15.398 -0.4466 -0.5658  0.5975
  988TIP3   OH224454   0.379   2.112   3.337  0.0148  0.2994  0.3398
  988TIP3    H124455   0.438   2.088   3.265  1.3484  0.6794  1.2986
  988TIP3    H224456   0.295   2.128   3.294  0.9840  1.2899 -1.2483
  989TIP3   OH224457   0.197   2.024  14.959 -0.1949 -0.3149 -0.0685
  989TIP3    H124458   0.289   1.998  14.961  0.0925  0.4771 -2.2982
  989TIP3    H224459   0.185   2.075  15.040  2.3434  2.8111 -1.5786
  990TIP3   OH224460   0.601   3.640  16.951  0.1312 -0.1905 -0.1862
  990TIP3    H124461   0.559   3.681  16.875 -0.7072 -2.5789 -1.0573
  990TIP3    H224462   0.666   3.582  16.913  1.2374  0.2295  1.0341
  991TIP3   OH224463   6.077   2.573  12.529  0.0061 -0.3795 -0.1247
  991TIP3    H124464   6.027   2.526  12.462 -0.6830  1.0757 -0.6521
  991TIP3    H224465   6.073   2.665  12.502  1.7553 -0.0660  0.6170
  992TIP3   OH224466   0.939   6.222  12.092 -0.2019  0.2333 -0.1023
  992TIP3    H124467   0.958   6.255  12.005 -0.0208  1.4034  0.3680
  992TIP3    H224468   0.923   6.301  12.145  0.9846 -0.3812  1.2164
  993TIP3   OH224469   4.228   2.038   0.710 -0.7479 -0.4755 -0.1149
  993TIP3    H124470   4.257   2.040   0.618 -0.7707  0.8805 -0.1115
  993TIP3    H224471   4.175   1.959   0.716 -0.2255 -0.9203 -1.1149
  994TIP3   OH224472   4.111   0.306  14.976  0.1124  0.2433  0.0072
  994TIP3    H124473   4.096   0.337  14.886  1.1578 -1.6552 -0.8569
  994TIP3    H224474   4.029   0.325  15.022  0.0835  2.5842 -0.9320
  995TIP3   OH224475   2.016   3.681   5.873  0.0169 -0.2348 -0.1269
  995TIP3    H124476   2.039   3.598   5.914  1.6945 -0.0487 -0.6509
  995TIP3    H224477   2.046   3.748   5.935 -0.6068  0.0064 -0.0743
  996TIP3   OH224478   6.781   2.412  11.153  0.3793  0.2899 -0.2373
  996TIP3    H124479   6.804   2.475  11.085 -0.1113  1.3822  0.5840
  996TIP3    H224480   6.728   2.462  11.215  0.1561 -0.8830  0.5430
  997TIP3   OH224481   5.402   4.117   4.990  0.6278  0.2878  0.0330
  997TIP3    H124482   5.337   4.136   5.058  1.6910 -0.0553  1.1760
  997TIP3    H224483   5.478   4.084   5.039  2.3988  2.5498 -1.0914
  998TIP3   OH224484   4.058   1.676  11.001 -0.3986  0.2289 -0.4369
  998TIP3    H124485   4.077   1.698  10.910  0.6793 -0.0378 -0.2909
  998TIP3    H224486   3.965   1.694  11.012 -0.3359  1.1535 -1.3397
  999TIP3   OH224487   0.717   1.765   5.598  0.6512  0.3661  0.1046
  999TIP3    H124488   0.781   1.736   5.664  0.1989 -1.1079 -0.0935
  999TIP3    H224489   0.746   1.723   5.517  0.8750  1.7163 -0.5227
 1000TIP3   OH224490   5.606   6.542   0.816  0.5744  0.2391  0.0610
 1000TIP3    H124491   5.541   6.612   0.826 -0.4178 -0.7252  0.5185
 1000TIP3    H224492   5.556   6.467   0.783  1.1641 -0.9517  1.7727
 1001TIP3   OH224493   5.880   0.311   3.039  0.0217  0.1941 -0.2109
 1001TIP3    H124494   5.891   0.216   3.035 -1.2334  0.0426 -0.2222
 1001TIP3    H224495   5.787   0.325   3.023  0.2714  1.4574 -0.6000
 1002TIP3   OH224496   5.921   3.334   1.926  0.3558  0.2871 -0.3455
 1002TIP3    H124497   5.933   3.374   1.840  0.1343  0.3337 -0.3552
 1002TIP3    H224498   5.920   3.407   1.987  2.1852  0.1392 -0.1173
 1003TIP3   OH224499   5.648   2.180   1.006  0.0846 -0.1442 -0.0132
 1003TIP3    H124500   5.681   2.253   1.059 -1.0647  0.2226  0.2232
 1003TIP3    H224501   5.643   2.107   1.067 -1.2224  0.2737  0.4123
 1004TIP3   OH224502   2.056   2.462  10.832 -0.5455 -0.2010 -0.4968
 1004TIP3    H124503   2.150   2.479  10.818 -0.5932 -0.8738 -1.7352
 1004TIP3    H224504   2.053   2.373  10.865 -0.5717  0.7715  2.2126
 1005TIP3   OH224505   0.979   3.279   1.120  0.0556 -0.6735  0.2910
 1005TIP3    H124506   1.074   3.266   1.122  0.1251 -0.0848  0.8203
 1005TIP3    H224507   0.956   3.298   1.211 -0.5010 -0.3127  0.0724
 1006TIP3   OH224508   4.863   1.785   5.420 -0.1062  0.0462 -0.1378
 1006TIP3    H124509   4.875   1.731   5.341  0.4685 -1.0266  0.6716
 1006TIP3    H224510   4.940   1.766   5.474 -0.8025  0.2938  0.9599
 1007TIP3   OH224511   4.492   0.455   4.601  0.1236  0.6331 -0.1333
 1007TIP3    H124512   4.577   0.491   4.625 -0.1801  1.8016 -0.8186
 1007TIP3    H224513   4.503   0.424   4.511  0.1592 -0.2802  0.1831
 1008TIP3   OH224514   0.949   3.555   6.089  0.4946  0.0352 -0.3586
 1008TIP3    H124515   0.875   3.498   6.067 -1.8520  2.3103  1.3288
 1008TIP3    H224516   0.938   3.632   6.032  0.8720  0.9079  0.7226
 1009TIP3   OH224517   4.354   2.333   2.225  0.1856  0.4257  0.0524
 1009TIP3    H124518   4.294   2.272   2.268 -0.3253  1.2097  0.4614
 1009TIP3    H224519   4.301   2.372   2.155  0.5051  0.4146 -0.1928
 1010TIP3   OH224520   6.281   5.359   0.746 -0.1677 -0.1877 -0.0824
 1010TIP3    H124521   6.234   5.415   0.684  0.5026  0.5104  0.0211
 1010TIP3    H224522   6.225   5.357   0.824 -0.0766  0.5730  0.0118
 1011TIP3   OH224523   3.870   6.793  10.812 -0.7040 -0.2357 -0.4155
 1011TIP3    H124524   3.845   6.880  10.780 -0.9328 -0.6519 -1.3618
 1011TIP3    H224525   3.824   6.732  10.755 -0.3165 -0.9855  0.0693
 1012TIP3   OH224526   5.824   2.044  16.013 -0.2165 -0.4120 -0.3062
 1012TIP3    H124527   5.894   1.996  16.057  0.8043 -0.2158 -1.6763
 1012TIP3    H224528   5.749   1.985  16.016 -0.1529 -0.4334  1.6028
 1013TIP3   OH224529   3.006   1.935  12.701  0.8807 -0.2793  0.4390
 1013TIP3    H124530   3.055   2.001  12.750  0.5942  1.3070 -1.3353
 1013TIP3    H224531   3.042   1.941  12.612 -0.5715 -1.0755 -0.2177
 1014TIP3   OH224532   4.509   5.184  11.768 -0.2695 -0.4523 -0.4548
 1014TIP3    H124533   4.459   5.200  11.689 -0.8368 -1.2264 -0.2645
 1014TIP3    H224534   4.451   5.209  11.840 -0.3182 -1.1741 -0.2391
 1015TIP3   OH224535   3.555   2.947  10.319  0.5866  0.4452  0.5839
 1015TIP3    H124536   3.507   2.865  10.331  0.3638  0.3149 -1.0354
 1015TIP3    H224537   3.646   2.920  10.305  1.0808  0.6667  3.1971
 1016TIP3   OH224538   4.988   3.057   5.551  0.8581  0.4729  0.3995
 1016TIP3    H124539   5.065   3.104   5.518  0.4734 -1.3717 -3.4241
 1016TIP3    H224540   4.916   3.118   5.536  0.9333  0.3144 -0.6897
 1017TIP3   OH224541   2.960   3.335   3.941 -0.1580 -0.4625  0.1346
 1017TIP3    H124542   3.006   3.281   3.877 -0.1844 -1.3876  0.8799
 1017TIP3    H224543   2.901   3.389   3.889  1.2592  0.2456 -0.7801
 1018TIP3   OH224544   0.989   1.899  17.209 -0.0831  0.0920 -0.2445
 1018TIP3    H124545   0.959   1.945  17.287 -0.8794 -0.0834 -0.4334
 1018TIP3    H224546   1.005   1.968  17.145 -0.3163  0.1805 -0.2097
 1019TIP3   OH224547   1.870   6.447  11.980  0.4487 -0.0048  0.4173
 1019TIP3    H124548   1.920   6.423  11.903 -1.1483  1.7311 -1.1947
 1019TIP3    H224549   1.927   6.507  12.029 -0.1482  2.2316 -1.5684
 1020TIP3   OH224550   1.320   2.963  15.466 -0.1495  0.7521 -0.0822
 1020TIP3    H124551   1.289   2.873  15.456 -1.9671  1.3113  0.3935
 1020TIP3    H224552   1.404   2.965  15.419  0.3824 -1.4371  0.7369
 1021TIP3   OH224553   3.703   0.091  11.515  0.0478  0.1979 -0.0166
 1021TIP3    H124554   3.635   0.137  11.565 -0.3198  0.5912 -0.8783
 1021TIP3    H224555   3.735   0.024  11.575 -0.3173  0.7403  0.7961
 1022TIP3   OH224556   3.873   2.967  17.204  0.3107 -0.1834 -0.3630
 1022TIP3    H124557   3.889   3.045  17.151 -0.0156 -0.1512 -0.4143
 1022TIP3    H224558   3.958   2.947  17.244  0.2701  0.5089  0.0793
 1023TIP3   OH224559   5.525   6.604  16.711  0.2395  0.5019  0.1036
 1023TIP3    H124560   5.482   6.675  16.665  1.5532  2.1334  1.2936
 1023TIP3    H224561   5.583   6.564  16.646 -2.0766 -0.9015 -1.1534
 1024TIP3   OH224562   4.788   4.673   0.214 -0.2907 -0.2903 -0.0427
 1024TIP3    H124563   4.733   4.613   0.164  0.5114 -1.1251  0.0590
 1024TIP3    H224564   4.873   4.628   0.219  0.2539  0.7605  0.2101
 1025TIP3   OH224565   0.169   0.262  12.459  0.6785  0.0257  0.1077
 1025TIP3    H124566   0.145   0.187  12.404  0.6059 -0.0208  0.2013
 1025TIP3    H224567   0.206   0.326  12.398 -2.4854  1.3499 -0.5259
 1026TIP3   OH224568   6.293   1.172   1.700  0.3889  0.4160  0.2287
 1026TIP3    H124569   6.330   1.118   1.771  1.3660 -0.7200 -1.1178
 1026TIP3    H224570   6.199   1.163   1.710  0.5230 -0.2305  1.0076
 1027TIP3   OH224571   0.384   6.703  13.153  0.3182 -0.1064  0.2250
 1027TIP3    H124572   0.395   6.608  13.157 -0.2109 -0.1502  0.6557
 1027TIP3    H224573   0.299   6.719  13.192  0.0652  0.4820 -0.5445
 1028TIP3   OH224574   2.236   2.707  13.311  0.2805  0.4938  0.2491
 1028TIP3    H124575   2.288   2.648  13.365  0.3060  1.1399  0.9383
 1028TIP3    H224576   2.190   2.763  13.373  0.6114  1.4992 -0.3987
 1029TIP3   OH224577   1.961   6.507  13.467  0.5295 -0.4377 -0.2885
 1029TIP3    H124578   1.903   6.573  13.505 -0.0234 -2.3212  2.2315
 1029TIP3    H224579   1.918   6.482  13.385 -0.8921  0.0639  0.2905
 1030TIP3   OH224580   6.674   2.566   5.671  0.2496  0.5881  0.3960
 1030TIP3    H124581   6.757   2.540   5.710  0.0333 -0.3172  0.2804
 1030TIP3    H224582   6.623   2.602   5.744  0.2583 -0.0720  0.7356
 1031TIP3   OH224583   6.486   5.628  12.843 -0.8841  0.0030 -0.6698
 1031TIP3    H124584   6.559   5.681  12.809 -0.5192 -0.7165 -1.0092
 1031TIP3    H224585   6.482   5.553  12.784 -2.8613  0.7795 -1.5470
 1032TIP3   OH224586   1.802   1.574  12.528  0.8128 -0.3958  0.0119
 1032TIP3    H124587   1.850   1.597  12.449  1.6920 -1.1890  0.3056
 1032TIP3    H224588   1.852   1.503  12.567 -0.4765 -1.0832  0.4535
 1033TIP3   OH224589   4.208   2.798   3.153  0.5350 -0.3019 -0.3683
 1033TIP3    H124590   4.282   2.796   3.215  1.0070 -0.3987 -0.9285
 1033TIP3    H224591   4.143   2.855   3.195  1.0041 -0.0663  0.0502
 1034TIP3   OH224592   3.438   5.997   1.278  0.2423  0.1363 -0.0445
 1034TIP3    H124593   3.395   5.992   1.192  0.2955  1.0233 -0.1266
 1034TIP3    H224594   3.474   5.910   1.291 -1.0613 -0.4455 -0.2493
 1035TIP3   OH224595   6.818   2.424   0.736  0.0238 -0.1478  0.4047
 1035TIP3    H124596   6.869   2.404   0.814  0.4266  0.3508  0.2728
 1035TIP3    H224597   6.757   2.351   0.728  3.1404 -2.6783 -1.5097
 1036TIP3   OH224598   2.558   4.491  13.204 -0.5168  0.2032 -0.4586
 1036TIP3    H124599   2.626   4.539  13.252  0.1459  0.1851 -1.3846
 1036TIP3    H224600   2.521   4.431  13.269  2.3350 -1.8666 -0.6937
 1037TIP3   OH224601   0.133   6.040  16.364  0.6230  0.2682  0.1233
 1037TIP3    H124602   0.220   6.075  16.384  1.5571 -2.6463  1.3199
 1037TIP3    H224603   0.127   6.044  16.269  2.2216  0.1156  0.0019
 1038TIP3   OH224604   6.118   1.137   1.330  0.2162 -0.1455  0.3469
 1038TIP3    H124605   6.187   1.079   1.362 -0.4834 -1.0041  0.3165
 1038TIP3    H224606   6.051   1.078   1.297 -1.4135  0.6028  2.2101
 1039TIP3   OH224607   0.072   3.378   2.377  0.3501 -0.8964 -0.0937
 1039TIP3    H124608   0.024   3.448   2.421  3.8946  1.6147 -0.0201
 1039TIP3    H224609   0.139   3.351   2.440  1.2438 -1.8942 -1.4406
 1040TIP3   OH224610   3.978   0.472  13.456 -0.5039  0.2669 -0.5123
 1040TIP3    H124611   3.979   0.565  13.434 -4.1120  0.7312  0.8290
 1040TIP3    H224612   3.936   0.430  13.382 -0.0648 -0.0984 -0.5525
 1041TIP3   OH224613   6.598   1.653   5.257 -0.2411  0.2059  0.9127
 1041TIP3    H124614   6.537   1.719   5.224 -2.6901 -2.0724  0.7649
 1041TIP3    H224615   6.595   1.582   5.193  1.8782 -0.3471  1.3820
 1042TIP3   OH224616   2.611   6.038  10.953 -0.6599 -0.4321  0.3217
 1042TIP3    H124617   2.569   6.085  10.881 -3.3432 -1.0380  1.4319
 1042TIP3    H224618   2.600   6.095  11.029 -0.5409 -1.1324  0.8688
 1043TIP3   OH224619   1.028   0.359   0.592 -0.1539 -0.3421 -0.9418
 1043TIP3    H124620   1.045   0.391   0.504 -3.5277  0.8709 -1.2233
 1043TIP3    H224621   0.987   0.273   0.579  0.2173 -0.5854 -0.5159
 1044TIP3   OH224622   5.057   3.511  14.859 -0.3806  0.2939 -0.1287
 1044TIP3    H124623   5.018   3.427  14.883 -1.2530  0.5038 -0.7948
 1044TIP3    H224624   5.124   3.489  14.794 -0.0281  0.0347  0.3137
 1045TIP3   OH224625   2.114   2.715  10.659 -0.6579 -0.0557 -0.0572
 1045TIP3    H124626   2.048   2.676  10.601 -1.1185  0.6041  0.0211
 1045TIP3    H224627   2.160   2.640  10.696 -2.3657 -0.5825  1.0574
 1046TIP3   OH224628   0.159   1.714   5.846 -0.1062  0.0595  0.3107
 1046TIP3    H124629   0.074   1.748   5.819 -0.0043  0.6599  0.7480
 1046TIP3    H224630   0.185   1.769   5.920  0.2222 -0.7281  0.7914
 1047TIP3   OH224631   6.764   4.823  16.829  0.4432 -0.3420  0.1161
 1047TIP3    H124632   6.834   4.888  16.829  1.0275 -0.9605  0.6274
 1047TIP3    H224633   6.808   4.740  16.850 -0.1298 -1.0901 -1.5701
 1048TIP3   OH224634   2.659   4.291  16.942 -0.3539  0.3112 -0.0495
 1048TIP3    H124635   2.641   4.197  16.941  2.1462 -0.2262 -0.1099
 1048TIP3    H224636   2.664   4.315  16.850  2.3596 -0.2642 -0.1014
 1049TIP3   OH224637   6.579   4.391   3.232  0.4817 -0.6535  0.8366
 1049TIP3    H124638   6.609   4.329   3.299  0.2949  1.3443  2.8507
 1049TIP3    H224639   6.643   4.462   3.235 -1.4431  1.1027  1.3989
 1050TIP3   OH224640   3.418   6.021   0.331 -0.4614  0.3791 -0.3969
 1050TIP3    H124641   3.329   6.032   0.297 -1.0478 -0.4688  0.8045
 1050TIP3    H224642   3.409   6.040   0.425  0.1333 -2.1001  0.1891
 1051TIP3   OH224643   6.626   4.091   5.554 -0.2255  0.2436 -0.0573
 1051TIP3    H124644   6.692   4.034   5.516  0.8023  1.9169 -0.8617
 1051TIP3    H224645   6.641   4.087   5.648  0.3399 -0.1937 -0.1684
 1052TIP3   OH224646   3.849   0.304  11.330 -0.3248 -0.3498 -0.2206
 1052TIP3    H124647   3.794   0.353  11.270 -1.1546 -2.5333 -1.3015
 1052TIP3    H224648   3.801   0.223  11.347  2.3582 -2.1745 -0.9314
 1053TIP3   OH224649   3.248   3.397  16.054  0.0809  0.0444  0.6242
 1053TIP3    H124650   3.165   3.446  16.046  0.1658 -0.0442 -1.1380
 1053TIP3    H224651   3.314   3.460  16.026  0.5230 -0.1454  1.2490
 1054TIP3   OH224652   6.378   4.521   3.710  0.4304  0.0108  0.0934
 1054TIP3    H124653   6.435   4.461   3.758 -1.6285 -2.4367 -0.4021
 1054TIP3    H224654   6.303   4.534   3.767  0.6999  1.9375  0.0576
 1055TIP3   OH224655   5.495   6.791  15.420 -0.0823  0.8184 -0.1062
 1055TIP3    H124656   5.400   6.800  15.411 -0.3790 -0.9690  0.8807
 1055TIP3    H224657   5.514   6.827  15.506 -0.0039  0.3432  0.0782
 1056TIP3   OH224658   6.008   3.091  16.500 -0.7303  0.2294 -0.0264
 1056TIP3    H124659   6.073   3.149  16.541 -0.3866  1.0082 -1.6358
 1056TIP3    H224660   6.051   3.057  16.422 -2.7637  2.0187 -2.0060
 1057TIP3   OH224661   0.618   0.997  11.124  0.0950  0.1849 -0.1332
 1057TIP3    H124662   0.699   1.048  11.126  0.0196  0.3988 -1.8261
 1057TIP3    H224663   0.550   1.061  11.101 -0.6003  0.0517  1.4820
 1058TIP3   OH224664   5.675   0.451  12.634 -0.6882 -0.0970 -0.1604
 1058TIP3    H124665   5.582   0.428  12.636 -0.6634 -0.3366 -1.3160
 1058TIP3    H224666   5.676   0.546  12.634 -0.8444 -0.0659  2.8289
 1059TIP3   OH224667   1.266   6.497  15.528 -0.2393  0.0911 -0.4843
 1059TIP3    H124668   1.207   6.422  15.521 -0.5439  0.0825  1.7296
 1059TIP3    H224669   1.226   6.564  15.473 -2.0778 -0.0910  0.5877
 1060TIP3   OH224670   0.775   0.299   0.231 -0.1303 -0.2828  0.0047
 1060TIP3    H124671   0.781   0.315   0.137 -0.1852  0.4719  0.1257
 1060TIP3    H224672   0.805   0.209   0.242  0.2060 -0.2586 -0.6923
 1061TIP3   OH224673   2.541   3.980   6.487  0.4917 -0.1890 -0.2936
 1061TIP3    H124674   2.583   4.012   6.407 -0.2457 -0.2428 -0.7059
 1061TIP3    H224675   2.451   4.012   6.482  0.1621 -1.0446  0.0251
 1062TIP3   OH224676   1.651   5.268   2.732  0.6244  0.1841 -0.0737
 1062TIP3    H124677   1.624   5.240   2.645  1.1772 -1.1689  0.1805
 1062TIP3    H224678   1.570   5.269   2.783  0.5586 -0.7326 -0.1520
 1063TIP3   OH224679   4.461   0.644   5.160 -0.1336 -0.7221  0.0967
 1063TIP3    H124680   4.537   0.592   5.184  0.0509 -0.2448  0.5534
 1063TIP3    H224681   4.386   0.587   5.179  0.0887 -1.0001  0.1379
 1064TIP3   OH224682   0.818   0.736   1.380 -0.0810  0.4751  0.4285
 1064TIP3    H124683   0.832   0.793   1.305 -2.4345 -0.9798 -1.1821
 1064TIP3    H224684   0.759   0.784   1.437  0.0351  0.7230  0.3390
 1065TIP3   OH224685   3.560   3.124  15.873 -0.5810 -0.1729 -0.3105
 1065TIP3    H124686   3.533   3.032  15.870 -0.3767 -0.1983 -1.6794
 1065TIP3    H224687   3.479   3.173  15.879 -0.7487 -0.4063 -0.6475
 1066TIP3   OH224688   3.776   4.907   5.784 -0.2111 -0.3224  0.2724
 1066TIP3    H124689   3.748   4.941   5.699 -0.5823 -2.0222 -0.3142
 1066TIP3    H224690   3.715   4.946   5.847 -0.8982 -0.2644 -0.4286
 1067TIP3   OH224691   5.872   2.231   4.647 -0.4653 -0.7967 -0.0702
 1067TIP3    H124692   5.922   2.299   4.602  1.2146 -1.8658  0.1304
 1067TIP3    H224693   5.841   2.174   4.576  1.0913 -1.7583 -0.0057
 1068TIP3   OH224694   1.697   6.634   5.969 -0.9825  0.1056 -0.6084
 1068TIP3    H124695   1.636   6.706   5.956 -0.9046  0.3561  0.3887
 1068TIP3    H224696   1.765   6.670   6.026 -1.7460 -1.1995  1.1459
 1069TIP3   OH224697   2.084   5.069  10.822  0.0031  0.0486  0.1387
 1069TIP3    H124698   2.141   5.026  10.885 -1.2357 -1.2748  0.3729
 1069TIP3    H224699   1.997   5.062  10.859 -0.2551  2.6921  0.1302
 1070TIP3   OH224700   6.010   0.509   4.751  0.6271  0.5133  0.4944
 1070TIP3    H124701   5.982   0.585   4.802  0.5442  0.6577  0.2354
 1070TIP3    H224702   5.933   0.486   4.699 -0.4451 -1.7665  2.9712
 1071TIP3   OH224703   4.816   3.166  14.660  0.4225  0.3046 -0.1339
 1071TIP3    H124704   4.881   3.121  14.715 -1.2943 -0.7799  1.0573
 1071TIP3    H224705   4.751   3.199  14.723  0.8327  3.1345 -1.1188
 1072TIP3   OH224706   6.251   4.048   0.160  0.3748  0.3566  0.5222
 1072TIP3    H124707   6.259   3.954   0.146 -1.9408  0.0641  0.9574
 1072TIP3    H224708   6.330   4.085   0.120  1.7716 -1.8273  1.1695
 1073TIP3   OH224709   4.178   3.420  16.955 -0.2352 -0.5125 -0.0074
 1073TIP3    H124710   4.137   3.426  16.868 -0.2815 -0.3722  0.0245
 1073TIP3    H224711   4.125   3.478  17.010  1.2540  1.3103 -0.4536
 1074TIP3   OH224712   6.817   0.145   3.037  0.1164  0.3464 -0.4234
 1074TIP3    H124713   6.730   0.121   3.005  0.2874 -0.0708 -0.5914
 1074TIP3    H224714   6.802   0.181   3.124 -0.1668 -0.2330 -0.2319
 1075TIP3   OH224715   2.495   2.995   0.457  0.4826  0.1660 -0.8180
 1075TIP3    H124716   2.434   3.014   0.385  0.4091  0.2969 -0.7211
 1075TIP3    H224717   2.440   2.953   0.524  0.0781  2.1713  0.1261
 1076TIP3   OH224718   3.930   6.350  13.606  0.6963  0.0049  0.6541
 1076TIP3    H124719   3.930   6.329  13.513 -2.9630  0.1421  0.5464
 1076TIP3    H224720   3.977   6.278  13.648  2.9310  0.2584 -1.2845
 1077TIP3   OH224721   3.962   0.248   2.463  0.2144  0.2032 -0.6054
 1077TIP3    H124722   3.961   0.168   2.411 -0.9996  0.6006 -1.2501
 1077TIP3    H224723   4.035   0.239   2.523 -0.5698 -1.8503  0.0585
 1078TIP3   OH224724   4.404   0.990  11.534  0.9897  0.4402 -0.0949
 1078TIP3    H124725   4.427   0.909  11.488 -0.5872  0.2051 -0.5047
 1078TIP3    H224726   4.415   0.969  11.626 -1.0389 -0.7953 -0.1083
 1079TIP3   OH224727   2.235   4.907   4.146 -0.0213  0.3883  0.2139
 1079TIP3    H124728   2.305   4.912   4.082  0.8665  2.1109  1.2875
 1079TIP3    H224729   2.208   4.998   4.160 -0.1833  0.0656  2.2689
 1080TIP3   OH224730   0.721   1.718  12.623 -0.4884  0.0081  0.3152
 1080TIP3    H124731   0.691   1.806  12.603  0.8206  0.6258  1.0394
 1080TIP3    H224732   0.728   1.675  12.538  0.2907  1.0622 -0.1560
 1081TIP3   OH224733   2.504   6.626  10.308 -0.2571  0.2185 -0.0482
 1081TIP3    H124734   2.538   6.537  10.297  0.4971  0.4873  0.0878
 1081TIP3    H224735   2.423   6.627  10.256  0.2147 -0.2698 -0.8080
 1082TIP3   OH224736   6.433   4.129   3.821 -0.1438  0.0615  0.5844
 1082TIP3    H124737   6.383   4.101   3.897 -1.7349 -0.9904 -0.8232
 1082TIP3    H224738   6.384   4.096   3.746 -0.9994  4.8004 -1.1186
 1083TIP3   OH224739   0.129   2.348   3.772  0.5561  0.0299 -0.2660
 1083TIP3    H124740   0.186   2.276   3.748 -2.6733 -2.1089 -1.7487
 1083TIP3    H224741   0.097   2.383   3.689 -0.4343  1.0730  0.5293
 1084TIP3   OH224742   3.442   3.778   2.886 -0.3161 -0.7070  0.2095
 1084TIP3    H124743   3.438   3.798   2.792 -3.3601 -1.9205  0.0280
 1084TIP3    H224744   3.479   3.857   2.926 -2.5830  1.3307 -1.5975
 1085TIP3   OH224745   2.389   0.897  15.578  0.3287 -0.2946 -0.4277
 1085TIP3    H124746   2.445   0.932  15.509 -1.9886  1.7257 -1.3895
 1085TIP3    H224747   2.312   0.863  15.532 -0.9334  0.4404  1.0621
 1086TIP3   OH224748   0.711   2.123   4.495 -0.3702 -0.3320 -0.2312
 1086TIP3    H124749   0.797   2.104   4.534  0.3840 -0.0306 -1.6922
 1086TIP3    H224750   0.730   2.188   4.428 -1.5699 -1.2263 -1.4583
 1087TIP3   OH224751   3.617   3.756  11.814  0.8085  0.2461  1.0155
 1087TIP3    H124752   3.666   3.835  11.795  1.0015 -0.2416 -0.6071
 1087TIP3    H224753   3.673   3.706  11.873  2.0756 -0.0959 -0.4489
 1088TIP3   OH224754   1.937   6.304   3.874 -0.0032 -0.6738  0.2986
 1088TIP3    H124755   1.942   6.235   3.808  0.2239  1.1005 -1.5972
 1088TIP3    H224756   1.851   6.294   3.914 -0.3781 -1.4089 -0.6878
 1089TIP3   OH224757   3.807   4.388   5.361  0.6882 -0.0356  0.4428
 1089TIP3    H124758   3.743   4.376   5.432 -2.4450  0.9620 -2.1239
 1089TIP3    H224759   3.854   4.305   5.358 -0.8339 -1.0067  2.0381
 1090TIP3   OH224760   6.322   0.150   1.749  0.2011  0.0144 -0.0756
 1090TIP3    H124761   6.350   0.065   1.784  0.2736  0.3281  0.6249
 1090TIP3    H224762   6.348   0.213   1.815  0.3541  0.6144 -0.7070
 1091TIP3   OH224763   0.624   2.938  13.102  0.3861 -0.3498  0.2572
 1091TIP3    H124764   0.683   2.885  13.155 -0.0240 -0.9571  0.1223
 1091TIP3    H224765   0.551   2.879  13.082  0.3633 -0.0248 -0.6716
 1092TIP3   OH224766   1.121   0.404  14.541  0.1773  0.0705 -0.1576
 1092TIP3    H124767   1.078   0.320  14.529  0.4736 -0.1608  0.4176
 1092TIP3    H224768   1.096   0.455  14.464 -2.7042  0.6037  1.0644
 1093TIP3   OH224769   5.638   3.220  15.673  0.4990 -0.2051  0.0198
 1093TIP3    H124770   5.547   3.225  15.645  0.1741 -1.3230  0.8677
 1093TIP3    H224771   5.678   3.300  15.638 -0.8962  0.4934  0.0059
 1094TIP3   OH224772   5.209   3.581   1.261 -0.2187 -0.3029 -0.1965
 1094TIP3    H124773   5.170   3.519   1.200  0.1162 -0.9013  0.1910
 1094TIP3    H224774   5.196   3.667   1.221 -0.1935 -0.6770 -1.0034
 1095TIP3   OH224775   2.295   4.363  15.422 -0.0741 -0.2050  0.2709
 1095TIP3    H124776   2.279   4.378  15.516 -0.2373 -0.3038  0.2600
 1095TIP3    H224777   2.222   4.407  15.379  1.2538  1.8643  0.0782
 1096TIP3   OH224778   3.191   1.942   3.669 -0.0664  0.2034  0.1132
 1096TIP3    H124779   3.168   1.859   3.711  1.4614  0.2253  1.0270
 1096TIP3    H224780   3.107   1.983   3.649 -0.8226 -0.9124  0.9762
 1097TIP3   OH224781   4.733   4.838   1.459 -0.0852 -0.4586  0.2503
 1097TIP3    H124782   4.674   4.888   1.516  1.5112 -0.2344  1.7291
 1097TIP3    H224783   4.732   4.749   1.495 -0.4928 -0.7473 -0.4779
 1098TIP3   OH224784   2.644   0.154   5.356 -0.2641 -0.3763 -0.0607
 1098TIP3    H124785   2.575   0.200   5.405 -0.1699 -0.4391  0.1316
 1098TIP3    H224786   2.631   0.062   5.378  1.1944 -0.2058  1.6667
 1099TIP3   OH224787   0.643   3.274   4.902 -0.3561  0.2168 -0.4461
 1099TIP3    H124788   0.597   3.276   4.819  1.3716 -0.2871 -1.4382
 1099TIP3    H224789   0.721   3.328   4.889 -0.4962  0.8363  1.1026
 1100TIP3   OH224790   5.408   2.517   5.697 -0.0775 -0.4889 -0.0911
 1100TIP3    H124791   5.391   2.607   5.671  1.9825 -0.1887 -0.5104
 1100TIP3    H224792   5.411   2.520   5.793  3.3702  0.6126 -0.1590
 1101TIP3   OH224793   1.195   4.858  15.785  0.0155  0.0386  0.3997
 1101TIP3    H124794   1.180   4.783  15.841  0.5537 -0.7658 -0.5143
 1101TIP3    H224795   1.261   4.910  15.831 -0.8933  0.3304  1.3787
 1102TIP3   OH224796   2.627   4.807   1.452 -0.0324 -0.0015  0.0609
 1102TIP3    H124797   2.711   4.771   1.422  0.1786  1.0720 -0.6552
 1102TIP3    H224798   2.562   4.760   1.401  0.1966  0.0144 -0.2502
 1103TIP3   OH224799   4.275   2.199  12.959  0.1852 -1.1408 -0.0539
 1103TIP3    H124800   4.314   2.152  12.885 -1.5300 -1.5063 -0.7717
 1103TIP3    H224801   4.214   2.261  12.918  1.4357  0.7999  0.9411
 1104TIP3   OH224802   4.320   5.725  16.964 -0.1613  0.3056  0.1507
 1104TIP3    H124803   4.289   5.680  16.886 -1.8405  0.2441  0.8286
 1104TIP3    H224804   4.356   5.656  17.019 -0.1652  0.1784 -0.0053
 1105TIP3   OH224805   4.774   3.988   0.600 -0.0614 -0.2097 -0.1847
 1105TIP3    H124806   4.755   3.970   0.508  0.3206 -1.9705  0.0720
 1105TIP3    H224807   4.771   3.903   0.643  0.4812  0.5013  1.3098
 1106TIP3   OH224808   1.006   2.015   3.728  0.0685  0.1806 -0.1604
 1106TIP3    H124809   0.921   2.005   3.686  0.3471  0.8497 -0.9176
 1106TIP3    H224810   1.052   2.079   3.673  0.8659  0.2120  0.5292
 1107TIP3   OH224811   0.195   2.427  12.047 -0.5194  0.0768 -0.2372
 1107TIP3    H124812   0.110   2.434  12.091 -0.5210 -1.5141  0.0251
 1107TIP3    H224813   0.250   2.492  12.091 -1.5009  0.8785 -0.1851
 1108TIP3   OH224814   0.499   3.877  11.973 -0.3153  0.5563 -0.2870
 1108TIP3    H124815   0.460   3.965  11.971  3.8211  2.4827 -1.6968
 1108TIP3    H224816   0.576   3.887  12.030  2.0347 -1.2804 -3.0264
 1109TIP3   OH224817   3.253   3.035   4.318  0.4354 -0.7566  0.2025
 1109TIP3    H124818   3.298   3.119   4.329  2.3702 -1.7837  0.3499
 1109TIP3    H224819   3.177   3.055   4.264  1.0436  1.0269 -0.0190
 1110TIP3   OH224820   3.863   2.408   5.404  0.4513 -0.2568  0.1132
 1110TIP3    H124821   3.918   2.342   5.362  1.4193  0.9037 -0.4705
 1110TIP3    H224822   3.924   2.476   5.431 -0.7918  1.4818 -1.3424
 1111TIP3   OH224823   2.685   5.975  13.638  0.1416  0.5551 -0.1358
 1111TIP3    H124824   2.764   5.921  13.632  0.2722  0.3850  2.5105
 1111TIP3    H224825   2.676   6.014  13.551  1.2821 -1.9901 -1.4353
 1112TIP3   OH224826   3.698   3.251   5.156 -0.5130 -0.8210  0.0377
 1112TIP3    H124827   3.607   3.236   5.181 -0.3857 -1.6261  0.0298
 1112TIP3    H224828   3.725   3.326   5.208 -2.4726  2.2275 -3.0537
 1113TIP3   OH224829   3.971   4.732  12.929 -0.3007  0.0031  0.1623
 1113TIP3    H124830   3.962   4.735  12.833 -0.5993 -0.7832  0.1591
 1113TIP3    H224831   3.910   4.663  12.956 -0.3359  0.3345  0.9356
 1114TIP3   OH224832   2.625   5.414   5.297  0.2181  0.1458 -0.1525
 1114TIP3    H124833   2.549   5.359   5.280 -1.0143  1.1221  1.9146
 1114TIP3    H224834   2.589   5.501   5.313  1.6712  0.4774  1.6008
 1115TIP3   OH224835   2.128   5.408  15.697 -0.0975  0.8242  0.2557
 1115TIP3    H124836   2.075   5.329  15.685  1.7823 -0.4433  0.1068
 1115TIP3    H224837   2.123   5.426  15.791 -2.0602  1.6642  0.0307
 1116TIP3   OH224838   0.549   4.320  14.215 -0.3195  0.4536  0.6803
 1116TIP3    H124839   0.601   4.401  14.219 -0.5291  0.5550  1.3982
 1116TIP3    H224840   0.515   4.309  14.304  0.3252 -0.8288  0.7752
 1117TIP3   OH224841   3.642   0.659   4.593  0.0389 -0.0282  0.5466
 1117TIP3    H124842   3.737   0.664   4.585  0.2121  0.3637  2.6283
 1117TIP3    H224843   3.610   0.677   4.504  1.8891 -0.4215 -0.2349
 1118TIP3   OH224844   4.656   2.121  16.316  0.1750  0.4835 -0.3131
 1118TIP3    H124845   4.562   2.139  16.321  0.3395  0.9167  1.9110
 1118TIP3    H224846   4.692   2.196  16.268 -0.3278  1.5601  0.9473
 1119TIP3   OH224847   1.820   5.941  15.873 -0.3867 -0.6588  0.1544
 1119TIP3    H124848   1.781   6.001  15.809 -1.1497 -0.6324  0.6357
 1119TIP3    H224849   1.830   5.994  15.952  2.5022 -0.0880 -0.5341
 1120TIP3   OH224850   4.894   4.237  15.754 -0.4057  0.4271  0.0925
 1120TIP3    H124851   4.987   4.213  15.747 -0.6453 -0.9534  1.5450
 1120TIP3    H224852   4.893   4.332  15.742  1.1617  0.4161 -0.2255
 1121TIP3   OH224853   3.913   6.734  11.904  0.1286  0.2334  0.7250
 1121TIP3    H124854   3.855   6.740  11.980 -0.9320  1.1499 -0.1324
 1121TIP3    H224855   3.954   6.821  11.899  0.3751  0.0964  0.3886
 1122TIP3   OH224856   2.917   6.703   0.345  0.1128  0.3972  0.2406
 1122TIP3    H124857   2.915   6.694   0.440 -1.0353  0.7222  0.2504
 1122TIP3    H224858   2.827   6.722   0.320  0.6966  2.0157 -0.7386
 1123TIP3   OH224859   3.448   5.541   5.129  0.2641 -0.3160  0.3867
 1123TIP3    H124860   3.453   5.524   5.223  0.4976 -0.7973  0.2923
 1123TIP3    H224861   3.448   5.636   5.121 -1.4319 -0.2414  0.9707
 1124TIP3   OH224862   3.507   0.228   1.055  0.4716 -0.2788 -0.0222
 1124TIP3    H124863   3.559   0.154   1.087  0.2152 -0.3539  0.2279
 1124TIP3    H224864   3.486   0.205   0.965  2.0843  0.4115 -0.6011
 1125TIP3   OH224865   4.158   4.146  12.342 -0.8328  0.3886 -0.2684
 1125TIP3    H124866   4.121   4.064  12.309  0.8096 -0.1372 -0.8800
 1125TIP3    H224867   4.244   4.152  12.300  0.6857  0.4822  2.7344
 1126TIP3   OH224868   5.458   1.778   2.984 -0.5382  0.3702  0.3155
 1126TIP3    H124869   5.400   1.788   2.909 -0.5540  1.4731  0.4644
 1126TIP3    H224870   5.399   1.751   3.056 -0.8372  1.2425  0.4061
 1127TIP3   OH224871   0.108   0.849   2.557 -0.3301 -0.1544 -0.0717
 1127TIP3    H124872   0.048   0.800   2.613  0.3552  2.3768  3.0307
 1127TIP3    H224873   0.177   0.879   2.617 -0.1772  3.6220 -2.0288
 1128TIP3   OH224874   5.137   5.765   0.425 -0.7079  0.1494  0.4197
 1128TIP3    H124875   5.143   5.812   0.508  0.8166  0.9544 -0.1405
 1128TIP3    H224876   5.181   5.682   0.441 -0.7016  0.1697  0.5050
 1129TIP3   OH224877   5.503   5.708   1.524 -0.5563 -0.5689  0.3824
 1129TIP3    H124878   5.479   5.667   1.607 -1.0984 -0.7079  0.1518
 1129TIP3    H224879   5.482   5.801   1.537 -1.1202 -0.6747  0.2146
 1130TIP3   OH224880   3.282   6.285  15.821  1.1317  0.7245  0.1720
 1130TIP3    H124881   3.252   6.367  15.782  1.9374  0.4370 -1.0872
 1130TIP3    H224882   3.377   6.286  15.807  1.1583 -0.3492  0.2906
 1131TIP3   OH224883   5.277   2.599  16.922 -0.2904 -0.1420 -0.1014
 1131TIP3    H124884   5.369   2.609  16.899 -0.1048  0.0023  0.7012
 1131TIP3    H224885   5.271   2.630  17.012 -1.2822  0.6365 -0.4261
 1132TIP3   OH224886   6.020   0.995  13.801 -0.0896 -0.0051 -0.3326
 1132TIP3    H124887   6.058   0.907  13.795  0.0263  0.1652 -2.2752
 1132TIP3    H224888   5.938   0.982  13.849  1.0773 -0.7818  1.5259
 1133TIP3   OH224889   4.293   6.188   1.761 -0.2510 -0.1291 -0.1227
 1133TIP3    H124890   4.231   6.260   1.771 -2.3134 -1.9212  0.2509
 1133TIP3    H224891   4.313   6.186   1.668  0.1709  1.1837 -0.0732
 1134TIP3   OH224892   5.326   0.149   5.493  0.7239  0.0329  0.1145
 1134TIP3    H124893   5.347   0.058   5.471  2.1599  0.3112  0.3108
 1134TIP3    H224894   5.311   0.148   5.588  1.4073  0.1206  0.2256
 1135TIP3   OH224895   6.197   3.450   1.963  0.5335 -0.1979  0.0519
 1135TIP3    H124896   6.281   3.463   2.008  0.5517  1.6840 -0.4605
 1135TIP3    H224897   6.205   3.364   1.921  2.1387 -0.1188  0.1668
 1136TIP3   OH224898   4.982   1.520   2.716  0.6774  0.7272 -0.1309
 1136TIP3    H124899   4.983   1.519   2.812  0.6190 -2.4680 -0.1145
 1136TIP3    H224900   5.065   1.479   2.691  0.3536  0.8666 -1.4604
 1137TIP3   OH224901   3.690   3.545  15.146 -0.1375 -0.5023 -0.1038
 1137TIP3    H124902   3.750   3.540  15.220 -1.5235  2.9340  1.3142
 1137TIP3    H224903   3.603   3.536  15.184 -0.8542  0.9400 -1.3620
 1138TIP3   OH224904   2.460   6.396   3.561  0.6772 -0.0227  0.3408
 1138TIP3    H124905   2.405   6.333   3.515 -1.6521  3.5973 -2.0991
 1138TIP3    H224906   2.409   6.420   3.639  0.2821  0.8791 -0.1894
 1139TIP3   OH224907   1.986   1.162   6.135 -0.5714  0.7908 -0.0986
 1139TIP3    H124908   2.023   1.238   6.180  0.0550 -0.2777  1.2425
 1139TIP3    H224909   2.063   1.111   6.107 -0.9918 -0.3623  0.8069
 1140TIP3   OH224910   1.616   1.554  13.046  0.1119 -0.0905  0.2560
 1140TIP3    H124911   1.613   1.555  13.142 -0.8018 -0.5411  0.2386
 1140TIP3    H224912   1.525   1.561  13.019  0.3645  0.0118 -0.5889
 1141TIP3   OH224913   3.521   2.050  13.166  0.1230 -0.0769  0.4379
 1141TIP3    H124914   3.497   2.139  13.139 -0.9004 -0.6925 -0.6857
 1141TIP3    H224915   3.471   2.036  13.247  0.8163  0.6074  1.0041
 1142TIP3   OH224916   1.970   3.077  10.365  0.6455  0.3068 -0.0546
 1142TIP3    H124917   1.980   2.982  10.364  0.8349  0.3048  0.9866
 1142TIP3    H224918   2.060   3.110  10.365  0.5797  0.4994 -0.8088
 1143TIP3   OH224919   4.969   1.093  13.436 -0.5275  0.5231 -0.2610
 1143TIP3    H124920   5.042   1.146  13.403 -0.1709 -0.0282 -0.3651
 1143TIP3    H224921   4.963   1.114  13.529  0.6255 -0.4335  0.0327
 1144TIP3   OH224922   4.419   4.535  15.185 -0.3597  0.1414  0.1332
 1144TIP3    H124923   4.402   4.491  15.102 -3.1366 -0.8759  1.1969
 1144TIP3    H224924   4.430   4.464  15.248 -0.4199  0.9252  1.0367
 1145TIP3   OH224925   1.735   4.253   3.805  0.6070 -0.3084 -0.2852
 1145TIP3    H124926   1.690   4.337   3.818  0.0294 -0.6375 -0.1733
 1145TIP3    H224927   1.738   4.214   3.892  0.6477 -0.5255 -0.3842
 1146TIP3   OH224928   5.776   4.485   0.118  0.0519 -0.4153 -0.2540
 1146TIP3    H124929   5.742   4.425   0.050 -1.5773 -1.0639  1.1004
 1146TIP3    H224930   5.830   4.429   0.173 -0.2365 -0.3093  0.1334
 1147TIP3   OH224931   2.572   4.829  15.806  0.0445 -0.1460 -0.3906
 1147TIP3    H124932   2.556   4.735  15.803 -0.0245 -0.1369 -0.2811
 1147TIP3    H224933   2.562   4.852  15.898  0.1454 -0.0469 -0.4046
 1148TIP3   OH224934   2.335   5.535   3.036 -0.3175 -0.0922  0.0256
 1148TIP3    H124935   2.294   5.589   3.104 -0.6114 -0.0113 -0.2125
 1148TIP3    H224936   2.402   5.485   3.082 -0.7979 -0.3499  0.4565
 1149TIP3   OH224937   2.349   2.275  13.715  0.2698 -0.4006 -0.1667
 1149TIP3    H124938   2.287   2.236  13.654  1.2257  0.9524 -2.0656
 1149TIP3    H224939   2.295   2.319  13.780 -0.7878 -2.8673  0.6675
 1150TIP3   OH224940   1.232   5.890  15.924  0.3937  0.3682 -0.4344
 1150TIP3    H124941   1.283   5.864  15.847 -1.1414  1.0300 -1.7031
 1150TIP3    H224942   1.291   5.875  15.998  1.6819 -0.8478 -1.6793
 1151TIP3   OH224943   6.483   3.626   1.458 -0.2440 -0.8244 -0.3768
 1151TIP3    H124944   6.551   3.694   1.461 -0.6791 -0.4655  1.5338
 1151TIP3    H224945   6.522   3.556   1.405  0.2287  0.8841 -2.3413
 1152TIP3   OH224946   1.159   6.227   1.267 -0.4676  0.2408  0.0687
 1152TIP3    H124947   1.151   6.221   1.172  1.5209  0.1343 -0.0972
 1152TIP3    H224948   1.069   6.218   1.298 -0.9063 -2.0253 -1.6713
 1153TIP3   OH224949   6.294   3.722  14.695  0.4227  0.4474  0.2061
 1153TIP3    H124950   6.315   3.630  14.678 -2.5142 -0.3483  0.6497
 1153TIP3    H224951   6.248   3.722  14.778 -0.6439  2.1972 -0.3470
 1154TIP3   OH224952   0.787   0.552  12.002 -0.1185 -0.5798  0.3930
 1154TIP3    H124953   0.818   0.475  12.048 -0.5697  0.0173  1.7468
 1154TIP3    H224954   0.722   0.591  12.062  1.7469  2.0847  0.7629
 1155TIP3   OH224955   5.275   1.577  16.241  0.0225 -0.5820 -0.1050
 1155TIP3    H124956   5.285   1.605  16.333  0.4622 -1.3051  0.0719
 1155TIP3    H224957   5.180   1.571  16.228 -0.0655  0.4392  0.0216
 1156TIP3   OH224958   5.013   1.686   6.113  0.2956 -0.0752 -0.4565
 1156TIP3    H124959   5.011   1.600   6.071  0.9542  0.9361 -2.6331
 1156TIP3    H224960   5.059   1.671   6.196 -0.1757 -1.9358 -0.5142
 1157TIP3   OH224961   4.281   1.530  14.737 -0.5490 -0.0501  0.2251
 1157TIP3    H124962   4.239   1.454  14.697  0.4098 -1.2681  1.5000
 1157TIP3    H224963   4.317   1.497  14.820 -0.0447  1.7644  0.7449
 1158TIP3   OH224964   4.274   6.451  17.188  0.1846 -0.2293  0.5476
 1158TIP3    H124965   4.323   6.460  17.106  0.3740 -0.7071  0.6044
 1158TIP3    H224966   4.225   6.370  17.178  0.1464 -0.2489  0.8779
 1159TIP3   OH224967   0.068   6.000  16.665 -0.2352  0.0587  0.0639
 1159TIP3    H124968   0.096   5.952  16.587 -0.7380  0.2062 -0.2117
 1159TIP3    H224969   0.070   5.935  16.735 -1.7231 -0.5936 -0.4729
 1160TIP3   OH224970   5.895   3.160   3.495 -0.2128 -0.0388  0.9983
 1160TIP3    H124971   5.814   3.162   3.546 -0.7895  0.6857  0.0669
 1160TIP3    H224972   5.946   3.089   3.533 -0.9162  0.0777  2.1599
 1161TIP3   OH224973   2.567   5.473  10.947  0.1950 -0.4496 -0.7068
 1161TIP3    H124974   2.616   5.553  10.925  1.8315 -1.3709 -0.5284
 1161TIP3    H224975   2.480   5.487  10.909 -0.0619  2.0971  0.7048
 1162TIP3   OH224976   4.119   4.571  15.301  0.1858 -0.7321  0.0632
 1162TIP3    H124977   4.147   4.652  15.258  1.9250 -0.0910  2.2961
 1162TIP3    H224978   4.192   4.510  15.287 -0.6395 -1.5689 -0.6518
 1163TIP3   OH224979   2.816   2.255  12.047  0.1200 -0.4529 -0.3176
 1163TIP3    H124980   2.726   2.229  12.029  0.0438 -2.0509  2.0791
 1163TIP3    H224981   2.869   2.198  11.991 -0.3105 -0.0497 -1.1458
 1164TIP3   OH224982   0.756   1.441   2.284 -0.3236  0.1434  0.3736
 1164TIP3    H124983   0.794   1.499   2.218  0.1541 -1.1872 -0.5449
 1164TIP3    H224984   0.723   1.366   2.235 -1.5207 -0.0830  1.4756
 1165TIP3   OH224985   5.741   5.955   1.708 -0.5820  0.1326  0.6659
 1165TIP3    H124986   5.720   6.039   1.667  0.3992 -0.4048 -1.0110
 1165TIP3    H224987   5.764   5.898   1.634  0.9328 -0.9684  1.9499
 1166TIP3   OH224988   4.912   6.600  12.531  0.3477 -0.4597 -0.4196
 1166TIP3    H124989   4.946   6.513  12.551  1.2814 -0.4012 -1.6697
 1166TIP3    H224990   4.947   6.656  12.600  2.4317 -0.4928 -1.4172
 1167TIP3   OH224991   2.087   1.186  12.850 -0.5776  0.6047  0.1657
 1167TIP3    H124992   2.154   1.131  12.892  1.6650  2.2623 -1.1027
 1167TIP3    H224993   2.012   1.128  12.838  0.6427 -1.3352  1.5779
 1168TIP3   OH224994   2.130   1.261   5.026  0.4020  0.1245  0.5090
 1168TIP3    H124995   2.070   1.334   5.015  0.3432 -0.1751 -1.2967
 1168TIP3    H224996   2.080   1.184   4.999  0.7702 -0.4690  1.4773
 1169TIP3   OH224997   6.392   2.375   0.082  0.3971 -0.0936  0.8324
 1169TIP3    H124998   6.476   2.363   0.125  1.0953 -0.3998 -0.6226
 1169TIP3    H224999   6.374   2.292   0.038 -0.0317  0.4234  0.0217
 1170TIP3   OH225000   2.935   1.491  12.391  0.2628  0.0738  0.0845
 1170TIP3    H125001   2.930   1.523  12.481 -1.7033  3.0549 -0.9718
 1170TIP3    H225002   2.843   1.484  12.363  0.8417  1.1161 -2.2469
 1171TIP3   OH225003   1.519   6.119  14.900 -0.5190 -0.2715 -0.2312
 1171TIP3    H125004   1.521   6.029  14.869 -2.5023 -0.4105 -0.0329
 1171TIP3    H225005   1.611   6.143  14.912  0.0942 -1.7137 -1.8590
 1172TIP3   OH225006   0.562   3.783   1.998  0.0770  0.1297 -0.7700
 1172TIP3    H125007   0.515   3.710   1.958 -1.2197 -0.6099  2.0123
 1172TIP3    H225008   0.506   3.859   1.981 -1.1201 -0.3978  0.6719
 1173TIP3   OH225009   5.637   3.871   2.708 -0.2813  0.2451  0.1237
 1173TIP3    H125010   5.629   3.796   2.649  1.3904  0.5354 -0.5093
 1173TIP3    H225011   5.611   3.946   2.655 -0.5868  0.2893  0.3336
 1174TIP3   OH225012   2.207   0.178  11.928 -0.2475 -0.0246 -0.0763
 1174TIP3    H125013   2.138   0.112  11.937 -1.6375  1.0463 -2.3567
 1174TIP3    H225014   2.289   0.127  11.924 -0.9251 -1.3391  1.9825
 1175TIP3   OH225015   2.219   1.272  17.075  0.5186 -0.2112 -0.5900
 1175TIP3    H125016   2.249   1.183  17.090  1.2486 -0.2032 -1.9552
 1175TIP3    H225017   2.295   1.326  17.094  0.2859  0.0748 -0.4622
 1176TIP3   OH225018   2.016   3.673   2.793 -0.1095 -0.2748  0.1713
 1176TIP3    H125019   1.937   3.704   2.748 -0.0236 -0.9592 -0.4481
 1176TIP3    H225020   2.017   3.722   2.875 -0.3172  0.9240 -0.5242
 1177TIP3   OH225021   2.061   0.382   3.016 -0.1836 -0.1160  0.0545
 1177TIP3    H125022   1.986   0.402   2.959 -0.2894 -1.4133 -0.2773
 1177TIP3    H225023   2.073   0.287   3.007  0.4545 -0.1721  1.3941
 1178TIP3   OH225024   5.335   4.767  14.635 -0.1361 -0.4382  0.2145
 1178TIP3    H125025   5.243   4.751  14.615 -0.2697 -0.4315  0.8351
 1178TIP3    H225026   5.335   4.804  14.723  0.4084  0.1863 -0.0382
 1179TIP3   OH225027   6.374   3.147  16.218 -0.1859  0.3044 -0.2731
 1179TIP3    H125028   6.426   3.071  16.192 -0.3671  0.0405  0.1205
 1179TIP3    H225029   6.363   3.137  16.312  0.8166  1.4693 -0.0242
 1180TIP3   OH225030   6.287   4.260   5.945  1.0953  0.2622  0.4930
 1180TIP3    H125031   6.229   4.325   5.985 -0.9668  0.3438 -2.4880
 1180TIP3    H225032   6.230   4.186   5.924  2.0107  0.2891 -2.3536
 1181TIP3   OH225033   5.019   1.891  13.326  0.0199  0.2123 -0.1639
 1181TIP3    H125034   4.951   1.848  13.378  0.3593  0.1231  0.2060
 1181TIP3    H225035   4.971   1.949  13.267 -0.3585  0.3933  0.3204
 1182TIP3   OH225036   6.643   6.124  13.598 -0.5029  0.2750  0.1542
 1182TIP3    H125037   6.728   6.153  13.565 -1.0989  1.6465 -0.2511
 1182TIP3    H225038   6.602   6.082  13.522  0.1944 -1.2776  0.6267
 1183TIP3   OH225039   5.540   3.864  15.418 -0.3902  0.0711  0.5445
 1183TIP3    H125040   5.552   3.917  15.339  0.9325 -0.9475  0.0438
 1183TIP3    H225041   5.609   3.894  15.477 -0.0460 -0.6323  0.5045
 1184TIP3   OH225042   2.108   5.936   5.756 -0.4525 -0.1948 -0.2689
 1184TIP3    H125043   2.170   5.864   5.766 -0.5054 -0.7698 -3.6003
 1184TIP3    H225044   2.161   6.015   5.770  0.3734 -0.7599 -0.1420
 1185TIP3   OH225045   0.594   2.972   1.005 -0.4059 -0.2588  0.6723
 1185TIP3    H125046   0.613   3.058   0.968 -0.9918  0.2135  1.4560
 1185TIP3    H225047   0.578   2.988   1.098  0.5466 -1.3655  1.0423
 1186TIP3   OH225048   4.051   2.054   5.455 -0.6361 -0.1025  0.1138
 1186TIP3    H125049   3.957   2.037   5.460 -0.6526 -0.5368 -1.4384
 1186TIP3    H225050   4.076   2.078   5.544 -2.5434  1.7168  0.1926
 1187TIP3   OH225051   6.476   4.126  12.453 -0.4936  0.4604  0.2809
 1187TIP3    H125052   6.525   4.071  12.514  0.5289  0.2158 -0.7495
 1187TIP3    H225053   6.506   4.215  12.473 -0.2741  0.3966  0.2373
 1188TIP3   OH225054   4.007   0.219   4.127 -0.4934  0.4022 -0.3860
 1188TIP3    H125055   3.988   0.307   4.157 -0.4185  0.2018  0.2489
 1188TIP3    H225056   3.939   0.164   4.167  0.8272 -0.1760  1.1208
 1189TIP3   OH225057   5.689   2.428  15.634  0.2842 -0.1182 -0.0214
 1189TIP3    H125058   5.699   2.472  15.718  1.7503 -1.0397  0.3158
 1189TIP3    H225059   5.613   2.371  15.644 -0.5714  1.0456  0.1065
 1190TIP3   OH225060   2.811   6.768  12.530 -0.1429 -0.1411  0.3085
 1190TIP3    H125061   2.870   6.837  12.498  0.9663 -1.0376  0.4303
 1190TIP3    H225062   2.741   6.766  12.465  0.0157  0.8301  0.0892
 1191TIP3   OH225063   1.518   2.677  17.051 -0.0477 -0.6567 -0.1591
 1191TIP3    H125064   1.458   2.673  16.976 -0.9040  2.9152  0.2606
 1191TIP3    H225065   1.467   2.643  17.125 -1.3871  1.7246  0.0607
 1192TIP3   OH225066   4.454   1.341   0.124  0.2800  0.0121 -0.4637
 1192TIP3    H125067   4.380   1.322   0.182  0.2530  1.1762 -0.1018
 1192TIP3    H225068   4.493   1.255   0.106 -0.0204 -0.4106  0.8613
 1193TIP3   OH225069   1.057   2.389  12.612  0.2954 -0.1299  0.5457
 1193TIP3    H125070   1.087   2.475  12.641  0.9047 -0.1120 -0.1234
 1193TIP3    H225071   0.962   2.393  12.621  0.2144  1.0556 -0.6578
 1194TIP3   OH225072   5.978   3.045  11.675 -0.0127 -0.0311 -0.8524
 1194TIP3    H125073   6.064   3.086  11.666 -0.8180  1.7924 -0.5572
 1194TIP3    H225074   5.996   2.957  11.708  1.4825  2.0644  4.4134
 1195TIP3   OH225075   3.585   2.607  12.212  0.4458  0.2214 -0.1797
 1195TIP3    H125076   3.577   2.590  12.306  2.0376 -0.3237 -0.1295
 1195TIP3    H225077   3.598   2.520  12.173 -2.6050  0.1449 -1.2188
 1196TIP3   OH225078   2.650   2.227   2.523 -0.3433 -0.3680  0.0180
 1196TIP3    H125079   2.720   2.247   2.585  0.5172 -1.3404 -0.6303
 1196TIP3    H225080   2.632   2.311   2.480  0.4223 -0.1091  0.1916
 1197TIP3   OH225081   4.916   2.388  11.789 -0.4110 -0.2838  0.2188
 1197TIP3    H125082   4.907   2.452  11.718 -1.9563 -0.0042  0.6321
 1197TIP3    H225083   4.996   2.413  11.834 -0.1446  0.3807 -0.6019
 1198TIP3   OH225084   6.555   2.758   2.518  0.0221  0.0465  0.1698
 1198TIP3    H125085   6.476   2.710   2.543 -0.9183  0.4437 -1.9602
 1198TIP3    H225086   6.526   2.849   2.509  1.7501  1.0608  3.9609
 1199TIP3   OH225087   2.789   3.710  15.300  0.6391 -0.9486 -0.0502
 1199TIP3    H125088   2.853   3.752  15.357  0.6100 -0.7573 -0.1568
 1199TIP3    H225089   2.709   3.761  15.312 -0.0168 -2.2880  1.4600
 1200TIP3   OH225090   0.787   6.198  15.794  0.4519  0.0134 -0.1623
 1200TIP3    H125091   0.784   6.136  15.867  0.0921 -0.0776 -0.2519
 1200TIP3    H225092   0.748   6.150  15.721 -0.1858  0.4795 -0.1310
 1201TIP3   OH225093   4.837   6.430  13.148 -0.5922 -0.5282 -0.0903
 1201TIP3    H125094   4.755   6.400  13.108 -0.3288 -1.3029 -0.0591
 1201TIP3    H225095   4.867   6.354  13.199 -0.0817 -0.0970  0.2546
 1202TIP3   OH225096   4.622   4.512  15.460 -0.2293  0.0048 -0.7712
 1202TIP3    H125097   4.674   4.506  15.379  0.4342  0.0681 -0.3578
 1202TIP3    H225098   4.670   4.575  15.514 -0.3065 -0.5392 -0.0638
 1203TIP3   OH225099   5.800   6.567  13.429 -0.0536 -0.0038  0.6842
 1203TIP3    H125100   5.733   6.501  13.441  0.7400 -1.2082 -1.2905
 1203TIP3    H225101   5.751   6.649  13.416 -1.3024 -1.2572 -3.2626
 1204TIP3   OH225102   0.068   1.515  15.086 -0.6194 -0.3654 -0.0797
 1204TIP3    H125103   0.053   1.609  15.076  1.0754  0.0567  0.9310
 1204TIP3    H225104   0.095   1.485  14.999 -0.8593  0.1452 -0.3300
 1205TIP3   OH225105   3.121   5.776   0.241 -0.2904  0.3256  0.1159
 1205TIP3    H125106   3.026   5.774   0.229 -0.3322  0.5732  0.3849
 1205TIP3    H225107   3.147   5.861   0.205 -0.5677  1.6082  2.7720
 1206TIP3   OH225108   3.408   4.379   0.516 -0.2956 -0.2221 -0.0535
 1206TIP3    H125109   3.384   4.289   0.493 -0.7669 -0.3781  1.0437
 1206TIP3    H225110   3.420   4.377   0.611  1.9365  0.3594 -0.2951
 1207TIP3   OH225111   5.998   0.475  12.689 -0.8669  0.3081 -0.5161
 1207TIP3    H125112   5.910   0.437  12.682 -0.8435 -0.3739  2.1192
 1207TIP3    H225113   5.984   0.559  12.732 -0.1120 -0.5664  1.5238
 1208TIP3   OH225114   4.647   3.665   2.594  0.1639 -0.5514  0.4012
 1208TIP3    H125115   4.676   3.642   2.506  0.4983  2.0480 -0.2139
 1208TIP3    H225116   4.551   3.671   2.587  0.1751 -0.5267  0.2658
 1209TIP3   OH225117   3.523   5.824   0.782 -0.2008  0.1306 -0.2731
 1209TIP3    H125118   3.565   5.848   0.864 -0.8119 -1.1540  0.4309
 1209TIP3    H225119   3.447   5.772   0.808 -2.3928  2.6008 -1.5022
 1210TIP3   OH225120   4.759   6.016   1.637 -0.4354 -0.3175  0.4069
 1210TIP3    H125121   4.677   5.998   1.591 -0.4518  0.8720 -0.0437
 1210TIP3    H225122   4.826   5.971   1.585 -0.7210 -0.8063  0.4552
 1211TIP3   OH225123   2.968   4.199  12.665  0.4153 -0.0358 -0.2812
 1211TIP3    H125124   3.011   4.120  12.631 -1.4330 -0.3396 -1.9806
 1211TIP3    H225125   2.901   4.166  12.725  1.8447  0.4085  1.6381
 1212TIP3   OH225126   6.235   2.832  13.140 -0.0564  0.2510  0.0402
 1212TIP3    H125127   6.196   2.918  13.157  1.2095  0.6497  1.0548
 1212TIP3    H225128   6.178   2.792  13.074 -2.6072  0.4789  2.0336
 1213TIP3   OH225129   1.187   2.796   5.851 -0.3975  0.1291  0.2869
 1213TIP3    H125130   1.092   2.782   5.854 -0.5249  0.8686 -0.2294
 1213TIP3    H225131   1.224   2.710   5.869 -1.1661  0.0742  1.6701
 1214TIP3   OH225132   4.243   4.114   1.003 -0.2196  0.1038 -0.0627
 1214TIP3    H125133   4.330   4.144   1.030 -0.7363  1.0193  0.6188
 1214TIP3    H225134   4.250   4.019   0.999  1.9007  0.2943 -3.6897
 1215TIP3   OH225135   4.839   6.488   1.115 -0.3588 -0.4870 -0.0922
 1215TIP3    H125136   4.761   6.470   1.062  1.0982  0.8914 -2.8136
 1215TIP3    H225137   4.866   6.402   1.147 -2.2931 -1.1427 -0.1298
 1216TIP3   OH225138   4.425   6.548   5.582 -0.1376 -0.4544 -0.2978
 1216TIP3    H125139   4.480   6.515   5.511 -0.0978 -0.2454 -0.3621
 1216TIP3    H225140   4.384   6.627   5.547  0.4728  0.0762  0.1675
 1217TIP3   OH225141   4.903   5.208  16.970  0.5509  0.0080  0.2432
 1217TIP3    H125142   4.915   5.289  17.019  1.6891  0.0220 -0.0571
 1217TIP3    H225143   4.933   5.228  16.882  0.1132 -0.5229 -0.0292
 1218TIP3   OH225144   5.249   3.975  12.718  0.3822 -0.0708 -1.0330
 1218TIP3    H125145   5.230   3.883  12.734 -0.8527  0.5642  1.2658
 1218TIP3    H225146   5.164   4.017  12.709  0.9061  1.0067 -1.1526
 1219TIP3   OH225147   4.389   3.672  15.186  0.1662 -0.3740  0.3547
 1219TIP3    H125148   4.484   3.683  15.179  0.3305 -0.9395  1.5516
 1219TIP3    H225149   4.377   3.583  15.219 -0.7631 -0.1135  0.7407
 1220TIP3   OH225150   3.750   6.670  15.000  0.7059 -0.1208  0.3383
 1220TIP3    H125151   3.814   6.604  15.027  0.6420 -0.6527 -0.7737
 1220TIP3    H225152   3.735   6.652  14.907 -1.5839 -0.4504  0.7246
 1221TIP3   OH225153   3.813   6.422   5.479 -0.2718  0.2228 -0.2515
 1221TIP3    H125154   3.848   6.450   5.563  0.4269 -1.0271 -0.1149
 1221TIP3    H225155   3.833   6.494   5.419  2.3497 -0.3871 -0.1259
 1222TIP3   OH225156   2.024   4.015  10.731 -0.2570  0.2887 -0.4600
 1222TIP3    H125157   1.940   4.045  10.765 -1.5942 -2.5042 -1.1925
 1222TIP3    H225158   2.043   3.935  10.781  1.0103 -0.1886 -1.6762
 1223TIP3   OH225159   2.197   0.188   0.930  0.0906 -0.4057  0.8066
 1223TIP3    H125160   2.199   0.227   0.843  0.6403 -0.9500  0.5725
 1223TIP3    H225161   2.288   0.188   0.959 -0.1236  0.0042  1.4836
 1224TIP3   OH225162   2.513   5.233  16.131 -0.4974  0.1929  0.1352
 1224TIP3    H125163   2.431   5.249  16.084 -0.9227 -1.0508  0.4392
 1224TIP3    H225164   2.488   5.233  16.223  0.0195  0.7449  0.2807
 1225TIP3   OH225165   1.457   5.470  12.149  0.0026  0.0946  0.0229
 1225TIP3    H125166   1.458   5.562  12.176 -2.0119  0.4224 -0.9210
 1225TIP3    H225167   1.536   5.432  12.189 -0.4092  1.6506  2.4186
 1226TIP3   OH225168   6.424   2.805   3.594  0.3568 -0.2679 -0.1263
 1226TIP3    H125169   6.337   2.775   3.619 -0.4004  2.4666  0.7612
 1226TIP3    H225170   6.411   2.847   3.509  0.8433 -0.0009 -0.0695
 1227TIP3   OH225171   4.847   2.334  11.390 -0.1392  0.5159  0.0206
 1227TIP3    H125172   4.789   2.281  11.446 -0.0144  2.9451  2.5539
 1227TIP3    H225173   4.799   2.415  11.376  1.4528  1.4267 -0.2602
 1228TIP3   OH225174   4.882   6.079  11.492 -0.5334 -0.1942 -0.1906
 1228TIP3    H125175   4.927   6.086  11.408 -0.3272  0.3337 -0.0366
 1228TIP3    H225176   4.903   6.160  11.538 -1.8278  0.1670 -0.1991
 1229TIP3   OH225177   4.014   0.599  16.122  0.2227 -0.1163 -0.2473
 1229TIP3    H125178   4.013   0.551  16.204  1.5880 -1.4819 -0.9993
 1229TIP3    H225179   4.106   0.620  16.108 -0.1535  1.2136 -0.7939
 1230TIP3   OH225180   2.909   2.069  13.591 -0.2438  0.0911  0.1859
 1230TIP3    H125181   2.878   2.133  13.655 -3.8243 -0.3413 -1.0550
 1230TIP3    H225182   2.894   1.984  13.632 -0.8466 -0.1274 -0.4838
 1231TIP3   OH225183   5.350   6.369  14.641  0.3065 -0.0773 -0.3291
 1231TIP3    H125184   5.261   6.354  14.675 -0.0478  0.0117 -1.1853
 1231TIP3    H225185   5.402   6.391  14.718  0.0735 -2.3109  0.5061
 1232TIP3   OH225186   0.690   5.169  14.545 -0.0390 -0.1614 -0.0023
 1232TIP3    H125187   0.643   5.234  14.598  0.3372  0.9487 -1.0088
 1232TIP3    H225188   0.622   5.110  14.513 -0.4035 -0.1836  0.8097
 1233TIP3   OH225189   4.810   4.008  15.085 -0.3048 -0.4845  0.4518
 1233TIP3    H125190   4.888   3.965  15.048 -0.8843  0.1346 -1.5727
 1233TIP3    H225191   4.745   3.938  15.091 -0.2116 -0.5873  0.2801
 1234TIP3   OH225192   4.317   6.581   5.864  0.1780 -0.5205 -0.8567
 1234TIP3    H125193   4.339   6.604   5.773  0.9232 -0.3934 -0.6431
 1234TIP3    H225194   4.366   6.501   5.880 -0.1995 -0.7131 -0.6609
 1235TIP3   OH225195   1.957   0.876   2.034  0.7007 -0.8261 -0.2947
 1235TIP3    H125196   2.026   0.921   1.985  1.1381 -0.9535  0.2027
 1235TIP3    H225197   2.003   0.826   2.101  0.0423  0.3259  1.0449
 1236TIP3   OH225198   6.757   1.060   0.727  0.2635 -0.5414  0.4367
 1236TIP3    H125199   6.669   1.069   0.693 -0.3341  0.2576  2.1504
 1236TIP3    H225200   6.785   0.973   0.698  0.4158  0.7370 -3.4318
 1237TIP3   OH225201   0.023   6.776  15.404 -0.4671  0.3112  0.3661
 1237TIP3    H125202   0.035   6.821  15.320 -2.1326  1.5057  0.7374
 1237TIP3    H225203  -0.005   6.687  15.380 -1.0595  0.6873 -0.3329
 1238TIP3   OH225204   3.846   0.249  15.429 -0.0338 -0.4506 -0.0089
 1238TIP3    H125205   3.884   0.249  15.517 -1.9844  0.2872  0.8587
 1238TIP3    H225206   3.797   0.167  15.424 -0.1980 -0.3360 -0.2828
 1239TIP3   OH225207   1.949   6.605   0.785 -0.5085 -0.3563  0.3552
 1239TIP3    H125208   1.987   6.521   0.810 -1.3481 -0.6446  0.6824
 1239TIP3    H225209   1.945   6.602   0.689  2.3695  0.6046  0.1495
 1240TIP3   OH225210   4.021   2.392  11.305  0.0552  0.0636 -0.3766
 1240TIP3    H125211   4.060   2.329  11.245  0.9148  0.4549 -0.2328
 1240TIP3    H225212   4.082   2.396  11.379 -1.4304 -1.1249  0.9816
 1241TIP3   OH225213   0.537   2.438   0.694  0.0590  0.4540  0.1700
 1241TIP3    H125214   0.462   2.425   0.635  0.0342  0.2539  0.2472
 1241TIP3    H225215   0.497   2.462   0.778 -0.0621 -2.6117  1.0649
 1242TIP3   OH225216   6.749   2.553   0.501  0.6337  0.0703 -0.0005
 1242TIP3    H125217   6.727   2.646   0.509 -0.8390 -0.2705  0.0916
 1242TIP3    H225218   6.784   2.528   0.587  0.2934  0.3506  0.2192
 1243TIP3   OH225219   0.659   4.615  14.235 -0.2505  0.1551  0.1011
 1243TIP3    H125220   0.569   4.620  14.204 -0.0985 -0.4144 -0.4436
 1243TIP3    H225221   0.652   4.590  14.327 -0.6412  0.0500  0.0443
 1244TIP3   OH225222   2.725   1.299  17.223 -0.4855  0.2748  0.1174
 1244TIP3    H125223   2.685   1.334  17.302 -0.9070  0.2645 -0.0915
 1244TIP3    H225224   2.770   1.219  17.251 -2.1588 -0.7199  0.0104
 1245TIP3   OH225225   1.403   5.662   4.037 -0.0793 -0.4915 -0.3905
 1245TIP3    H125226   1.440   5.689   3.953 -1.4233 -2.3073 -1.5898
 1245TIP3    H225227   1.396   5.743   4.087  1.8617  0.4451 -1.5630
 1246TIP3   OH225228   2.576   0.110  16.540  0.0227  1.1956 -0.2982
 1246TIP3    H125229   2.627   0.176  16.492  1.1710  1.1498  0.8118
 1246TIP3    H225230   2.594   0.129  16.632  2.5845 -2.3184  0.0416
 1247TIP3   OH225231   2.415   0.914   0.207 -0.0179  0.3922 -0.0382
 1247TIP3    H125232   2.337   0.914   0.151 -0.2411  0.1628  0.2670
 1247TIP3    H225233   2.426   1.005   0.233 -0.6027  0.3143  0.4886
 1248TIP3   OH225234   6.426   1.832  15.278  0.0070 -0.6132  0.2727
 1248TIP3    H125235   6.344   1.788  15.253  1.3549 -2.3626 -1.2715
 1248TIP3    H225236   6.450   1.883  15.201  0.0792  0.3704  0.9382
 1249TIP3   OH225237   4.461   0.293   5.667  0.1733 -0.0444 -0.0518
 1249TIP3    H125238   4.385   0.298   5.726 -0.4786 -0.0132 -0.8849
 1249TIP3    H225239   4.434   0.341   5.589  0.9131 -0.3719 -0.5117
 1250TIP3   OH225240   2.922   0.548   2.064 -0.4689  0.0024 -0.2802
 1250TIP3    H125241   2.845   0.604   2.062 -0.9253 -0.6012  0.3931
 1250TIP3    H225242   2.890   0.463   2.094  0.3546 -0.4124 -0.5494
 1251TIP3   OH225243   4.495   0.683   4.792  0.0767  0.1671 -0.4727
 1251TIP3    H125244   4.438   0.607   4.807 -0.0170  0.1138 -1.0989
 1251TIP3    H225245   4.483   0.705   4.699 -0.2062  1.1979 -0.2058
 1252TIP3   OH225246   1.879   1.060   3.192 -0.0665  0.0325 -0.1947
 1252TIP3    H125247   1.816   1.005   3.238 -0.3828  0.6123  0.0647
 1252TIP3    H225248   1.927   0.999   3.135  0.8199 -0.8129  1.4255
 1253TIP3   OH225249   0.674   3.376  13.504  0.1388 -0.1812 -0.4312
 1253TIP3    H125250   0.678   3.421  13.419  0.6414  0.4607 -0.0822
 1253TIP3    H225251   0.743   3.418  13.556 -0.4933 -0.2245  0.4587
 1254TIP3   OH225252   4.723   1.589   1.833 -0.1698  0.3832 -0.2427
 1254TIP3    H125253   4.710   1.683   1.847 -0.2718  0.0446  2.0901
 1254TIP3    H225254   4.635   1.555   1.815 -0.2322  0.6108 -0.3746
 1255TIP3   OH225255   2.012   1.726   3.166  0.5677 -0.4293 -0.2784
 1255TIP3    H125256   1.942   1.681   3.119  0.6039 -0.1706 -0.5890
 1255TIP3    H225257   2.087   1.721   3.106  1.9511 -4.0171  1.5996
 1256TIP3   OH225258   6.724   2.594  13.119  0.1919 -0.4045 -0.0099
 1256TIP3    H125259   6.643   2.545  13.106  0.1327 -0.7068  1.4566
 1256TIP3    H225260   6.695   2.681  13.148  0.3231  0.3219 -1.9310
 1257TIP3   OH225261   4.968   0.319   3.959  0.0493  0.2677 -0.1041
 1257TIP3    H125262   4.893   0.297   4.014  0.2820 -1.2703 -0.3575
 1257TIP3    H225263   4.945   0.285   3.873  0.2990  1.3747 -0.6119
 1258TIP3   OH225264   3.021   0.239  13.459  0.5674  0.3463 -1.0428
 1258TIP3    H125265   2.945   0.195  13.421 -0.4077  0.5455  0.6656
 1258TIP3    H225266   3.056   0.177  13.523 -0.0211  1.5232  0.4241
 1259TIP3   OH225267   0.552   6.119  16.904 -0.6001 -0.9169 -0.3955
 1259TIP3    H125268   0.488   6.050  16.886 -1.7410  0.3467 -1.3970
 1259TIP3    H225269   0.500   6.200  16.900  0.0215 -0.1776  4.0870
 1260TIP3   OH225270   4.866   6.451  15.078  0.2522 -0.2776  0.7503
 1260TIP3    H125271   4.866   6.481  15.169  0.8311 -0.0976  0.6893
 1260TIP3    H225272   4.788   6.492  15.039 -0.0781 -0.4766  1.2010
 1261TIP3   OH225273   2.607   6.734  12.318  0.3965  0.4465 -0.5181
 1261TIP3    H125274   2.555   6.667  12.361  1.0977 -0.1842 -0.6278
 1261TIP3    H225275   2.549   6.809  12.309 -0.0803  0.1996  0.5283
 1262TIP3   OH225276   6.196   4.052  14.674  0.0653 -0.0308 -0.1179
 1262TIP3    H125277   6.200   4.014  14.586  0.4408  0.4120 -0.2919
 1262TIP3    H225278   6.113   4.020  14.710  0.9237 -1.9716  0.1941
 1263TIP3   OH225279   4.963   4.906   2.798 -0.5422 -0.6741  0.3786
 1263TIP3    H125280   5.001   4.923   2.712  0.3398 -0.0250  0.8834
 1263TIP3    H225281   5.014   4.833   2.833 -0.2109 -0.2655  0.7655
 1264TIP3   OH225282   4.885   4.677   1.837 -0.4055 -0.0034 -0.4576
 1264TIP3    H125283   4.845   4.607   1.785 -1.4692 -1.2376  1.9694
 1264TIP3    H225284   4.820   4.699   1.903  0.6094  2.0999 -0.1296
 1265TIP3   OH225285   3.290   1.430  12.814 -0.4287 -0.2370 -0.3450
 1265TIP3    H125286   3.225   1.499  12.803 -0.4133 -0.2091 -0.2648
 1265TIP3    H225287   3.335   1.452  12.896 -0.7500 -0.6071 -0.0653
 1266TIP3   OH225288   4.496   0.693   3.147 -0.0972  0.4302 -0.1593
 1266TIP3    H125289   4.444   0.757   3.194 -2.5054 -1.8589  0.4586
 1266TIP3    H225290   4.460   0.693   3.058 -0.7854 -0.7104  0.1002
 1267TIP3   OH225291   4.294   4.024   1.513  0.0744 -0.3536 -1.0243
 1267TIP3    H125292   4.288   3.950   1.574 -1.3081 -0.8504 -1.7483
 1267TIP3    H225293   4.307   3.984   1.428 -0.7410  0.2388 -1.4303
 1268TIP3   OH225294   4.002   3.139  16.718 -0.5029  0.6277  1.0086
 1268TIP3    H125295   3.932   3.088  16.677 -0.2102 -0.5138  1.8880
 1268TIP3    H225296   4.076   3.132  16.658 -0.2451 -0.5806  1.4631
 1269TIP3   OH225297   4.461   1.893   0.066 -0.4266 -0.0756 -0.5166
 1269TIP3    H125298   4.474   1.930  -0.021 -0.3481 -1.7775 -1.2511
 1269TIP3    H225299   4.404   1.818   0.052 -1.8749  0.6575  1.1504
 1270TIP3   OH225300   6.486   6.054  13.182 -0.1370  0.0730 -0.0365
 1270TIP3    H125301   6.521   5.971  13.151 -1.3423 -0.3323 -0.3631
 1270TIP3    H225302   6.392   6.048  13.166 -0.3360  1.2204  0.5848
 1271TIP3   OH225303   5.232   3.447   1.494 -0.8032  0.4076  0.1662
 1271TIP3    H125304   5.180   3.370   1.471 -0.7136  0.3635  0.1109
 1271TIP3    H225305   5.236   3.499   1.413  1.0857 -0.6526 -0.4503
 1272TIP3   OH225306   5.209   6.078   6.719 -0.6227  0.2282  0.1572
 1272TIP3    H125307   5.156   6.033   6.653 -2.0655  2.3600 -0.1792
 1272TIP3    H225308   5.296   6.041   6.709 -1.5997 -1.9475 -0.6052
 1273TIP3   OH225309   2.805   2.262   2.758 -0.1892  0.2690 -0.3413
 1273TIP3    H125310   2.895   2.237   2.777 -0.7157  0.2605  2.3706
 1273TIP3    H225311   2.805   2.357   2.758  0.1068  0.2812 -1.9229
 1274TIP3   OH225312   2.117   6.331  14.142  0.7726  0.2956 -0.5906
 1274TIP3    H125313   2.155   6.395  14.081  0.2570  0.0669 -1.1631
 1274TIP3    H225314   2.058   6.279  14.087 -0.8094  1.0189  0.4060
 1275TIP3   OH225315   5.676   2.181  13.287  0.0934  1.0325  0.1251
 1275TIP3    H125316   5.720   2.251  13.336  1.7815  0.5337 -0.6511
 1275TIP3    H225317   5.609   2.148  13.347 -0.0496  2.6330  0.8720
 1276TIP3   OH225318   2.414   3.479  12.087 -0.3162 -0.2847  0.0638
 1276TIP3    H125319   2.463   3.538  12.030 -1.6863 -0.2261 -1.0830
 1276TIP3    H225320   2.414   3.523  12.172  1.1018 -0.0090 -0.0661
 1277TIP3   OH225321   4.720   6.287   0.624  0.6386  0.6111 -0.5196
 1277TIP3    H125322   4.780   6.268   0.552 -1.3546 -0.7428 -1.8814
 1277TIP3    H225323   4.649   6.337   0.582  1.2665  3.0954  1.2513
 1278TIP3   OH225324   5.030   4.538   2.855 -0.2402  0.0026 -0.0552
 1278TIP3    H125325   5.055   4.616   2.904  0.3603 -0.9174  1.1314
 1278TIP3    H225326   5.094   4.533   2.783 -0.8387  1.0922 -0.6786
 1279TIP3   OH225327   1.607   4.334  10.860  0.5101 -0.7219  0.3570
 1279TIP3    H125328   1.554   4.400  10.816  0.7281 -0.8764 -0.1335
 1279TIP3    H225329   1.587   4.252  10.814  2.0145 -0.5852 -0.5290
 1280TIP3   OH225330   0.359   4.172  10.899  0.4126  0.6841  0.8371
 1280TIP3    H125331   0.317   4.254  10.925  0.4642  1.2416 -0.7972
 1280TIP3    H225332   0.444   4.174  10.943  0.8664  2.0334 -0.0676
 1281TIP3   OH225333   3.414   0.076   0.298  0.0545 -0.4336 -0.5151
 1281TIP3    H125334   3.414   0.014   0.371  1.3247  0.1937  0.0387
 1281TIP3    H225335   3.321   0.091   0.279 -0.2911 -0.3011  1.2297
 1282TIP3   OH225336   4.559   4.959  10.299 -0.5020 -0.3004 -0.0879
 1282TIP3    H125337   4.607   4.900  10.357 -1.9253 -1.9232 -0.5242
 1282TIP3    H225338   4.612   5.039  10.296  0.5780 -0.9204  1.8803
 1283TIP3   OH225339   4.848   1.306  15.568  0.2816 -0.1364 -0.0702
 1283TIP3    H125340   4.912   1.278  15.503 -0.3052  0.0642 -0.7367
 1283TIP3    H225341   4.887   1.384  15.607  0.4749 -0.0507 -0.4288
 1284TIP3   OH225342   0.449   3.237  12.453  0.2102  0.4903  0.1942
 1284TIP3    H125343   0.509   3.311  12.444 -0.8140  1.1547 -1.3974
 1284TIP3    H225344   0.362   3.277  12.461 -0.3410 -0.5308 -0.5039
 1285TIP3   OH225345   6.204   6.357  13.711  0.1450  0.3607 -0.2411
 1285TIP3    H125346   6.294   6.332  13.692  0.2907 -0.6665  1.6660
 1285TIP3    H225347   6.174   6.400  13.631  1.7628 -0.8036 -1.5278
 1286TIP3   OH225348   1.655   4.717  12.254 -0.0459 -0.4803  0.7872
 1286TIP3    H125349   1.732   4.737  12.200 -1.2381 -2.0329 -1.6083
 1286TIP3    H225350   1.679   4.744  12.342  1.9795  2.2279 -0.5216
 1287TIP3   OH225351   5.088   4.535   5.501 -0.5214 -0.3523  0.1447
 1287TIP3    H125352   5.044   4.616   5.475  0.3437  1.0128  2.7862
 1287TIP3    H225353   5.132   4.557   5.583  0.1044 -3.3887  0.6643
 1288TIP3   OH225354   4.229   2.570   0.728  0.2089  0.2989 -0.1835
 1288TIP3    H125355   4.155   2.546   0.672 -0.3722  1.2908  0.1424
 1288TIP3    H225356   4.260   2.487   0.764 -0.7874 -0.1167 -0.2695
 1289TIP3   OH225357   5.154   0.952  14.581 -0.3455  0.3635  0.1892
 1289TIP3    H125358   5.108   0.875  14.548 -0.1484  0.7428 -1.0030
 1289TIP3    H225359   5.115   0.968  14.667 -1.0001 -0.5367  0.0688
 1290TIP3   OH225360   0.522   1.693   3.498 -0.6039  0.6676 -0.5442
 1290TIP3    H125361   0.464   1.678   3.423 -1.6161  1.4278  0.0774
 1290TIP3    H225362   0.588   1.754   3.466 -1.6870  1.8713 -0.5000
 1291TIP3   OH225363   0.031   2.913   4.006 -0.3740 -0.8621 -1.3096
 1291TIP3    H125364   0.067   2.921   4.095 -0.2221  0.4115 -1.4849
 1291TIP3    H225365  -0.000   3.000   3.984  0.7412 -0.8699 -3.0075
 1292TIP3   OH225366   5.248   4.382  12.770 -0.2817 -0.0543 -0.9430
 1292TIP3    H125367   5.220   4.408  12.682 -1.0285  0.4001 -0.5855
 1292TIP3    H225368   5.177   4.326  12.802  1.4398 -2.7903 -1.7983
 1293TIP3   OH225369   0.241   0.284   6.393 -0.9476 -1.0678 -0.3199
 1293TIP3    H125370   0.168   0.278   6.454 -0.2658 -0.2290  0.6060
 1293TIP3    H225371   0.207   0.335   6.319 -1.2275 -0.4812  0.2129
 1294TIP3   OH225372   5.331   4.101   0.280  0.5744 -0.4485  0.2592
 1294TIP3    H125373   5.278   4.157   0.223 -1.7126 -2.0152  0.7704
 1294TIP3    H225374   5.397   4.064   0.222 -0.9190 -1.0100 -1.1207
 1295TIP3   OH225375   4.964   1.127   4.178 -0.4638 -0.6110  0.5439
 1295TIP3    H125376   5.016   1.156   4.103 -0.8498 -0.2442  0.4208
 1295TIP3    H225377   4.961   1.031   4.169 -0.7225 -0.5472 -0.0486
 1296TIP3   OH225378   5.235   6.563   5.641 -0.5970  0.1218 -0.1299
 1296TIP3    H125379   5.190   6.622   5.701 -0.2623  1.3852 -1.0989
 1296TIP3    H225380   5.277   6.621   5.577  0.9083 -1.1172 -0.2816
 1297TIP3   OH225381   3.442   6.144  14.713 -0.5521 -0.2518  0.2904
 1297TIP3    H125382   3.470   6.142  14.805 -0.1358  0.5273  0.1889
 1297TIP3    H225383   3.520   6.117  14.664 -0.2662  0.9388  0.0673
 1298TIP3   OH225384   5.208   1.207   2.935 -0.2486  0.1162 -0.3509
 1298TIP3    H125385   5.266   1.280   2.912  0.5397  0.3146  2.0384
 1298TIP3    H225386   5.126   1.249   2.961  0.5629  0.2805  2.0824
 1299TIP3   OH225387   3.355   1.468   4.074 -0.3070 -0.3612 -0.4848
 1299TIP3    H125388   3.380   1.511   3.992 -0.4594  0.2856 -0.1938
 1299TIP3    H225389   3.335   1.540   4.134  2.5372 -0.7439  1.0179
 1300TIP3   OH225390   1.584   0.031  13.359  0.0468 -0.1989  0.8214
 1300TIP3    H125391   1.643  -0.041  13.381 -0.0060 -1.0008 -1.4902
 1300TIP3    H225392   1.540   0.052  13.441  3.2506  0.1715  2.5214
 1301TIP3   OH225393   1.192   1.344  15.628 -0.2368 -0.3734  0.1868
 1301TIP3    H125394   1.277   1.388  15.618  0.0775 -0.8922  0.5462
 1301TIP3    H225395   1.211   1.269  15.684 -1.0151 -0.2569  0.6126
 1302TIP3   OH225396   5.896   3.679  12.287  0.0668 -0.5334  0.6792
 1302TIP3    H125397   5.807   3.703  12.262  0.9855  1.5353 -0.7742
 1302TIP3    H225398   5.929   3.629  12.213  0.2810 -0.9202  1.0327
 1303TIP3   OH225399   0.828   2.797   1.826  0.1587 -0.1363 -0.1814
 1303TIP3    H125400   0.836   2.723   1.886  0.3930 -0.4940 -0.6492
 1303TIP3    H225401   0.874   2.869   1.871  0.0760 -0.3167  0.1975
 1304TIP3   OH225402   0.858   1.557   4.058  0.0220 -0.1061  0.1982
 1304TIP3    H125403   0.763   1.571   4.057  0.0662  0.1503 -0.3918
 1304TIP3    H225404   0.880   1.531   3.969  0.3531 -1.2645  0.6022
 1305TIP3   OH225405   3.221   4.088  13.286 -0.2617  0.1042 -0.0138
 1305TIP3    H125406   3.139   4.117  13.326  0.3300  0.3532  1.0426
 1305TIP3    H225407   3.279   4.163  13.295  0.4252 -0.4579  0.2462
 1306TIP3   OH225408   4.022   5.222  13.517 -0.4600  0.4733 -0.6045
 1306TIP3    H125409   3.950   5.160  13.506  0.4161 -1.2841  3.0318
 1306TIP3    H225410   4.086   5.195  13.451 -1.8420  0.2218 -1.8938
 1307TIP3   OH225411   5.158   2.486  13.631 -0.7069 -0.2092 -0.3709
 1307TIP3    H125412   5.083   2.486  13.571  0.4213 -1.1789 -1.8042
 1307TIP3    H225413   5.229   2.523  13.579  0.0571 -0.2320  0.6643
 1308TIP3   OH225414   3.832   5.092  12.465 -0.0336  0.0218  0.6916
 1308TIP3    H125415   3.896   5.024  12.443  0.9534  0.9635  0.5963
 1308TIP3    H225416   3.872   5.139  12.538 -0.4732  0.8130  0.4240
 1309TIP3   OH225417   3.701   3.399   6.091  0.3192  0.0574  0.1054
 1309TIP3    H125418   3.733   3.377   6.179 -1.0103 -0.9359  0.3592
 1309TIP3    H225419   3.662   3.486   6.100 -1.8981 -1.0082  1.0533
 1310TIP3   OH225420   5.476   3.265   4.965 -0.1216  0.2710 -0.3940
 1310TIP3    H125421   5.567   3.250   4.940 -0.5781 -0.3188 -1.7756
 1310TIP3    H225422   5.431   3.184   4.941 -1.0649  0.6571  0.0318
 1311TIP3   OH225423   0.031   2.660   3.644 -0.3221  0.1770  0.4030
 1311TIP3    H125424  -0.036   2.605   3.604  1.2917 -1.2546 -0.4361
 1311TIP3    H225425   0.015   2.654   3.738 -1.0331 -0.6021  0.2401
 1312TIP3   OH225426   1.755   4.929  15.006 -0.4206 -0.2279 -0.0635
 1312TIP3    H125427   1.677   4.982  15.016 -1.2801 -1.6574  1.0360
 1312TIP3    H225428   1.722   4.840  14.995  1.0665 -1.1627  2.5122
 1313TIP3   OH225429   1.286   2.898   2.107  0.0574  0.2905 -0.2082
 1313TIP3    H125430   1.299   2.813   2.064  0.6025 -0.2447  1.0094
 1313TIP3    H225431   1.340   2.958   2.055  2.5339 -0.7751  1.0486
 1314TIP3   OH225432   3.460   4.470  14.968  0.3090  0.5404  0.2024
 1314TIP3    H125433   3.552   4.483  14.993  0.3936 -0.0009  0.1814
 1314TIP3    H225434   3.451   4.375  14.960  0.4738  0.7058 -2.4954
 1315TIP3   OH225435   0.621   1.741   2.849  0.1004 -0.4582 -0.3269
 1315TIP3    H125436   0.590   1.684   2.779 -3.3314 -1.1719  1.6842
 1315TIP3    H225437   0.651   1.681   2.918  0.0038  0.2064  0.3018
 1316TIP3   OH225438   5.871   0.176  12.254  0.2413 -0.5701  0.0220
 1316TIP3    H125439   5.794   0.233  12.264  0.6256 -0.1719  0.7324
 1316TIP3    H225440   5.835   0.095  12.217 -0.6013 -0.5632  0.7881
 1317TIP3   OH225441   6.431   6.465   6.270  0.1841 -0.5682 -0.3652
 1317TIP3    H125442   6.424   6.483   6.176 -0.0882 -0.5534 -0.3417
 1317TIP3    H225443   6.521   6.434   6.282 -0.3428 -2.3717 -0.9410
 1318TIP3   OH225444   2.203   4.836   6.801 -0.0323  0.1839  0.1851
 1318TIP3    H125445   2.255   4.757   6.813  1.0087  0.4475 -2.2495
 1318TIP3    H225446   2.119   4.816   6.843  1.1437 -1.1698  1.9716
 1319TIP3   OH225447   2.514   3.033   1.239 -0.1637  0.2829 -0.4030
 1319TIP3    H125448   2.584   3.006   1.180  1.4451  1.0992  1.1066
 1319TIP3    H225449   2.497   3.125   1.217 -1.1565 -0.0632 -1.1335
 1320TIP3   OH225450   4.312   3.191  14.665  0.6216  0.4285  0.3729
 1320TIP3    H125451   4.357   3.234  14.592  0.7400 -0.0604  0.1575
 1320TIP3    H225452   4.232   3.156  14.627  2.1202 -2.4742 -0.2109
 1321TIP3   OH225453   4.992   2.772   3.638  0.3246  0.1561  0.9095
 1321TIP3    H125454   4.948   2.818   3.566 -0.4734  0.7359  1.7633
 1321TIP3    H225455   5.054   2.713   3.594  0.4956  1.1599 -0.2291
 1322TIP3   OH225456   0.546   2.894   5.009  0.1116 -0.3812  0.4661
 1322TIP3    H125457   0.631   2.852   4.995  1.5852  1.5017  3.1164
 1322TIP3    H225458   0.507   2.846   5.083 -0.7933 -0.7451 -0.2384
 1323TIP3   OH225459   5.737   4.391   3.891 -0.0567 -0.0821  0.3317
 1323TIP3    H125460   5.791   4.408   3.969 -0.0196  0.2611  0.2292
 1323TIP3    H225461   5.657   4.442   3.905  0.9556  1.9156 -0.9829
 1324TIP3   OH225462   5.389   3.180   3.941  0.1746 -0.0130  0.2713
 1324TIP3    H125463   5.354   3.091   3.945 -1.1091  0.4037 -1.3753
 1324TIP3    H225464   5.319   3.235   3.975 -0.2405  0.6711 -1.6232
 1325TIP3   OH225465   3.979   1.121  15.169 -0.1716  0.0223  0.2205
 1325TIP3    H125466   4.048   1.056  15.187 -1.1374 -0.3887  2.6760
 1325TIP3    H225467   3.897   1.072  15.177 -0.8401  1.0620 -0.1590
 1326TIP3   OH225468   0.510   0.010  12.498 -0.3941 -0.5883  0.1018
 1326TIP3    H125469   0.441  -0.054  12.483 -1.6485  0.8069 -0.1797
 1326TIP3    H225470   0.558   0.014  12.415  0.5157 -2.1194  0.5422
 1327TIP3   OH225471   2.952   5.814  14.633  0.0606  0.2327 -0.5750
 1327TIP3    H125472   2.923   5.882  14.694 -1.1037 -1.5948  0.9792
 1327TIP3    H225473   3.044   5.835  14.615  0.8842 -0.0019  3.0085
 1328TIP3   OH225474   4.443   3.719  12.888  0.3791  0.0675 -0.4161
 1328TIP3    H125475   4.393   3.763  12.956 -0.9084 -1.1389 -0.5633
 1328TIP3    H225476   4.517   3.679  12.933  1.8718  2.7755 -0.3476
 1329TIP3   OH225477   6.588   0.745   3.701 -0.1383 -0.3152 -0.0069
 1329TIP3    H125478   6.668   0.784   3.738  0.8147 -0.2761 -2.0582
 1329TIP3    H225479   6.521   0.761   3.768  1.1715  1.1752  0.9982
 1330TIP3   OH225480   5.034   5.238   1.543 -0.5515 -0.0050  0.4590
 1330TIP3    H125481   5.109   5.243   1.602  0.3161  0.6147 -0.6874
 1330TIP3    H225482   4.970   5.299   1.580  0.1377  0.6662  0.5455
 1331TIP3   OH225483   5.559   4.476  13.089  0.8676  0.4441  0.3357
 1331TIP3    H125484   5.634   4.535  13.093  1.9960 -0.9016 -0.6535
 1331TIP3    H225485   5.513   4.501  13.009  1.7167 -0.4249 -0.4409
 1332TIP3   OH225486   4.570   0.901   1.485 -0.1787  0.5138 -0.4911
 1332TIP3    H125487   4.589   0.892   1.391 -1.9488 -0.6295 -0.7615
 1332TIP3    H225488   4.587   0.815   1.522  1.6344  1.2601  0.4847
 1333TIP3   OH225489   3.225   5.024   3.719 -0.2684 -0.0704 -0.1351
 1333TIP3    H125490   3.161   4.966   3.678  1.4735 -0.7950 -1.9484
 1333TIP3    H225491   3.198   5.029   3.810 -2.1979 -1.3156 -0.6118
 1334TIP3   OH225492   3.560   3.305   0.053  0.4448 -0.1763  0.1765
 1334TIP3    H125493   3.575   3.239  -0.015  3.0930 -1.6816  2.1154
 1334TIP3    H225494   3.593   3.386   0.015 -1.4587 -0.2206 -1.6699
 1335TIP3   OH225495   0.990   6.625   4.452 -0.0679 -0.2254 -0.0943
 1335TIP3    H125496   0.988   6.720   4.458 -1.6149 -0.3360  1.1682
 1335TIP3    H225497   1.084   6.604   4.452  0.5105  1.5196 -4.8861
 1336TIP3   OH225498   6.367   2.857   1.087 -0.0263 -0.3611  0.2960
 1336TIP3    H125499   6.295   2.893   1.035 -0.5168 -2.3320 -0.4528
 1336TIP3    H225500   6.341   2.872   1.178 -1.2471 -0.8048  0.0296
 1337TIP3   OH225501   5.684   0.954  16.593 -0.1184 -0.6638 -0.0396
 1337TIP3    H125502   5.618   0.974  16.659 -0.4018 -0.2703 -0.4361
 1337TIP3    H225503   5.767   0.982  16.633 -0.3788  0.2881 -0.1526
 1338TIP3   OH225504   5.681   2.776  14.152  0.3964 -0.0849  0.1044
 1338TIP3    H125505   5.756   2.726  14.121  1.4923  0.9713  0.9847
 1338TIP3    H225506   5.714   2.822  14.229 -1.5873 -0.7703  1.3955
 1339TIP3   OH225507   0.433   1.171   4.530  0.5520 -0.4360  0.6110
 1339TIP3    H125508   0.507   1.194   4.473  1.0353 -3.3593  0.0075
 1339TIP3    H225509   0.474   1.142   4.611 -0.0906  1.6511  1.7297
 1340TIP3   OH225510   1.693   3.686   4.805 -0.6352 -0.0182 -0.5247
 1340TIP3    H125511   1.750   3.660   4.877 -1.1813  0.2408  0.0088
 1340TIP3    H225512   1.688   3.781   4.812 -0.8088 -0.0074 -0.8070
 1341TIP3   OH225513   6.074   5.225  15.328 -0.5718  0.0612  0.5752
 1341TIP3    H125514   6.066   5.317  15.302  0.7636 -0.0514 -0.2318
 1341TIP3    H225515   6.166   5.214  15.350 -0.2284 -1.6735 -1.5619
 1342TIP3   OH225516   5.254   0.435   1.185 -0.2255 -0.3593  0.0139
 1342TIP3    H125517   5.173   0.440   1.135 -0.0206  1.6512 -0.1701
 1342TIP3    H225518   5.323   0.443   1.119  0.0974 -0.8530  0.2937
 1343TIP3   OH225519   0.870   3.421   0.686  0.0632  0.4785  0.2218
 1343TIP3    H125520   0.828   3.435   0.770 -0.3430 -2.4595  0.5633
 1343TIP3    H225521   0.797   3.407   0.625  0.4283 -1.7534  0.2598
 1344TIP3   OH225522   1.484   2.980   1.759 -0.1652 -0.3124 -0.2081
 1344TIP3    H125523   1.495   3.005   1.851 -1.0325  0.4846 -0.3118
 1344TIP3    H225524   1.452   3.059   1.717 -1.0760 -1.0572 -0.9355
 1345TIP3   OH225525   5.305   5.142   2.578 -0.6599 -0.0275 -0.4909
 1345TIP3    H125526   5.396   5.137   2.606 -0.6969  2.4812  0.1717
 1345TIP3    H225527   5.301   5.221   2.523 -2.5656  0.2541  0.0260
 1346TIP3   OH225528   2.140   6.781   4.394  0.2494 -0.3395 -0.2567
 1346TIP3    H125529   2.087   6.733   4.458  1.2871 -0.7240  0.3296
 1346TIP3    H225530   2.077   6.830   4.342 -0.6645 -0.6261  0.5712
 1347TIP3   OH225531   0.744   3.619   5.193  0.6166  0.3370  0.1190
 1347TIP3    H125532   0.668   3.565   5.217  0.3464  1.2513  1.4098
 1347TIP3    H225533   0.713   3.672   5.120 -0.1487  1.0082  0.9120
 1348TIP3   OH225534   4.753   3.945   2.585 -0.1918 -0.5724  0.0152
 1348TIP3    H125535   4.790   3.947   2.496  0.6699 -1.6441  0.3418
 1348TIP3    H225536   4.725   3.854   2.597  0.5059 -0.6319  1.1718
 1349TIP3   OH225537   5.147   0.921  16.023 -0.4272 -0.2957 -0.2804
 1349TIP3    H125538   5.202   0.921  15.945 -0.6300 -0.3204 -0.4231
 1349TIP3    H225539   5.197   0.871  16.088  0.7167  1.5207  0.2897
 1350TIP3   OH225540   0.260   6.348  11.521 -0.1072  0.1868  0.2089
 1350TIP3    H125541   0.248   6.257  11.548 -0.0501  0.0402 -0.2550
 1350TIP3    H225542   0.276   6.343  11.427  0.4069  0.6371  0.2723
 1351TIP3   OH225543   6.642   3.623   1.103 -0.6047 -0.3199 -0.1658
 1351TIP3    H125544   6.586   3.547   1.120 -1.1898  0.1053 -0.1743
 1351TIP3    H225545   6.639   3.634   1.008  0.1354 -0.7778 -0.2472
 1352TIP3   OH225546   6.510   4.933  14.653  0.3339  0.1014  0.0739
 1352TIP3    H125547   6.598   4.938  14.689 -0.2771 -1.3114  1.7774
 1352TIP3    H225548   6.458   4.889  14.720 -2.1009  2.5158 -0.1007
 1353TIP3   OH225549   2.132   3.030   2.996  0.6606  0.8245  0.6242
 1353TIP3    H125550   2.126   3.120   3.028  0.1236  0.6767  0.9548
 1353TIP3    H225551   2.081   3.029   2.915  1.0072  0.9120  0.4032
 1354TIP3   OH225552   6.119   6.335   4.513  0.2226  0.2783 -0.2355
 1354TIP3    H125553   6.084   6.278   4.581  2.0928  0.4076  0.8473
 1354TIP3    H225554   6.196   6.289   4.480  2.3836  2.6396  1.3886
 1355TIP3   OH225555   2.817   1.941  14.991 -0.6386 -0.1213 -0.1941
 1355TIP3    H125556   2.787   1.867  15.043 -0.8525  0.7541  0.9312
 1355TIP3    H225557   2.871   1.993  15.051  3.1284 -1.6223 -2.1153
 1356TIP3   OH225558   2.542   1.633   0.270 -0.5678  0.3118 -0.5787
 1356TIP3    H125559   2.508   1.722   0.270  1.3003  1.0658 -1.9013
 1356TIP3    H225560   2.637   1.644   0.270 -0.3127 -1.6736 -0.9082
 1357TIP3   OH225561   2.006   0.035  12.355 -0.0445  0.5547 -0.9083
 1357TIP3    H125562   1.920  -0.004  12.366  0.8534 -1.5463 -1.0644
 1357TIP3    H225563   2.040  -0.003  12.274 -0.0421  3.4412 -2.3318
 1358TIP3   OH225564   4.252   6.102  16.028  0.1895 -0.0826  0.3067
 1358TIP3    H125565   4.298   6.109  16.112  2.8800 -0.0268 -1.1339
 1358TIP3    H225566   4.258   6.189  15.989 -1.2514 -0.0469  0.1237
 1359TIP3   OH225567   0.726   3.962  15.906 -0.2706  0.3611 -0.1564
 1359TIP3    H125568   0.670   3.889  15.933  0.6369  0.2197  1.4340
 1359TIP3    H225569   0.683   4.040  15.942  0.8939  0.1825  1.6714
 1360TIP3   OH225570   4.866   1.665  12.806  0.6749  0.7184 -0.2774
 1360TIP3    H125571   4.794   1.613  12.771  1.1318 -0.0095 -0.1327
 1360TIP3    H225572   4.943   1.637  12.756  1.4024 -0.5903  1.5285
 1361TIP3   OH225573   6.439   5.786   5.428 -0.0071  0.3219 -0.4166
 1361TIP3    H125574   6.378   5.859   5.441 -0.4254  0.4414 -2.9085
 1361TIP3    H225575   6.383   5.708   5.434 -0.0880  0.3492 -0.7890
 1362TIP3   OH225576   1.630   3.912   0.737 -0.5437  0.0574 -0.1364
 1362TIP3    H125577   1.641   3.871   0.823 -0.3312  0.7059  0.1467
 1362TIP3    H225578   1.719   3.927   0.706 -0.5600  3.2250  1.1606
 1363TIP3   OH225579   0.244   3.450  14.229  0.3487  0.1293 -0.6761
 1363TIP3    H125580   0.257   3.538  14.264 -0.0117 -0.1403  0.1545
 1363TIP3    H225581   0.309   3.396  14.275  0.1516 -0.1507 -0.7228
 1364TIP3   OH225582   2.448   5.196  14.034 -0.1032  0.2911  0.3704
 1364TIP3    H125583   2.361   5.231  14.052 -0.0581  0.5650  0.0567
 1364TIP3    H225584   2.508   5.259  14.073  0.0608  1.8494 -2.2422
 1365TIP3   OH225585   0.481   5.183  16.206  0.0304  0.3994  0.0748
 1365TIP3    H125586   0.520   5.268  16.225 -0.9797  0.5598  1.5790
 1365TIP3    H225587   0.551   5.133  16.165  1.7381  0.7763  2.4049
 1366TIP3   OH225588   5.291   0.742  12.806  0.2427 -0.2432  0.4344
 1366TIP3    H125589   5.335   0.772  12.726  0.0175 -0.1864  0.3299
 1366TIP3    H225590   5.306   0.811  12.870  3.0509 -1.6701  1.3846
 1367TIP3   OH225591   3.085   3.457  12.588  0.3470  0.6479 -0.0392
 1367TIP3    H125592   3.037   3.474  12.507  0.9980  0.9138 -0.3756
 1367TIP3    H225593   3.155   3.397  12.562 -0.8808 -1.1944  0.7993
 1368TIP3   OH225594   5.377   2.556  14.428  0.0491  0.4035 -0.4470
 1368TIP3    H125595   5.441   2.530  14.361 -0.7848  0.3075 -1.2195
 1368TIP3    H225596   5.429   2.569  14.507  1.2193  1.7030 -1.4108
 1369TIP3   OH225597   6.154   1.306   2.065  0.5396 -0.4495  0.2784
 1369TIP3    H125598   6.092   1.250   2.017 -1.8048  0.9497  1.5590
 1369TIP3    H225599   6.201   1.245   2.122  1.7667 -1.8132 -2.1160
 1370TIP3   OH225600   5.599   6.288  14.042  0.6578 -0.4300 -0.0535
 1370TIP3    H125601   5.598   6.377  14.078 -0.4821 -0.3240 -0.3147
 1370TIP3    H225602   5.526   6.244  14.086 -0.2360 -0.5409 -1.6196
 1371TIP3   OH225603   4.735   2.554   4.199 -0.1760  0.4512  0.2145
 1371TIP3    H125604   4.741   2.466   4.235  0.1837  0.9862  1.5250
 1371TIP3    H225605   4.822   2.592   4.213 -0.4886  1.1947  0.1883
 1372TIP3   OH225606   6.615   4.856  15.307  0.3617  0.1016 -0.1870
 1372TIP3    H125607   6.576   4.939  15.334  0.1369 -0.2072  0.4805
 1372TIP3    H225608   6.540   4.804  15.277  0.1215 -0.7734  1.8336
 1373TIP3   OH225609   4.731   5.319   5.838 -0.7991 -0.5539 -0.1041
 1373TIP3    H125610   4.768   5.320   5.750 -0.3703  0.4021  0.0834
 1373TIP3    H225611   4.679   5.399   5.844 -0.9560 -0.6913  0.4540
 1374TIP3   OH225612   3.940   6.422  17.272  0.0838  0.5102  0.3352
 1374TIP3    H125613   3.943   6.489  17.204  1.4615  0.8285  0.7104
 1374TIP3    H225614   3.991   6.349  17.236 -0.3538  0.1374  0.4525
 1375TIP3   OH225615   6.460   2.470   2.423 -0.7175 -0.3548  0.1425
 1375TIP3    H125616   6.547   2.481   2.385 -0.9573 -1.6033 -0.7924
 1375TIP3    H225617   6.401   2.517   2.364 -0.6510  0.7731  0.9557
 1376TIP3   OH225618   2.956   0.784  11.719 -0.1847  0.0787 -0.2870
 1376TIP3    H125619   2.939   0.846  11.648  0.2719  1.6139  0.9007
 1376TIP3    H225620   3.030   0.732  11.688  0.3955  1.1337 -0.7170
 1377TIP3   OH225621   3.254   0.788   4.372 -0.4878 -0.1030  0.4465
 1377TIP3    H125622   3.229   0.870   4.415 -3.5436 -0.9030  0.3491
 1377TIP3    H225623   3.225   0.799   4.282 -2.3618 -1.8220  0.7937
 1378TIP3   OH225624   6.256   5.726  13.243 -0.2556  1.0754  0.4631
 1378TIP3    H125625   6.294   5.654  13.193  0.8595  1.4600  0.7558
 1378TIP3    H225626   6.266   5.700  13.334 -2.0534  0.4956  0.5117
 1379TIP3   OH225627   4.422   3.656  11.790 -0.4122  0.3261  0.5856
 1379TIP3    H125628   4.376   3.725  11.838 -0.0186  0.6501  0.5014
 1379TIP3    H225629   4.353   3.602  11.752 -0.7036  1.4096 -0.4056
 1380TIP3   OH225630   1.885   4.911   1.861 -0.0412  0.1557 -0.1046
 1380TIP3    H125631   1.965   4.882   1.819  0.5550 -0.3330  1.3333
 1380TIP3    H225632   1.878   5.004   1.838 -0.2182 -0.3121 -1.9927
 1381TIP3   OH225633   5.486   0.355  14.412 -0.1924 -0.3630  0.2056
 1381TIP3    H125634   5.414   0.418  14.422 -0.0870 -0.1814 -0.1737
 1381TIP3    H225635   5.508   0.330  14.502 -2.1771 -2.0744  0.2531
 1382TIP3   OH225636   1.413   4.541   1.498  0.9231 -0.6353  0.3150
 1382TIP3    H125637   1.409   4.631   1.531  0.3193 -0.5428  0.0031
 1382TIP3    H225638   1.345   4.537   1.431  2.6439 -0.5819 -1.4918
 1383TIP3   OH225639   1.457   1.253  12.488 -0.4218  0.5189 -0.0721
 1383TIP3    H125640   1.368   1.264  12.523 -0.7973 -0.8123 -0.5634
 1383TIP3    H225641   1.463   1.160  12.468  0.7707  0.7701 -0.9331
 1384TIP3   OH225642   4.094   5.523  16.285 -0.9074  0.1983 -0.0900
 1384TIP3    H125643   4.027   5.459  16.258  0.2348 -1.4597  0.9157
 1384TIP3    H225644   4.168   5.505  16.228 -0.9742  1.4396 -0.5868
 1385TIP3   OH225645   3.625   2.923   3.528  0.6128  0.5134 -0.0040
 1385TIP3    H125646   3.676   2.926   3.609  0.5557  0.9084  0.0189
 1385TIP3    H225647   3.535   2.940   3.556  0.5286  0.2343 -0.0990
 1386TIP3   OH225648   4.108   2.199   3.907 -0.0082 -0.2628  0.0235
 1386TIP3    H125649   4.203   2.197   3.893  0.0280  2.7918 -0.4271
 1386TIP3    H225650   4.098   2.186   4.001  0.9237  0.3461  0.2141
 1387TIP3   OH225651   1.994   3.525  11.247  0.7430  0.2429 -0.2517
 1387TIP3    H125652   2.059   3.473  11.199  0.9937  1.0652 -0.8316
 1387TIP3    H225653   2.045   3.576  11.310  0.6138  0.5378 -0.3833
 1388TIP3   OH225654   3.723   0.731   2.497  0.4533 -0.2443 -0.7503
 1388TIP3    H125655   3.646   0.745   2.442  0.0041  1.1915  0.2023
 1388TIP3    H225656   3.693   0.670   2.565  0.1937  0.1655 -0.4904
 1389TIP3   OH225657   6.462   1.450  12.171 -0.0752 -0.2444  0.2262
 1389TIP3    H125658   6.369   1.469  12.154  0.4736  1.5975 -0.8390
 1389TIP3    H225659   6.506   1.533  12.155  1.8720 -1.3110 -0.0095
 1390TIP3   OH225660   5.619   4.113  15.137  0.4572  0.7136 -0.0057
 1390TIP3    H125661   5.525   4.119  15.157  0.6326 -1.7485  1.7206
 1390TIP3    H225662   5.645   4.204  15.122 -1.6989  1.7205  1.9285
 1391TIP3   OH225663   0.809   2.836   6.316  0.8116  0.3545 -0.1522
 1391TIP3    H125664   0.755   2.891   6.372 -0.3951  0.4440 -1.3721
 1391TIP3    H225665   0.748   2.802   6.251  2.0063 -0.5160 -0.8283
 1392TIP3   OH225666   1.380   5.728   3.463 -0.3301  0.0460 -0.2519
 1392TIP3    H125667   1.465   5.772   3.467 -0.9091  1.1376  0.5691
 1392TIP3    H225668   1.343   5.755   3.379 -0.5684  0.9482  0.1314
 1393TIP3   OH225669   2.960   2.625   0.074  0.7489  0.4625 -0.4493
 1393TIP3    H125670   2.984   2.533   0.082 -1.5165  0.0347  2.4050
 1393TIP3    H225671   3.031   2.673   0.117  0.8341 -0.1199  0.0592
 1394TIP3   OH225672   1.003   2.204   2.724  0.2945 -0.2155 -0.3758
 1394TIP3    H125673   0.986   2.150   2.802  1.5529  0.6224  0.5039
 1394TIP3    H225674   0.940   2.275   2.730  1.2777  0.5844  0.6116
 1395TIP3   OH225675   6.574   6.368   2.249 -0.2496  0.6376 -0.4760
 1395TIP3    H125676   6.533   6.389   2.165 -0.8191  1.6735  0.0497
 1395TIP3    H225677   6.500   6.350   2.307  0.1777 -1.7992 -0.6108
 1396TIP3   OH225678   3.664   1.389  15.130  0.0399  0.5427 -1.2121
 1396TIP3    H125679   3.653   1.300  15.161  0.0100  0.2069 -2.1615
 1396TIP3    H225680   3.578   1.429  15.138  0.9493  1.8826  3.3634
 1397TIP3   OH225681   3.192   4.751  15.435 -0.2411 -0.3575 -0.3898
 1397TIP3    H125682   3.284   4.723  15.431 -0.0897  0.2787 -1.2765
 1397TIP3    H225683   3.166   4.730  15.525  0.5279 -1.3047 -0.3738
 1398TIP3   OH225684   1.649   4.488  12.388 -0.1483  0.1229  0.1636
 1398TIP3    H125685   1.642   4.572  12.343  0.7167  0.5274  0.7707
 1398TIP3    H225686   1.714   4.502  12.457 -0.9972 -0.6642  1.1489
 1399TIP3   OH225687   5.363   3.237  15.626 -0.2785 -0.6451  0.0265
 1399TIP3    H125688   5.286   3.200  15.671 -0.9259 -0.7502 -1.1407
 1399TIP3    H225689   5.340   3.328  15.610  0.6259 -0.1734  1.3746
 1400TIP3   OH225690   5.668   5.757   2.479 -0.3565  0.0569  0.2244
 1400TIP3    H125691   5.620   5.674   2.473  0.2779 -0.2801 -0.3001
 1400TIP3    H225692   5.641   5.806   2.402  0.3038 -0.2262 -0.1921
 1401TIP3   OH225693   0.501   4.601  11.265  0.5147  0.1177 -0.8845
 1401TIP3    H125694   0.464   4.678  11.223  0.3157  0.4318 -0.1474
 1401TIP3    H225695   0.438   4.531  11.249  0.3425  0.2868 -0.9375
 1402TIP3   OH225696   0.298   2.611  11.528 -0.2897  0.0993  0.3471
 1402TIP3    H125697   0.387   2.575  11.531 -0.1077  0.4726 -0.3694
 1402TIP3    H225698   0.261   2.590  11.613  0.3733 -0.3591  0.5288
 1403TIP3   OH225699   1.227   4.255   1.412  0.1961  0.8176  0.4277
 1403TIP3    H125700   1.176   4.313   1.356  0.6862  1.3689  0.5511
 1403TIP3    H225701   1.165   4.227   1.480 -0.3558  0.2647 -0.2983
 1404TIP3   OH225702   5.559   3.871   0.420 -0.3792  0.4547 -0.4278
 1404TIP3    H125703   5.494   3.907   0.480  0.7196  2.2523 -0.2933
 1404TIP3    H225704   5.516   3.873   0.335 -0.9488  0.4650 -0.1446
 1405TIP3   OH225705   2.494   3.883   2.146 -0.3560 -0.5576 -0.9768
 1405TIP3    H125706   2.529   3.898   2.058  0.3262  0.9940 -0.4685
 1405TIP3    H225707   2.529   3.798   2.172  1.2558 -0.0225 -1.3492
 1406TIP3   OH225708   3.293   2.012   0.124  0.0630 -0.0850 -0.0982
 1406TIP3    H125709   3.263   2.096   0.087 -0.2998 -0.1795 -0.0179
 1406TIP3    H225710   3.221   1.951   0.106 -0.5303  0.0910  1.6029
 1407TIP3   OH225711   6.596   6.771  12.257  0.1496  0.1285  0.0876
 1407TIP3    H125712   6.553   6.815  12.331  1.5671  0.4604  0.7239
 1407TIP3    H225713   6.637   6.841  12.207  0.2502 -0.2204 -0.3226
 1408TIP3   OH225714   6.254   6.773   4.317 -0.1991  0.4805 -0.2190
 1408TIP3    H125715   6.200   6.848   4.293  0.8468  1.1627 -0.4775
 1408TIP3    H225716   6.221   6.746   4.403  1.5367  3.3308  1.4667
 1409TIP3   OH225717   2.599   3.309  11.950  0.3361 -0.7995  0.0252
 1409TIP3    H125718   2.662   3.366  11.996 -1.1586 -0.3304  1.5433
 1409TIP3    H225719   2.513   3.344  11.975 -0.5588 -2.6223 -0.4666
 1410TIP3   OH225720   5.895   4.241   4.990 -0.0584 -0.6730  0.2524
 1410TIP3    H125721   5.818   4.248   4.934 -0.5465 -1.3367  0.8291
 1410TIP3    H225722   5.885   4.156   5.033  2.0620 -1.7328 -1.2480
 1411TIP3   OH225723   0.825   3.780   1.903 -0.0986  0.5226  0.0001
 1411TIP3    H125724   0.848   3.699   1.948  1.6114  0.3805 -1.0895
 1411TIP3    H225725   0.735   3.798   1.930 -0.7209 -2.0754 -0.2517
 1412TIP3   OH225726   6.115   3.993  13.015  0.2492  0.6093  0.4615
 1412TIP3    H125727   6.077   3.911  12.983 -0.2124  1.3106 -0.7773
 1412TIP3    H225728   6.210   3.976  13.016  0.0372 -0.6285  2.1521
 1413TIP3   OH225729   4.700   4.083   5.623 -0.0977 -0.0925  0.3814
 1413TIP3    H125730   4.741   4.162   5.588 -0.1574 -0.4092 -0.4123
 1413TIP3    H225731   4.648   4.114   5.698 -0.3967  0.6685 -0.1325
 1414TIP3   OH225732   3.178   5.429   3.796  0.5132  0.5629 -0.0096
 1414TIP3    H125733   3.175   5.480   3.715  1.0876  1.2911  0.4245
 1414TIP3    H225734   3.271   5.416   3.813  0.3822  0.0806  0.3318
 1415TIP3   OH225735   3.689   4.306   3.917  0.3063  0.0250 -0.1571
 1415TIP3    H125736   3.778   4.283   3.945  0.6434  1.0691 -0.3493
 1415TIP3    H225737   3.698   4.329   3.825  0.2384  2.3029  0.3923
 1416TIP3   OH225738   5.610   4.636  11.941  0.4234 -0.0929  0.1217
 1416TIP3    H125739   5.625   4.681  12.024  0.9726 -0.9490  0.4817
 1416TIP3    H225740   5.530   4.677  11.907  0.1039  0.1524  1.1373
 1417TIP3   OH225741   1.301   0.128   1.870 -0.1358  0.2113 -0.0906
 1417TIP3    H125742   1.210   0.105   1.850 -0.5822  1.5230  0.3994
 1417TIP3    H225743   1.318   0.086   1.954 -0.1149 -0.4565 -0.4198
 1418TIP3   OH225744   4.834   0.534  11.517  0.2221 -0.3103 -0.0547
 1418TIP3    H125745   4.907   0.472  11.517 -0.1450 -0.7511  0.3805
 1418TIP3    H225746   4.868   0.611  11.563  0.5857 -0.3069 -0.3337
 1419TIP3   OH225747   3.130   5.827  15.326 -0.1249  0.4198 -0.0192
 1419TIP3    H125748   3.060   5.856  15.267  0.5065  2.0261 -0.0098
 1419TIP3    H225749   3.112   5.872  15.408  0.6058  0.3922  0.1531
 1420TIP3   OH225750   6.609   4.331  15.050  0.3111  0.0660  0.1376
 1420TIP3    H125751   6.645   4.383  15.121 -0.6909  1.5956 -0.4470
 1420TIP3    H225752   6.529   4.292  15.085  0.8554 -0.7828  0.4532
 1421TIP3   OH225753   3.527   6.622   4.179 -0.4424  0.2361 -0.5457
 1421TIP3    H125754   3.459   6.563   4.147 -0.9564  0.1545  0.6807
 1421TIP3    H225755   3.578   6.569   4.241  0.3176  0.4970 -0.9386
 1422TIP3   OH225756   4.351   4.438   5.671 -0.4459  0.3028  0.1660
 1422TIP3    H125757   4.334   4.507   5.735 -0.7720  0.2298  0.1605
 1422TIP3    H225758   4.424   4.387   5.708  0.7110  1.4675 -0.4691
 1423TIP3   OH225759   6.329   2.257  14.654  0.1470  0.0350  0.1512
 1423TIP3    H125760   6.393   2.210  14.708  0.5978 -1.5773 -1.7323
 1423TIP3    H225761   6.381   2.310  14.594 -0.2255 -1.5778 -1.6490
 1424TIP3   OH225762   5.444   4.913   6.259  0.4027 -0.1068 -0.0835
 1424TIP3    H125763   5.415   4.909   6.168 -0.3700  0.6538  0.1269
 1424TIP3    H225764   5.399   4.840   6.302 -0.2875  0.3503 -0.0212
 1425TIP3   OH225765   5.339   1.267   5.883 -0.2871 -0.2147  0.0658
 1425TIP3    H125766   5.408   1.203   5.901 -1.6914 -1.2791  1.7296
 1425TIP3    H225767   5.348   1.332   5.953  0.3309  0.7596 -0.9018
 1426TIP3   OH225768   2.407   2.714   5.626 -0.2200 -0.3712  0.1588
 1426TIP3    H125769   2.395   2.791   5.682 -1.0857 -0.3416 -0.0633
 1426TIP3    H225770   2.443   2.749   5.544 -1.5165 -0.0699 -0.2995
 1427TIP3   OH225771   3.286   1.116  13.833  0.1193 -0.3675 -0.1385
 1427TIP3    H125772   3.263   1.163  13.913 -0.5367 -3.1342  1.3662
 1427TIP3    H225773   3.243   1.165  13.763 -0.1209  1.5287  1.3043
 1428TIP3   OH225774   4.763   5.741  11.966 -0.6145  0.2622  0.0684
 1428TIP3    H125775   4.756   5.832  11.940 -0.1171  0.3431  0.2129
 1428TIP3    H225776   4.683   5.700  11.934 -1.1780  0.9026  0.6524
 1429TIP3   OH225777   6.101   0.807   3.395  0.1009  0.2976 -0.3090
 1429TIP3    H125778   6.142   0.887   3.429 -0.8426  0.4381  0.4954
 1429TIP3    H225779   6.150   0.788   3.315  1.7361  0.4837  0.6115
 1430TIP3   OH225780   3.612   5.695   6.066  0.2997 -0.2370 -0.3922
 1430TIP3    H125781   3.611   5.660   6.155  1.0656  0.2465 -0.1836
 1430TIP3    H225782   3.646   5.624   6.012 -0.7786 -0.7538 -0.4041
 1431TIP3   OH225783   4.264   3.981   3.982 -0.5109  0.0333  0.4220
 1431TIP3    H125784   4.281   3.901   3.933 -0.9708  0.1261  0.1106
 1431TIP3    H225785   4.326   3.978   4.055  0.7444  0.2898 -0.6091
 1432TIP3   OH225786   6.082   1.787  14.541  0.8698  0.1324 -0.1986
 1432TIP3    H125787   6.012   1.801  14.604  0.8335  1.9636 -0.6089
 1432TIP3    H225788   6.156   1.837  14.577  0.9843  0.8145 -1.3651
 1433TIP3   OH225789   2.333   3.098   4.688  0.2777 -0.1027  0.6258
 1433TIP3    H125790   2.360   3.013   4.652 -0.6748 -0.1975  0.1223
 1433TIP3    H225791   2.413   3.133   4.727  1.6485  0.5063 -2.5767
 1434TIP3   OH225792   2.509   0.156   1.800  0.3675  0.2771 -0.1089
 1434TIP3    H125793   2.539   0.247   1.803 -0.6719  0.6106  0.1533
 1434TIP3    H225794   2.416   0.161   1.820  0.0050 -0.7084 -1.5427
 1435TIP3   OH225795   4.980   0.826   3.202 -0.0954  0.1013  0.3372
 1435TIP3    H125796   4.976   0.793   3.292  1.7193 -0.8986  0.0692
 1435TIP3    H225797   4.891   0.815   3.169 -1.0258  1.3960  2.3098
 1436TIP3   OH225798   2.677   0.266   2.089  0.2829 -0.1054 -0.2860
 1436TIP3    H125799   2.624   0.284   2.011  0.1148 -1.3656 -0.4730
 1436TIP3    H225800   2.617   0.221   2.149  0.7923 -0.3768  0.0248
 1437TIP3   OH225801   3.754   2.770  13.668  0.5527  0.4019 -0.0033
 1437TIP3    H125802   3.842   2.744  13.694  0.4305 -0.5517 -0.5162
 1437TIP3    H225803   3.768   2.831  13.595  0.7568 -1.2495 -1.3763
 1438TIP3   OH225804   3.768   2.843  16.969  0.5185 -0.0672  0.0406
 1438TIP3    H125805   3.738   2.859  17.058  0.5556 -1.8591  0.3982
 1438TIP3    H225806   3.862   2.855  16.972  0.3674  1.1743 -0.0642
 1439TIP3   OH225807   2.099   4.261   0.206 -0.1186 -0.2558  0.1074
 1439TIP3    H125808   2.163   4.296   0.144  0.1869 -1.1609 -0.0978
 1439TIP3    H225809   2.151   4.227   0.278 -0.4150 -0.2037  0.3455
 1440TIP3   OH225810   0.555   5.440   5.316  0.0968  0.7809 -0.3690
 1440TIP3    H125811   0.491   5.467   5.381  0.8499  1.7063 -0.0023
 1440TIP3    H225812   0.504   5.395   5.249 -0.5096 -1.6613  1.6402
 1441TIP3   OH225813   1.655   0.708  11.860 -0.0180  0.3868 -0.2209
 1441TIP3    H125814   1.566   0.680  11.882 -0.4739  0.9230 -1.3206
 1441TIP3    H225815   1.712   0.652  11.913 -0.8750 -2.6256 -2.3493
 1442TIP3   OH225816   0.129   3.601   0.480  0.9574 -0.2753 -1.0742
 1442TIP3    H125817   0.152   3.662   0.410 -0.5595  3.0674  1.1746
 1442TIP3    H225818   0.201   3.610   0.543 -0.4106  1.0786  0.3564
 1443TIP3   OH225819   5.009   4.558  14.070  0.2894  0.0750  0.5875
 1443TIP3    H125820   5.037   4.543  13.980 -1.1619  0.3223  0.0850
 1443TIP3    H225821   4.965   4.642  14.069 -2.7921 -1.4572  0.7840
 1444TIP3   OH225822   6.391   1.368  14.707  0.0463  0.7399 -0.1905
 1444TIP3    H125823   6.320   1.308  14.684  0.0129  0.8088 -0.2651
 1444TIP3    H225824   6.376   1.388  14.800  1.0119 -0.6677  0.2751
 1445TIP3   OH225825   2.675   5.522   2.854  0.1533  0.2039  0.1320
 1445TIP3    H125826   2.673   5.430   2.879  1.3929  0.1755  0.1655
 1445TIP3    H225827   2.689   5.569   2.937  0.4042  0.3662 -0.0018
 1446TIP3   OH225828   3.346   1.898  11.479  0.3514 -0.4890 -0.1544
 1446TIP3    H125829   3.286   1.877  11.550  1.4379 -0.9185  0.6456
 1446TIP3    H225830   3.433   1.895  11.519  0.8567  1.0718 -1.0681
 1447TIP3   OH225831   1.512   4.019  16.662  0.5444  0.2239  0.5628
 1447TIP3    H125832   1.580   4.063  16.611 -0.0602  0.3367 -0.1603
 1447TIP3    H225833   1.555   3.942  16.700  1.1384  0.4448  0.3317
 1448TIP3   OH225834   4.013   4.151  13.700  0.0084  0.3101  0.1554
 1448TIP3    H125835   3.952   4.173  13.630  1.8532 -0.2873 -1.6987
 1448TIP3    H225836   4.007   4.224  13.762  0.0414  2.0002 -1.7913
 1449TIP3   OH225837   5.507   0.980  16.339 -0.0594  0.2620  0.3327
 1449TIP3    H125838   5.427   1.008  16.383  0.4848  0.3745  1.2736
 1449TIP3    H225839   5.573   0.979  16.408  0.4250 -1.2399 -0.1181
 1450TIP3   OH225840   3.273   4.534  16.336  0.1642  0.0697  0.2217
 1450TIP3    H125841   3.183   4.513  16.361  0.6903 -1.0656  1.1924
 1450TIP3    H225842   3.270   4.544  16.241 -0.4365 -2.7500 -0.0830
 1451TIP3   OH225843   1.626   3.728   6.010 -0.0753  0.0115 -0.4111
 1451TIP3    H125844   1.533   3.720   6.032 -0.3106  0.9460 -1.0517
 1451TIP3    H225845   1.671   3.715   6.093 -0.6050 -3.5398 -0.5913
 1452TIP3   OH225846   5.650   1.565   1.198  0.0633  0.4521 -0.0746
 1452TIP3    H125847   5.667   1.584   1.105 -2.4538 -2.1448 -1.1489
 1452TIP3    H225848   5.608   1.643   1.232 -1.5366  0.4326 -1.9008
 1453TIP3   OH225849   5.782   0.935  12.468  0.3591 -0.7152  0.4496
 1453TIP3    H125850   5.731   0.859  12.440 -1.1142  0.6087 -0.5916
 1453TIP3    H225851   5.873   0.906  12.464 -0.0600 -1.9059 -1.6496
 1454TIP3   OH225852   0.708   3.719  16.408 -0.3041  0.0192 -0.7909
 1454TIP3    H125853   0.623   3.675  16.399 -0.3328  0.1787 -1.3562
 1454TIP3    H225854   0.755   3.696  16.328  0.3033 -0.3161 -0.3360
 1455TIP3   OH225855   5.458   2.998   5.308  0.1209 -0.7179 -0.6071
 1455TIP3    H125856   5.550   2.981   5.290  0.0705  0.8913 -2.4513
 1455TIP3    H225857   5.453   3.092   5.325 -1.1364 -0.8429 -0.2190
 1456TIP3   OH225858   6.819   6.653   0.430 -0.0784  0.1876 -0.1896
 1456TIP3    H125859   6.729   6.683   0.447 -0.1873 -1.3127  2.0911
 1456TIP3    H225860   6.873   6.710   0.484  0.1006 -0.6788  0.5559
 1457TIP3   OH225861   0.054   4.289  11.919 -0.0123 -0.3265 -0.3138
 1457TIP3    H125862   0.108   4.338  11.858  0.8544  0.5205  1.0951
 1457TIP3    H225863  -0.022   4.346  11.935  0.2832 -0.0731  0.2072
 1458TIP3   OH225864   2.775   4.797  16.773 -0.2759  0.0481  0.4126
 1458TIP3    H125865   2.804   4.707  16.789 -1.2742 -0.0890  1.5055
 1458TIP3    H225866   2.819   4.822  16.691 -1.0009 -1.8766 -0.5866
 1459TIP3   OH225867   4.228   0.408   6.795 -0.3255 -0.0998  0.7040
 1459TIP3    H125868   4.274   0.395   6.878 -0.1508  0.2015  0.6547
 1459TIP3    H225869   4.155   0.345   6.798  0.2421 -0.7664  0.6618
 1460TIP3   OH225870   5.054   2.398  14.020 -0.4607  0.2307 -0.0038
 1460TIP3    H125871   5.113   2.456  14.069  0.5700  0.9195 -2.0358
 1460TIP3    H225872   5.029   2.331  14.084  0.3042  1.5011  1.6674
 1461TIP3   OH225873   2.357   3.190   3.507 -0.1037 -0.3499  0.4162
 1461TIP3    H125874   2.428   3.180   3.570 -0.9544  0.7405  1.5523
 1461TIP3    H225875   2.284   3.226   3.557  0.1939  3.5890 -1.7517
 1462TIP3   OH225876   4.006   0.045   3.250  0.3759 -0.1169  0.4537
 1462TIP3    H125877   4.084   0.016   3.202  0.8782 -0.0345  1.2234
 1462TIP3    H225878   3.937  -0.014   3.220  0.9675 -0.8656  0.5587
 1463TIP3   OH225879   0.882   0.778  16.616  0.5365 -0.0069  0.2112
 1463TIP3    H125880   0.788   0.777  16.633  0.3511 -0.8639 -0.8448
 1463TIP3    H225881   0.911   0.865  16.646 -0.3539 -0.2197  1.7104
 1464TIP3   OH225882   1.989   2.461  12.787 -0.0121 -0.6964  0.2110
 1464TIP3    H125883   2.005   2.540  12.735 -0.0292 -0.5608  0.4143
 1464TIP3    H225884   1.948   2.492  12.867  1.6705 -0.7089  1.0949
 1465TIP3   OH225885   4.680   4.595   4.706  0.4070 -0.0135  0.4086
 1465TIP3    H125886   4.677   4.662   4.774  0.9473  1.3464 -0.8813
 1465TIP3    H225887   4.759   4.615   4.656 -0.2311 -0.7251 -0.9014
 1466TIP3   OH225888   5.782   5.869  12.776  0.5656  0.0068 -0.0568
 1466TIP3    H125889   5.787   5.958  12.740 -0.6042 -0.5879 -1.7272
 1466TIP3    H225890   5.739   5.818  12.708  0.5972 -1.7042  1.1829
 1467TIP3   OH225891   4.218   2.084  13.479 -0.0547  0.1152 -0.1179
 1467TIP3    H125892   4.258   2.117  13.559 -0.9791  0.0037  0.3950
 1467TIP3    H225893   4.164   2.010  13.507  0.0782 -0.2994 -0.9227
 1468TIP3   OH225894   2.822   2.419  17.211  0.5446  0.0899  0.0736
 1468TIP3    H125895   2.784   2.501  17.242  0.5319  0.2904 -0.4698
 1468TIP3    H225896   2.811   2.358  17.284 -1.9451 -0.2213 -0.5286
 1469TIP3   OH225897   0.737   0.813  11.577 -0.1952 -0.0506 -0.1460
 1469TIP3    H125898   0.728   0.796  11.483 -0.3629  0.0492 -0.1498
 1469TIP3    H225899   0.646   0.819  11.608 -0.1382  0.4052 -0.0662
 1470TIP3   OH225900   0.296   2.582   1.302 -0.2498 -0.6945  0.6645
 1470TIP3    H125901   0.211   2.624   1.284 -0.4545 -1.2478  0.3357
 1470TIP3    H225902   0.280   2.489   1.288  0.6288 -0.7243 -0.1913
 1471TIP3   OH225903   2.998   4.333   5.424 -0.2541 -0.2104  0.6281
 1471TIP3    H125904   2.993   4.371   5.336  0.5955  0.9836  1.0803
 1471TIP3    H225905   2.911   4.344   5.460 -0.9085 -1.6744 -0.4452
 1472TIP3   OH225906   6.657   1.285  14.816 -0.3364 -0.2293  0.1571
 1472TIP3    H125907   6.638   1.377  14.798  0.6220 -0.3254 -1.4394
 1472TIP3    H225908   6.580   1.254  14.863 -1.5770  0.8727 -1.0969
 1473TIP3   OH225909   6.366   3.776   0.194 -0.1156  0.1613 -0.3440
 1473TIP3    H125910   6.446   3.786   0.246  1.4328 -0.4180 -2.5035
 1473TIP3    H225911   6.380   3.694   0.146 -1.3499  0.8295 -1.8743
 1474TIP3   OH225912   1.226   5.621  12.503 -0.4029  0.4616 -0.2814
 1474TIP3    H125913   1.317   5.648  12.492  0.2159 -0.5159  2.0266
 1474TIP3    H225914   1.232   5.539  12.552 -2.4300 -1.1234 -2.6407
 1475TIP3   OH225915   0.079   2.233  14.002 -0.5755 -0.0887 -0.0410
 1475TIP3    H125916   0.072   2.154  14.056  0.1847  0.1958  0.4732
 1475TIP3    H225917   0.091   2.304  14.064 -2.5090  0.6218 -0.4186
 1476TIP3   OH225918   4.695   5.290   5.346 -0.5226  0.2149  0.0798
 1476TIP3    H125919   4.750   5.282   5.268  1.6306  0.0768  1.5724
 1476TIP3    H225920   4.607   5.271   5.315  0.2256  0.6019 -2.4121
 1477TIP3   OH225921   6.378   3.987  11.026 -0.0977 -0.0174 -0.2892
 1477TIP3    H125922   6.387   3.929  10.949 -1.6195 -0.5139 -0.1038
 1477TIP3    H225923   6.335   4.065  10.992  1.4286  0.7941 -0.4161
 1478TIP3   OH225924   0.933   4.957  16.961  0.1765  0.1514 -0.2555
 1478TIP3    H125925   0.883   4.892  16.912  1.5060 -0.2205 -1.1474
 1478TIP3    H225926   0.959   5.022  16.896 -2.3347  2.3799  0.8655
 1479TIP3   OH225927   2.641   2.975   1.811  0.4529 -0.6011 -0.3554
 1479TIP3    H125928   2.645   3.070   1.813 -0.0763 -0.6034  2.6189
 1479TIP3    H225929   2.579   2.955   1.740 -0.1250  1.2636 -0.3999
 1480TIP3   OH225930   3.305   5.394   2.138 -0.2072 -0.3028  0.0542
 1480TIP3    H125931   3.244   5.464   2.161 -0.3086  0.1511 -1.5302
 1480TIP3    H225932   3.331   5.356   2.222 -2.6944 -0.5382  0.7672
 1481TIP3   OH225933   1.612   3.605   4.437 -0.0664 -0.6397 -0.0131
 1481TIP3    H125934   1.589   3.519   4.472 -0.2297 -0.5651  0.0662
 1481TIP3    H225935   1.689   3.632   4.488 -0.8144 -0.1560  0.8883
 1482TIP3   OH225936   1.181   3.576   3.164  0.6676 -0.3216 -0.0552
 1482TIP3    H125937   1.158   3.655   3.116 -0.2194  0.3537  1.4558
 1482TIP3    H225938   1.242   3.530   3.106 -0.4142  0.4405 -1.8361
 1483TIP3   OH225939   3.826   5.504  15.855  0.0742  0.3912  0.4752
 1483TIP3    H125940   3.874   5.581  15.885 -0.3856  1.3135 -1.1183
 1483TIP3    H225941   3.890   5.432  15.861  1.1218  1.2727  0.0805
 1484TIP3   OH225942   1.529   4.294   0.503  0.1788 -0.1943 -0.0257
 1484TIP3    H125943   1.599   4.242   0.542  0.3279  1.7118  2.3316
 1484TIP3    H225944   1.574   4.359   0.449  0.0604 -1.1493 -1.3117
 1485TIP3   OH225945   5.802   0.752   2.259  0.2479 -0.2047 -0.2832
 1485TIP3    H125946   5.781   0.731   2.350 -1.1284 -1.6856 -0.9260
 1485TIP3    H225947   5.720   0.786   2.223  1.2858  2.2203 -0.4809
 1486TIP3   OH225948   1.064   4.558   4.943  0.2342  0.1966 -0.1119
 1486TIP3    H125949   1.087   4.534   5.033  0.6452 -1.5940 -0.6674
 1486TIP3    H225950   0.975   4.593   4.950  0.6910  1.1252  1.1466
 1487TIP3   OH225951   5.810   4.977   5.615 -0.6683 -0.4908 -0.4479
 1487TIP3    H125952   5.806   4.935   5.700 -0.3009 -0.9999 -0.6810
 1487TIP3    H225953   5.844   4.910   5.556  0.7733  0.3733 -0.6456
 1488TIP3   OH225954   5.656   6.376   3.777 -0.2806 -0.0553  0.1030
 1488TIP3    H125955   5.744   6.413   3.771 -0.6642  0.9397  0.5960
 1488TIP3    H225956   5.599   6.451   3.793 -1.4397 -0.4744 -1.9180
 1489TIP3   OH225957   6.107   4.987  13.695  0.1577  0.1466 -0.0514
 1489TIP3    H125958   6.096   5.081  13.709 -2.1516 -0.0689 -0.1736
 1489TIP3    H225959   6.035   4.948  13.744  1.9864 -1.6654  1.2444
 1490TIP3   OH225960   3.421   2.398   2.638  0.1386 -0.5369 -0.5143
 1490TIP3    H125961   3.450   2.452   2.712 -0.9685  1.4128 -1.4714
 1490TIP3    H225962   3.456   2.311   2.658  2.6813  0.6787  0.6588
 1491TIP3   OH225963   1.415   1.773   3.672  0.6377  0.3741 -0.5803
 1491TIP3    H125964   1.443   1.749   3.584 -0.1641  1.1816 -1.0666
 1491TIP3    H225965   1.383   1.863   3.663  0.7407  0.5353  0.5747
 1492TIP3   OH225966   3.565   4.577   5.583  1.0120 -0.4953  0.3696
 1492TIP3    H125967   3.480   4.605   5.550  1.0658  0.8737  1.3712
 1492TIP3    H225968   3.625   4.588   5.508  0.5293 -0.4356 -0.0111
 1493TIP3   OH225969   6.330   4.474   6.803 -0.1915 -0.1770  0.1107
 1493TIP3    H125970   6.332   4.467   6.708 -1.5849 -2.1392  0.1730
 1493TIP3    H225971   6.418   4.449   6.831 -0.0081 -0.3810 -0.6312
 1494TIP3   OH225972   2.143   1.407  16.841 -0.0686 -0.2896  0.0223
 1494TIP3    H125973   2.133   1.386  16.934  0.6890 -0.0190  0.1696
 1494TIP3    H225974   2.232   1.381  16.820 -0.2114 -0.2714 -0.6083
 1495TIP3   OH225975   6.223   1.612  15.719  0.1500 -0.0332  0.0543
 1495TIP3    H125976   6.198   1.519  15.715 -0.2533  0.0598  0.3534
 1495TIP3    H225977   6.213   1.643  15.630 -2.3548  0.3879  0.4281
 1496TIP3   OH225978   6.179   3.269   6.016 -0.6063 -0.0459 -0.0036
 1496TIP3    H125979   6.141   3.326   6.082 -0.7205 -1.2649  1.0067
 1496TIP3    H225980   6.149   3.305   5.933 -0.5963  1.4114  0.6062
 1497TIP3   OH225981   3.066   3.809   2.040 -0.5585  0.4311  0.2436
 1497TIP3    H125982   3.019   3.892   2.048 -0.6013  0.2554  2.0040
 1497TIP3    H225983   3.149   3.824   2.085 -0.1678 -0.1987 -0.2573
 1498TIP3   OH225984   3.085   0.382   1.593 -0.2395 -0.0919  0.1595
 1498TIP3    H125985   3.148   0.436   1.545 -0.1726 -0.9331 -0.7220
 1498TIP3    H225986   3.078   0.423   1.679  0.2890  0.9466 -0.2882
 1499TIP3   OH225987   1.299   1.294  10.666 -0.6085 -0.2251  0.2613
 1499TIP3    H125988   1.230   1.269  10.727  1.0530 -1.1436  1.8140
 1499TIP3    H225989   1.363   1.223  10.672  0.0949  0.2191 -1.7384
 1500TIP3   OH225990   2.216   5.812  11.584  0.6364 -0.2706 -0.1225
 1500TIP3    H125991   2.126   5.806  11.551  0.0862  1.3821  1.0361
 1500TIP3    H225992   2.207   5.816  11.679  1.9097  0.4627 -0.0259
 1501TIP3   OH225993   6.518   4.462   5.718 -0.1957 -0.0338 -0.3719
 1501TIP3    H125994   6.515   4.408   5.639  0.6297  0.3418 -0.6669
 1501TIP3    H225995   6.427   4.472   5.744 -0.4725 -0.1554 -1.2812
 1502TIP3   OH225996   4.689   0.455   5.756 -0.3650  0.4616 -0.7869
 1502TIP3    H125997   4.756   0.445   5.689 -0.2595  1.0395 -0.7658
 1502TIP3    H225998   4.609   0.422   5.716 -0.1137 -0.0285 -0.8861
 1503TIP3   OH225999   4.615   5.643  13.536 -0.4974 -0.1779  0.2531
 1503TIP3    H126000   4.565   5.631  13.617 -1.1828 -0.2289 -0.1784
 1503TIP3    H226001   4.706   5.623  13.561 -0.9596 -1.9897  0.5965
 1504TIP3   OH226002   6.299   2.692  13.386  0.1672  0.3967 -0.4390
 1504TIP3    H126003   6.283   2.598  13.374 -3.1657  0.7714  0.5033
 1504TIP3    H226004   6.264   2.733  13.307  1.3790  0.8838 -0.7332
 1505TIP3   OH226005   5.443   2.287  12.667  0.2201  0.0358 -0.2743
 1505TIP3    H126006   5.417   2.226  12.598  0.1529 -0.4495  0.1737
 1505TIP3    H226007   5.534   2.265  12.686  0.4118  0.5480 -0.6036
 1506TIP3   OH226008   0.786   2.641  12.398 -0.2336  0.7154  0.2400
 1506TIP3    H126009   0.846   2.571  12.370  0.5791  1.4880  0.0270
 1506TIP3    H226010   0.839   2.720  12.395 -1.7595  1.6967 -1.6648
 1507TIP3   OH226011   5.892   0.495  17.058 -0.0803  0.3477 -0.1598
 1507TIP3    H126012   5.852   0.450  16.984  0.5674 -0.3794 -0.0703
 1507TIP3    H226013   5.981   0.516  17.029  0.7565 -1.4811  1.0229
 1508TIP3   OH226014   2.136   2.986  12.130  0.1956 -0.3362  0.2868
 1508TIP3    H126015   2.223   3.007  12.161 -0.2963  0.7617  0.9567
 1508TIP3    H226016   2.136   3.013  12.038 -0.2499  2.1663  0.9838
 1509TIP3   OH226017   1.695   6.296  16.178  0.1416 -0.0976  0.3910
 1509TIP3    H126018   1.778   6.279  16.222 -0.1438 -1.3733  0.4536
 1509TIP3    H226019   1.720   6.340  16.096  0.8294  0.0373  0.6701
 1510TIP3   OH226020   6.038   0.374   6.285 -0.3923  0.3692  0.4258
 1510TIP3    H126021   5.993   0.384   6.369  1.2728  2.6348  1.0973
 1510TIP3    H226022   6.051   0.463   6.253  0.6667 -0.3788 -1.3397
 1511TIP3   OH226023   5.790   1.470   5.195  0.0862  0.0288 -0.0222
 1511TIP3    H126024   5.799   1.563   5.215  1.4041  0.5631 -2.7174
 1511TIP3    H226025   5.815   1.425   5.275  5.5996  1.9533 -0.4528
 1512TIP3   OH226026   4.890   3.444   4.177  0.2348 -0.3125 -0.4864
 1512TIP3    H126027   4.822   3.425   4.111  0.3113 -1.1213 -0.3330
 1512TIP3    H226028   4.904   3.538   4.169 -1.9262  0.1231  0.4436
 1513TIP3   OH226029   6.185   6.565   6.232  0.1928  0.3600 -0.3095
 1513TIP3    H126030   6.149   6.483   6.198 -2.0865  0.1373  2.4035
 1513TIP3    H226031   6.265   6.539   6.278  0.0249 -0.2112 -0.3416
 1514TIP3   OH226032   0.648   4.498  11.472 -0.3479  0.1972  0.5159
 1514TIP3    H126033   0.651   4.555  11.548 -2.2009  0.1198  0.6631
 1514TIP3    H226034   0.592   4.543  11.410  0.8001  0.0536 -0.6575
 1515TIP3   OH226035   2.953   4.700  16.039 -0.0224  0.4276 -0.4942
 1515TIP3    H126036   2.944   4.773  15.977  0.3439  0.3897 -0.5944
 1515TIP3    H226037   2.899   4.631  16.002  1.7479 -0.2846 -1.8248
 1516TIP3   OH226038   5.271   6.510   3.586  0.0161 -0.1776 -0.5164
 1516TIP3    H126039   5.283   6.447   3.515 -0.6579  0.9644 -1.6705
 1516TIP3    H226040   5.199   6.565   3.556 -0.2632  0.3302  1.0625
 1517TIP3   OH226041   4.991   3.603   0.013  0.0182 -0.0938  0.1035
 1517TIP3    H126042   5.057   3.534  -0.001  0.0773  0.0069 -0.1122
 1517TIP3    H226043   4.916   3.575  -0.039  0.3444  0.4322 -0.6677
 1518TIP3   OH226044   6.286   0.122   6.584 -0.0278  0.2272 -0.3864
 1518TIP3    H126045   6.321   0.180   6.651 -0.7760  0.8065 -0.4941
 1518TIP3    H226046   6.244   0.051   6.632  0.5725 -0.0421 -0.2538
 1519TIP3   OH226047   2.206   3.024  12.994  0.7311 -0.4279 -0.1344
 1519TIP3    H126048   2.224   3.118  12.997  2.2604 -0.6946 -0.6599
 1519TIP3    H226049   2.264   2.990  12.927  0.3641 -1.7972  0.2198
 1520TIP3   OH226050   5.226   0.454   3.634 -0.1074  0.1336  0.3424
 1520TIP3    H126051   5.187   0.502   3.561  0.2917  0.0300  0.0585
 1520TIP3    H226052   5.302   0.411   3.596 -0.2162 -0.3740  0.6949
 1521TIP3   OH226053   2.916   1.078  16.935  0.1966 -0.0956 -0.0704
 1521TIP3    H126054   2.958   1.149  16.982 -0.4328  1.3474 -1.6284
 1521TIP3    H226055   2.920   1.003  16.994  0.0599  1.4708  1.9560
 1522TIP3   OH226056   4.461   1.059  12.895 -0.7080 -0.0111 -0.0251
 1522TIP3    H126057   4.430   0.982  12.942 -1.7925  0.0280 -0.6747
 1522TIP3    H226058   4.518   1.104  12.958 -0.2417 -1.2157  0.4288
 1523TIP3   OH226059   5.094   3.870   0.726  0.0479  0.2265  1.0861
 1523TIP3    H126060   5.095   3.776   0.739  0.0406  0.1234  0.3689
 1523TIP3    H226061   5.049   3.883   0.643  0.9272  0.7959  0.6836
 1524TIP3   OH226062   6.343   6.543   3.376 -0.3725 -0.5431  0.2711
 1524TIP3    H126063   6.418   6.527   3.434  0.1711  0.8654 -0.0138
 1524TIP3    H226064   6.350   6.475   3.309  0.7584 -0.3229  0.1503
 1525TIP3   OH226065   4.310   2.764  16.364 -0.7038 -0.4704  0.2815
 1525TIP3    H126066   4.271   2.716  16.291 -1.5694 -1.0169  1.0891
 1525TIP3    H226067   4.350   2.842  16.324 -1.1174 -0.7971 -0.7666
 1526TIP3   OH226068   2.961   2.186  12.280 -0.4791  0.3208 -0.0041
 1526TIP3    H126069   3.027   2.228  12.225 -0.4417  0.5629  0.2207
 1526TIP3    H226070   2.881   2.189  12.228 -0.6275  1.2595  0.2642
 1527TIP3   OH226071   3.756   1.946  16.747  0.2388 -0.1903  0.3669
 1527TIP3    H126072   3.831   1.997  16.779  0.2545 -0.0904  0.1710
 1527TIP3    H226073   3.697   2.011  16.708 -0.3960 -0.1549  1.3664
 1528TIP3   OH226074   6.164   4.971  15.657  0.5988  0.4717  0.1356
 1528TIP3    H126075   6.187   4.952  15.748 -0.3689  2.0307  0.7237
 1528TIP3    H226076   6.070   4.987  15.658  0.8571  2.1857 -0.8394
 1529TIP3   OH226077   3.171   1.997   5.611 -0.1164  0.0755  0.5471
 1529TIP3    H126078   3.092   2.029   5.567 -0.2932  0.1930  0.9538
 1529TIP3    H226079   3.139   1.944   5.684  0.1800  0.0672  0.6709
 1530TIP3   OH226080   2.886   6.089   1.727 -0.2554  0.1209 -0.5092
 1530TIP3    H126081   2.838   6.160   1.770  0.4962 -0.4812  1.3590
 1530TIP3    H226082   2.943   6.134   1.664  2.2495  1.4393  2.5877
 1531TIP3   OH226083   0.403   3.512   4.330  0.2868 -0.1836  0.3692
 1531TIP3    H126084   0.374   3.421   4.336  2.7112 -1.0379 -0.2398
 1531TIP3    H226085   0.479   3.509   4.271  1.3728  1.9766  1.6029
 1532TIP3   OH226086   3.721   2.510   3.518  0.2288  0.3724  0.2580
 1532TIP3    H126087   3.803   2.466   3.495  0.3715  0.3088  0.8748
 1532TIP3    H226088   3.708   2.490   3.611 -1.6570 -1.5068 -0.3559
 1533TIP3   OH226089   0.691   2.914   0.507  0.0280  0.0811  0.1193
 1533TIP3    H126090   0.605   2.906   0.548  0.9542  0.6700  2.2856
 1533TIP3    H226091   0.748   2.858   0.561  0.7421 -1.3840 -2.1023
 1534TIP3   OH226092   6.678   6.727   4.674  0.2228 -0.0595 -0.5203
 1534TIP3    H126093   6.762   6.689   4.699  0.9007  0.4764 -1.8884
 1534TIP3    H226094   6.699   6.780   4.597 -0.9348  1.9919  0.5423
 1535TIP3   OH226095   3.061   1.961  11.293  0.7625  0.2991 -0.4603
 1535TIP3    H126096   3.128   1.893  11.296 -0.0701 -0.4484  2.5335
 1535TIP3    H226097   2.986   1.919  11.252  1.0310  0.1144 -0.7639
 1536TIP3   OH226098   4.869   3.016   3.848 -0.2003 -0.5609 -0.1454
 1536TIP3    H126099   4.797   2.955   3.832  0.2501 -1.1711  0.1673
 1536TIP3    H226100   4.827   3.102   3.853 -1.1205 -1.1109  1.8240
 1537TIP3   OH226101   0.656   3.819  14.878  0.4161 -0.5178 -0.0609
 1537TIP3    H126102   0.701   3.770  14.947  0.6704  1.5843  1.3306
 1537TIP3    H226103   0.726   3.846  14.819  0.1095 -2.9438 -1.5882
 1538TIP3   OH226104   6.711   0.242  16.138 -0.7857 -0.4711 -0.4491
 1538TIP3    H126105   6.766   0.164  16.151 -0.5230  0.0095  1.4197
 1538TIP3    H226106   6.696   0.244  16.044  2.2370 -0.7500 -0.9946
 1539TIP3   OH226107   1.093   4.961  17.222  0.4605 -0.4055 -0.3201
 1539TIP3    H126108   1.044   4.893  17.268 -0.0736  1.1210  1.4438
 1539TIP3    H226109   1.067   4.953  17.131  0.2717 -2.4364 -0.1107
 1540TIP3   OH226110   1.400   5.598  11.646  0.6505  0.0952 -0.0760
 1540TIP3    H126111   1.402   5.616  11.740 -0.4882 -1.1800  0.2066
 1540TIP3    H226112   1.458   5.522  11.636 -1.1934 -1.3319 -0.0339
 1541TIP3   OH226113   6.802   5.547   4.548 -0.4402  0.0878 -0.0014
 1541TIP3    H126114   6.890   5.584   4.536 -0.9925  1.9218  1.3600
 1541TIP3    H226115   6.751   5.581   4.475 -0.3946  0.2004  0.0196
 1542TIP3   OH226116   6.569   3.564   0.428  0.0035 -0.0870 -0.1411
 1542TIP3    H126117   6.581   3.659   0.426  0.0755 -0.1183 -1.6092
 1542TIP3    H226118   6.620   3.531   0.354  0.6315 -1.3582  0.8250
 1543TIP3   OH226119   5.921   0.515  15.453 -0.5871  0.2750  0.2781
 1543TIP3    H126120   5.832   0.489  15.479 -0.9098 -0.4506 -1.5310
 1543TIP3    H226121   5.930   0.604  15.488 -1.2740 -0.3726  2.2240
 1544TIP3   OH226122   3.633   2.466  15.043 -0.3816 -0.3802  0.8565
 1544TIP3    H126123   3.659   2.376  15.058 -1.2241 -0.5460  1.3149
 1544TIP3    H226124   3.576   2.488  15.116 -1.3926  0.0375 -0.0360
 1545TIP3   OH226125   0.407   2.052   4.745  0.2188  0.4900 -0.5523
 1545TIP3    H126126   0.425   2.114   4.675  1.0461  0.5597 -0.2774
 1545TIP3    H226127   0.444   2.092   4.823 -0.9926  0.5674 -0.0041
 1546TIP3   OH226128   4.678   2.585  14.275 -0.2413  0.3643 -0.1242
 1546TIP3    H126129   4.729   2.562  14.352  0.2240  2.9038  0.3811
 1546TIP3    H226130   4.651   2.501  14.238 -0.8889 -0.9250  3.0690
 1547TIP3   OH226131   6.012   3.522   1.323  0.2968 -0.0116  0.3771
 1547TIP3    H126132   5.929   3.475   1.332 -0.6174  1.4787 -0.0858
 1547TIP3    H226133   6.024   3.531   1.229  0.8819 -0.0250  0.4487
 1548TIP3   OH226134   0.418   1.110   6.241 -0.1494  0.3136  0.7648
 1548TIP3    H126135   0.325   1.105   6.265 -0.2387 -0.3433  0.3083
 1548TIP3    H226136   0.437   1.203   6.240 -1.3043  0.5642 -0.9658
 1549TIP3   OH226137   4.769   3.550  11.473 -0.4091  0.0459 -0.0044
 1549TIP3    H126138   4.843   3.610  11.478 -1.2411  1.0980 -0.1694
 1549TIP3    H226139   4.789   3.495  11.397 -0.1010  0.7336 -0.4288
 1550TIP3   OH226140   1.229   3.313   1.256 -0.0851 -0.9327 -0.7664
 1550TIP3    H126141   1.252   3.386   1.199  1.2918 -0.7656 -0.0130
 1550TIP3    H226142   1.272   3.333   1.339 -1.3933 -1.5822  0.0783
 1551TIP3   OH226143   1.231   1.773  13.182 -0.1498 -0.7393  0.3485
 1551TIP3    H126144   1.178   1.831  13.237 -0.4144  0.9150 -1.5921
 1551TIP3    H226145   1.290   1.832  13.135 -0.4387 -2.0255 -1.6895
 1552TIP3   OH226146   3.203   3.717  11.525  0.2477 -0.2805 -0.0642
 1552TIP3    H126147   3.248   3.748  11.447  1.7521 -0.7343  0.6023
 1552TIP3    H226148   3.231   3.776  11.595  0.1763 -0.8438  0.4500
 1553TIP3   OH226149   5.968   1.424  11.755  0.5308  0.2941  0.5127
 1553TIP3    H126150   5.892   1.378  11.719  0.6117 -0.8712  1.7736
 1553TIP3    H226151   6.017   1.454  11.678  0.1674 -1.2382 -0.3350
 1554TIP3   OH226152   2.276   5.704  10.988 -0.9131  0.2183 -0.0394
 1554TIP3    H126153   2.290   5.635  10.922 -0.9461 -0.5413  0.7455
 1554TIP3    H226154   2.294   5.785  10.941  0.9571 -0.4255 -0.5060
 1555TIP3   OH226155   2.853   4.537   2.882  0.2635 -0.2089  1.0862
 1555TIP3    H126156   2.840   4.463   2.822 -0.0845  0.4563  0.3315
 1555TIP3    H226157   2.900   4.499   2.956  0.9775 -0.9868  0.2536
 1556TIP3   OH226158   2.428   6.066   0.850 -0.1978 -0.1034 -0.2795
 1556TIP3    H126159   2.350   6.012   0.867  0.6005 -1.1307  0.2263
 1556TIP3    H226160   2.501   6.005   0.860  0.6548  0.7683 -1.1232
 1557TIP3   OH226161   1.955   5.565  12.957  0.9372  0.2370  0.3846
 1557TIP3    H126162   2.039   5.600  12.929  0.9312 -1.9451 -2.6040
 1557TIP3    H226163   1.975   5.478  12.991  0.0461  0.1605  0.7305
 1558TIP3   OH226164   5.275   3.590  10.822  0.6125  0.0961  0.1249
 1558TIP3    H126165   5.259   3.677  10.861 -0.0769  0.9527 -2.0135
 1558TIP3    H226166   5.348   3.604  10.761 -0.3279 -0.5440 -1.1580
 1559TIP3   OH226167   4.706   6.356   0.894  0.1396  0.3655  0.2172
 1559TIP3    H126168   4.716   6.265   0.920  2.2086  0.5697  0.2184
 1559TIP3    H226169   4.685   6.352   0.801 -1.6783 -0.1680  0.6406
 1560TIP3   OH226170   3.550   4.749   2.432  0.0137  0.2487 -0.9263
 1560TIP3    H126171   3.641   4.742   2.404 -0.2171 -1.2098 -1.3740
 1560TIP3    H226172   3.546   4.701   2.514  0.2028  2.5980  0.4839
 1561TIP3   OH226173   6.787   3.873  11.990  0.1019  0.3204 -0.2611
 1561TIP3    H126174   6.823   3.940  12.047  0.3631  1.3223 -1.5729
 1561TIP3    H226175   6.701   3.908  11.964 -0.5572 -0.6998  0.5127
 1562TIP3   OH226176   3.923   4.300   3.273 -0.2268 -0.1139 -0.5598
 1562TIP3    H126177   3.835   4.274   3.245 -0.2175 -0.0982 -0.6030
 1562TIP3    H226178   3.950   4.366   3.209 -0.4420  0.3536 -0.1795
 1563TIP3   OH226179   1.967   5.080   0.379 -0.2950 -0.4559  0.1560
 1563TIP3    H126180   1.953   5.014   0.448  1.9848 -0.4786  0.6145
 1563TIP3    H226181   1.967   5.163   0.426 -3.3974 -0.0277 -0.4521
 1564TIP3   OH226182   1.436   3.989  14.358 -0.0928  0.9026 -0.0148
 1564TIP3    H126183   1.368   3.933  14.395  0.5103 -0.6867 -1.2620
 1564TIP3    H226184   1.516   3.961  14.402  0.5811 -0.7962 -2.2199
 1565TIP3   OH226185   1.602   3.815  11.261  0.4929  0.6868  0.1600
 1565TIP3    H126186   1.669   3.820  11.193  0.3944  2.9162  0.2074
 1565TIP3    H226187   1.542   3.887  11.242 -1.7857 -1.1285  0.2778
 1566TIP3   OH226188   0.680   0.589   4.099 -0.3174 -0.0530  0.0197
 1566TIP3    H126189   0.675   0.634   4.183 -1.7520 -0.0510 -0.0488
 1566TIP3    H226190   0.632   0.647   4.039 -0.2824 -0.6091 -0.5453
 1567TIP3   OH226191   1.272   4.558  14.736 -0.3565  0.0234 -0.2212
 1567TIP3    H126192   1.338   4.535  14.801 -2.5602 -1.2809  1.6280
 1567TIP3    H226193   1.289   4.499  14.662  0.6808 -0.1339  0.1393
 1568TIP3   OH226194   0.956   0.068   3.182 -0.0364 -0.4289  0.0447
 1568TIP3    H126195   0.883   0.044   3.125  0.4109 -1.0795 -0.2615
 1568TIP3    H226196   0.983  -0.015   3.223  2.0769 -0.6304 -1.6750
 1569TIP3   OH226197   4.912   3.569   6.177  0.2575  0.0531  0.8289
 1569TIP3    H126198   4.855   3.517   6.234 -0.3095  0.7784  0.9350
 1569TIP3    H226199   4.934   3.647   6.229  0.1825  0.4523  0.2682
 1570TIP3   OH226200   6.346   0.143   4.674 -0.4844  0.1448 -0.0512
 1570TIP3    H126201   6.352   0.160   4.768  0.2265 -1.0734  0.1434
 1570TIP3    H226202   6.260   0.175   4.649 -0.8941 -0.0024  1.1254
 1571TIP3   OH226203   1.387   2.742   3.115 -0.5568 -0.1655 -0.4283
 1571TIP3    H126204   1.451   2.672   3.108 -1.8006 -1.3213 -0.3664
 1571TIP3    H226205   1.426   2.804   3.177 -0.7073 -2.2095  1.7837
 1572TIP3   OH226206   2.027   2.582   6.371 -0.3888  0.2907  0.7872
 1572TIP3    H126207   2.105   2.606   6.321 -0.9540 -1.7612 -1.1347
 1572TIP3    H226208   1.974   2.662   6.373  0.3676  0.8328 -0.4955
 1573TIP3   OH226209   4.815   1.673  15.314 -0.1302  0.0125 -0.0443
 1573TIP3    H126210   4.734   1.689  15.362 -0.4061 -1.5676  0.0492
 1573TIP3    H226211   4.828   1.578  15.320  0.5014 -0.0472 -2.0054
 1574TIP3   OH226212   3.109   2.391   0.189  0.0115 -0.3787  0.0602
 1574TIP3    H126213   3.201   2.408   0.206 -0.4466  0.2396  2.0500
 1574TIP3    H226214   3.109   2.310   0.137  1.6463 -0.6762  0.4777
 1575TIP3   OH226215   2.031   1.192  11.238  0.0247 -0.2452 -0.1710
 1575TIP3    H126216   2.124   1.174  11.223 -0.4380 -3.0302  0.1377
 1575TIP3    H226217   1.987   1.153  11.162 -0.8891  1.5288 -0.5939
 1576TIP3   OH226218   0.436   3.860   2.813 -0.3224  0.1061  0.1955
 1576TIP3    H126219   0.438   3.769   2.842  2.0385 -0.5119 -1.7156
 1576TIP3    H226220   0.390   3.858   2.729 -1.3839  0.8788  0.7511
 1577TIP3   OH226221   4.809   4.815  13.440 -0.1778 -0.2937  0.0646
 1577TIP3    H126222   4.717   4.788  13.436 -0.2196  0.0675 -2.0292
 1577TIP3    H226223   4.812   4.896  13.389  1.0690  0.4406  1.2520
 1578TIP3   OH226224   1.184   2.994   3.305  0.4797  0.0968 -0.5005
 1578TIP3    H126225   1.101   3.014   3.262  0.5839  2.4647  0.3084
 1578TIP3    H226226   1.191   2.898   3.301 -1.1509  0.0354 -2.6279
 1579TIP3   OH226227   4.930   1.271   3.009 -0.2639  0.4507  0.1077
 1579TIP3    H126228   4.927   1.366   3.019  1.1001  0.4481  0.6706
 1579TIP3    H226229   4.916   1.237   3.098  0.8524  0.1744  0.1890
 1580TIP3   OH226230   2.996   3.787  11.965  0.1081 -0.0820 -0.4206
 1580TIP3    H126231   2.923   3.844  11.989  0.4551  0.0198  0.4203
 1580TIP3    H226232   3.028   3.753  12.049  1.0277 -0.1161 -0.7827
 1581TIP3   OH226233   0.306   4.587   0.546  0.3971  0.2175 -0.4723
 1581TIP3    H126234   0.400   4.572   0.547  0.1498 -1.2889  0.9764
 1581TIP3    H226235   0.269   4.508   0.507 -0.3412  0.4106 -0.1714
 1582TIP3   OH226236   1.510   0.331  15.696  0.0327  0.0704  0.3701
 1582TIP3    H126237   1.590   0.325  15.749  0.3322 -2.8838 -0.3579
 1582TIP3    H226238   1.539   0.368  15.613  0.3142  0.7480  0.7679
 1583TIP3   OH226239   0.352   0.366   2.524 -0.3716 -0.2774  0.4311
 1583TIP3    H126240   0.317   0.407   2.445  0.5771 -0.1220  0.0821
 1583TIP3    H226241   0.336   0.431   2.593 -1.5549 -0.5794  0.4423
 1584TIP3   OH226242   6.804   6.325   4.389 -0.5004  0.3621 -1.2393
 1584TIP3    H126243   6.733   6.289   4.336  0.6107 -0.2283 -2.3446
 1584TIP3    H226244   6.851   6.384   4.329  0.1710  0.4447 -0.6361
 1585TIP3   OH226245   0.362   4.307  16.846 -0.5821 -0.4014 -0.1577
 1585TIP3    H126246   0.327   4.373  16.905 -2.6625 -0.2516 -1.5098
 1585TIP3    H226247   0.439   4.347  16.807 -0.0271  0.0353  1.3829
 1586TIP3   OH226248   1.502   2.870   3.328 -0.0063 -0.6250 -0.8689
 1586TIP3    H126249   1.556   2.809   3.379 -0.0040 -0.9295 -1.2414
 1586TIP3    H226250   1.469   2.932   3.393  0.1245 -0.9242 -0.5171
 1587TIP3   OH226251   5.399   6.604  14.874  0.5657 -0.7110 -0.7131
 1587TIP3    H126252   5.416   6.665  14.946 -2.7772  0.6702 -1.0300
 1587TIP3    H226253   5.416   6.517  14.911 -0.9076 -0.0146  1.6971
 1588TIP3   OH226254   4.937   2.723   0.732 -0.0977  0.0625 -0.1838
 1588TIP3    H126255   4.896   2.671   0.802 -1.0239 -0.7090 -1.2887
 1588TIP3    H226256   4.883   2.801   0.724  1.0750  1.0562  1.2120
 1589TIP3   OH226257   3.173   4.817   3.504  0.0094 -0.4968 -0.4227
 1589TIP3    H126258   3.235   4.808   3.432  0.6510  0.1760  0.0481
 1589TIP3    H226259   3.094   4.854   3.462  0.5479  0.3556 -0.6921
 1590TIP3   OH226260   2.988   6.555  15.653 -0.5734  0.7413 -0.6621
 1590TIP3    H126261   3.015   6.476  15.605 -3.0510 -0.2400 -0.4731
 1590TIP3    H226262   2.899   6.538  15.681 -0.2179  2.5300  1.7695
 1591TIP3   OH226263   1.963   5.264   4.443  0.4475 -0.2183  0.1912
 1591TIP3    H126264   1.915   5.230   4.518  0.5212  0.0247  0.3513
 1591TIP3    H226265   1.900   5.264   4.372 -0.2895  1.6958  0.8094
 1592TIP3   OH226266   6.479   5.707  13.915 -0.2498 -0.5216 -0.6180
 1592TIP3    H126267   6.508   5.717  14.006  0.4560  0.5673 -0.9544
 1592TIP3    H226268   6.511   5.786  13.871  0.8797 -1.8491 -2.1907
 1593TIP3   OH226269   3.889   3.619  15.364  0.3849 -0.1030  0.2090
 1593TIP3    H126270   3.817   3.645  15.421 -0.1643 -0.7161 -0.1933
 1593TIP3    H226271   3.962   3.604  15.423  0.4189  1.2998  0.5465
 1594TIP3   OH226272   5.450   0.927   5.613 -0.1948 -0.0643  0.2334
 1594TIP3    H126273   5.437   0.977   5.533 -0.7338  0.3702  0.5868
 1594TIP3    H226274   5.495   0.847   5.585  0.0051  0.2791 -0.4364
 1595TIP3   OH226275   5.815   4.589   1.801  0.1495 -0.3339 -0.5188
 1595TIP3    H126276   5.743   4.537   1.838  0.8464 -0.4406  0.7121
 1595TIP3    H226277   5.828   4.554   1.713 -2.0517  0.4344 -1.1807
 1596TIP3   OH226278   2.900   4.321  11.088 -0.2615 -0.3303  0.0843
 1596TIP3    H126279   2.866   4.260  11.154 -0.7855  0.3614  0.4679
 1596TIP3    H226280   2.835   4.320  11.019 -0.3749 -0.0471  0.1877
 1597TIP3   OH226281   4.024   5.098  11.304  0.1789 -0.0828 -0.1138
 1597TIP3    H126282   4.024   5.144  11.220 -2.5385  0.5781  0.2020
 1597TIP3    H226283   4.055   5.162  11.367 -1.9253  0.8316  0.0409
 1598TIP3   OH226284   1.201   2.764  14.582  0.1567 -0.4498  0.0593
 1598TIP3    H126285   1.233   2.752  14.493 -1.4706  1.0481 -0.7571
 1598TIP3    H226286   1.268   2.723  14.637  2.0081  0.0635 -1.7374
 1599TIP3   OH226287   0.178   5.158  12.012  0.4390  0.3698 -0.0754
 1599TIP3    H126288   0.110   5.094  12.034 -0.6311  1.7612  0.7677
 1599TIP3    H226289   0.160   5.181  11.921 -0.8903  1.5212  0.4674
 1600TIP3   OH226290   0.102   6.035  15.766 -0.1477 -0.4959  0.6905
 1600TIP3    H126291   0.080   5.945  15.740 -1.4122 -0.5079  1.7357
 1600TIP3    H226292   0.032   6.088  15.728  0.7216  0.0799 -0.1126
 1601TIP3   OH226293   6.129   1.007   5.855  0.0844  0.5203 -0.1062
 1601TIP3    H126294   6.181   1.080   5.891  1.8342 -1.1360  0.8355
 1601TIP3    H226295   6.153   1.004   5.763  0.1730  1.0125 -0.0993
 1602TIP3   OH226296   1.286   5.691  15.183 -1.1793  0.1088  0.1648
 1602TIP3    H126297   1.290   5.779  15.221 -0.0962 -0.1857  0.7415
 1602TIP3    H226298   1.241   5.639  15.249 -1.4357  0.1248  0.0059
 1603TIP3   OH226299   5.540   4.589   3.781 -0.0619 -0.1682 -0.1072
 1603TIP3    H126300   5.558   4.515   3.722  0.0526  0.2346 -0.5793
 1603TIP3    H226301   5.551   4.666   3.726 -0.1699  0.2025  0.3932
 1604TIP3   OH226302   4.624   1.525  10.653 -0.6850  0.1328 -0.0803
 1604TIP3    H126303   4.600   1.564  10.738 -3.6238 -1.2450 -0.1927
 1604TIP3    H226304   4.697   1.578  10.622  0.6844  0.4785  3.4549
 1605TIP3   OH226305   5.577   4.322   6.171  0.3763 -0.3085  0.3826
 1605TIP3    H126306   5.483   4.318   6.189  0.2997 -0.6766 -0.0660
 1605TIP3    H226307   5.585   4.380   6.096  0.6898  1.1924  1.5582
 1606TIP3   OH226308   3.681   5.087  11.806  0.1303 -0.4750  0.0676
 1606TIP3    H126309   3.664   5.006  11.758  0.2132 -0.3030 -0.2487
 1606TIP3    H226310   3.630   5.078  11.887 -0.4578 -0.5123 -0.3058
 1607TIP3   OH226311   2.933   4.132   1.679  0.2515 -0.4412 -0.5064
 1607TIP3    H126312   2.859   4.073   1.666 -0.2267 -0.1414  0.7434
 1607TIP3    H226313   2.980   4.131   1.596 -0.6467 -1.3408 -1.0124
 1608TIP3   OH226314   4.205   0.006  14.641  0.0093 -0.3274  0.1723
 1608TIP3    H126315   4.277  -0.057  14.643  0.8850  0.6438  0.0732
 1608TIP3    H226316   4.127  -0.045  14.661  0.8251 -1.2638  1.0111
 1609TIP3   OH226317   4.651   1.320  12.967 -0.2176 -0.5408 -0.0712
 1609TIP3    H126318   4.741   1.311  12.938  0.0612  0.3908  0.4672
 1609TIP3    H226319   4.654   1.304  13.062 -0.3193  1.1756  0.2468
 1610TIP3   OH226320   0.150   2.344  13.328 -0.1441 -0.3632  0.7493
 1610TIP3    H126321   0.179   2.263  13.369 -1.1187 -0.6466  0.8917
 1610TIP3    H226322   0.181   2.338  13.238 -1.5171 -1.5889  0.3427
 1611TIP3   OH226323   3.630   1.676  11.331  0.1918 -0.3057 -0.3124
 1611TIP3    H126324   3.681   1.652  11.254  0.8888 -2.2219  0.7146
 1611TIP3    H226325   3.548   1.629  11.321 -0.6475  1.2558 -0.9992
 1612TIP3   OH226326   3.310   3.243   3.635 -0.1940 -0.2833 -0.1636
 1612TIP3    H126327   3.292   3.335   3.654 -0.1758 -0.2510 -0.3087
 1612TIP3    H226328   3.272   3.227   3.549  0.9337 -0.0804 -0.7098
 1613TIP3   OH226329   0.063   3.165  12.185 -0.5610 -0.1438  0.0677
 1613TIP3    H126330   0.041   3.236  12.124  2.3455  0.4163 -0.4103
 1613TIP3    H226331   0.108   3.100  12.131 -3.5495 -2.5977  0.4302
 1614TIP3   OH226332   6.611   0.817  15.243  0.2645 -0.2623 -0.5352
 1614TIP3    H126333   6.528   0.786  15.279 -1.0227  0.6765 -2.5609
 1614TIP3    H226334   6.646   0.875  15.311 -0.0690 -1.7150  0.8979
 1615TIP3   OH226335   0.003   0.474  13.835  0.3967  0.2252  0.0218
 1615TIP3    H126336  -0.090   0.468  13.813  0.3606 -0.3333  0.3119
 1615TIP3    H226337   0.005   0.470  13.931  0.5792  2.2147  0.1201
 1616TIP3   OH226338   6.635   1.376   3.946 -0.7337 -0.1514 -0.1538
 1616TIP3    H126339   6.595   1.378   4.033  0.4548  0.1261  0.4006
 1616TIP3    H226340   6.668   1.465   3.933  1.3234 -0.8230  0.1957
 1617TIP3   OH226341   6.725   1.667  13.234 -0.2164  0.1555 -0.5053
 1617TIP3    H126342   6.689   1.678  13.322  0.1380 -0.8159 -0.2309
 1617TIP3    H226343   6.815   1.698  13.241 -0.1927  0.0904 -0.5253
 1618TIP3   OH226344   4.222   4.166  11.794 -0.3717 -0.0865 -0.4033
 1618TIP3    H126345   4.237   4.097  11.729  4.3706  0.8972 -0.5262
 1618TIP3    H226346   4.248   4.127  11.877  0.1989  0.8332 -0.1384
 1619TIP3   OH226347   6.470   5.457   2.393  0.2589 -0.0904 -0.0404
 1619TIP3    H126348   6.420   5.527   2.351  0.3708 -1.2733 -2.2354
 1619TIP3    H226349   6.403   5.403   2.436 -0.1070 -0.2162 -0.7592
 1620TIP3   OH226350   6.659   1.060  14.241 -0.7124  0.1479 -0.0017
 1620TIP3    H126351   6.696   1.043  14.154  0.3201  1.6767  0.1173
 1620TIP3    H226352   6.644   0.973  14.278 -2.7874 -0.5787 -2.3494
 1621TIP3   OH226353   2.864   2.611   2.316  0.3180 -0.2907 -0.7420
 1621TIP3    H126354   2.919   2.556   2.260 -0.6019 -0.2766 -1.6788
 1621TIP3    H226355   2.846   2.688   2.263 -0.2113 -0.0835 -0.2579
 1622TIP3   OH226356   2.579   0.157  15.156  0.0326 -0.4994 -0.2599
 1622TIP3    H126357   2.663   0.118  15.180  0.8251  1.0554 -0.4218
 1622TIP3    H226358   2.526   0.152  15.236  0.8441 -0.0351  0.3074
 1623TIP3   OH226359   5.941   0.653   3.055  0.0125 -0.3787 -0.0881
 1623TIP3    H126360   5.872   0.623   2.996  0.2727  2.5884 -1.9692
 1623TIP3    H226361   5.898   0.659   3.141 -1.6120 -0.1843 -0.8947
 1624TIP3   OH226362   0.586   5.847   3.771  0.0287  0.2331 -0.0238
 1624TIP3    H126363   0.678   5.871   3.771 -0.5065  2.3854 -0.2164
 1624TIP3    H226364   0.542   5.920   3.814 -1.5657 -0.8651  0.2586
 1625TIP3   OH226365   4.134   1.233   2.793  0.3184  0.0736  0.1338
 1625TIP3    H126366   4.183   1.280   2.725 -0.4581 -1.7466 -1.7583
 1625TIP3    H226367   4.184   1.247   2.873  1.8876  1.3175 -1.0291
 1626TIP3   OH226368   0.877   2.525   1.695 -0.0537  0.2205 -0.2186
 1626TIP3    H126369   0.836   2.455   1.746 -0.6075  1.1401  0.6281
 1626TIP3    H226370   0.806   2.587   1.677  0.4393  0.6028 -0.8930
 1627TIP3   OH226371   2.685   4.059   4.973  0.4608  0.3928  0.5869
 1627TIP3    H126372   2.749   4.008   4.923  0.9366  0.6063  0.9712
 1627TIP3    H226373   2.601   4.036   4.935  0.7787  0.1990 -0.0095
 1628TIP3   OH226374   1.994   4.751   3.758  0.0205 -0.5157 -0.1097
 1628TIP3    H126375   1.948   4.680   3.802 -1.5800 -0.2322 -1.2668
 1628TIP3    H226376   1.989   4.825   3.819 -0.6485 -0.6292 -0.0212
 1629TIP3   OH226377   1.418   0.417  14.498 -0.0100  0.5722 -0.7721
 1629TIP3    H126378   1.409   0.511  14.510  0.0663  0.6944 -1.6634
 1629TIP3    H226379   1.338   0.380  14.535 -2.0440  1.3076 -4.2797
 1630TIP3   OH226380   0.389   4.178   1.837  0.2958  0.3828  0.0006
 1630TIP3    H126381   0.476   4.189   1.876  0.7265 -0.7938 -0.5985
 1630TIP3    H226382   0.403   4.194   1.743  0.3012 -1.8464 -0.4094
 1631TIP3   OH226383   6.330   0.928   4.821  0.1386 -0.3821  0.6002
 1631TIP3    H126384   6.316   0.863   4.889  0.3107 -0.1461  0.8637
 1631TIP3    H226385   6.331   1.012   4.868  0.3143 -0.2235  0.3162
 1632TIP3   OH226386   6.093   2.571  14.529 -0.1366  0.3281  0.7397
 1632TIP3    H126387   6.157   2.574  14.600  0.4653  0.8756  0.1830
 1632TIP3    H226388   6.047   2.655  14.535 -0.1846  0.3140  0.5698
 1633TIP3   OH226389   6.434   4.972  17.127  0.1003 -0.5461 -0.4151
 1633TIP3    H126390   6.524   4.948  17.106  0.6484  3.2657 -2.8222
 1633TIP3    H226391   6.441   5.055  17.174 -2.1037 -1.1933  1.1949
 1634TIP3   OH226392   4.325   1.610  12.489  0.6103 -0.5316 -0.0128
 1634TIP3    H126393   4.329   1.528  12.539 -1.7185 -0.2734  0.6885
 1634TIP3    H226394   4.286   1.585  12.405 -1.3683  0.0174  0.6992
 1635TIP3   OH226395   0.538   5.026  15.484 -0.8731  0.4182  0.0631
 1635TIP3    H126396   0.492   4.944  15.500  0.2239 -0.4274 -0.9745
 1635TIP3    H226397   0.533   5.073  15.567 -1.2043 -0.8555  0.7818
 1636TIP3   OH226398   4.233   4.044  16.330 -0.1887 -0.1477  0.2328
 1636TIP3    H126399   4.213   3.956  16.296 -0.2047  0.2449 -0.7981
 1636TIP3    H226400   4.148   4.087  16.337 -0.4171 -0.9420  2.8537
 1637TIP3   OH226401   5.179   5.855   1.211  0.5605  0.0157 -0.6826
 1637TIP3    H126402   5.214   5.767   1.198  1.6786  0.4975 -1.0004
 1637TIP3    H226403   5.094   5.854   1.168 -0.0451 -1.3250  0.5151
 1638TIP3   OH226404   4.757   6.014   5.733 -0.5485  0.4000  0.6142
 1638TIP3    H126405   4.708   6.040   5.655  1.0360  3.7563  0.6407
 1638TIP3    H226406   4.722   6.068   5.803 -0.2266 -0.7776  1.7033
 1639TIP3   OH226407   4.182   4.272   0.225 -0.5156 -0.4606  0.4863
 1639TIP3    H126408   4.089   4.277   0.250 -0.5368  0.8434  0.1874
 1639TIP3    H226409   4.190   4.335   0.153  0.8928  0.4690  1.4428
 1640TIP3   OH226410   4.524   5.329   2.849  0.0630 -0.6509 -0.7227
 1640TIP3    H126411   4.507   5.277   2.770 -0.3776  0.3910 -1.3239
 1640TIP3    H226412   4.619   5.337   2.853  0.1239 -1.2879 -0.7526
 1641TIP3   OH226413   6.164   5.404  15.089  0.4519 -0.1300  0.0563
 1641TIP3    H126414   6.165   5.331  15.028  0.8875 -1.2816  1.4084
 1641TIP3    H226415   6.080   5.447  15.074  0.1003 -1.0359 -0.6029
 1642TIP3   OH226416   6.326   3.763  14.145 -0.0761 -0.1597  0.2730
 1642TIP3    H126417   6.296   3.833  14.202 -3.5820 -0.9668 -0.4735
 1642TIP3    H226418   6.306   3.683  14.193 -0.1253 -0.7545 -0.7103
 1643TIP3   OH226419   5.743   1.209   0.264  0.2811 -0.2066  0.0913
 1643TIP3    H126420   5.825   1.202   0.312  0.6233 -0.4190 -0.5212
 1643TIP3    H226421   5.728   1.121   0.229 -1.1430 -0.6442  1.7229
 1644TIP3   OH226422   0.099   6.177   1.393  0.3668 -0.2296  0.1058
 1644TIP3    H126423   0.139   6.127   1.322  0.4288 -1.3962  0.9476
 1644TIP3    H226424   0.152   6.256   1.400  0.3145 -0.0712 -1.1944
 1645TIP3   OH226425   4.460   2.609   4.190  0.2675  0.3905 -0.1817
 1645TIP3    H126426   4.554   2.619   4.201  0.4275 -0.5797 -0.6035
 1645TIP3    H226427   4.447   2.515   4.178 -0.7618  0.5079 -0.0404
 1646TIP3   OH226428   1.320   6.771  16.994 -0.0194  0.5946 -0.0288
 1646TIP3    H126429   1.347   6.757  16.903 -1.3897  0.2454 -0.4006
 1646TIP3    H226430   1.232   6.809  16.987  0.0443  0.9739  1.1439
 1647TIP3   OH226431   5.210   2.323  14.375  0.1444 -0.2498 -0.1868
 1647TIP3    H126432   5.272   2.251  14.383 -0.0705 -0.6222 -1.6871
 1647TIP3    H226433   5.264   2.402  14.370  0.3535 -0.1286  2.7683
 1648TIP3   OH226434   1.556   6.330  11.055  0.2476 -0.2104 -0.3479
 1648TIP3    H126435   1.498   6.259  11.080  2.0060 -1.7258 -0.4654
 1648TIP3    H226436   1.520   6.362  10.972 -1.9950  0.7503  0.9341
 1649TIP3   OH226437   6.280   0.490  14.608 -0.6935  0.2662 -0.1452
 1649TIP3    H126438   6.350   0.462  14.550  0.5653  0.7034  1.1464
 1649TIP3    H226439   6.214   0.528  14.550  1.9997  3.7568 -1.0257
 1650TIP3   OH226440   2.213   3.201  10.354 -0.2790 -0.1129  0.3859
 1650TIP3    H126441   2.158   3.261  10.404  1.0843  0.3189  1.4021
 1650TIP3    H226442   2.283   3.176  10.414  0.8418 -0.3729 -0.9822
 1651TIP3   OH226443   3.510   4.115   5.397  0.8870  0.3825  0.0148
 1651TIP3    H126444   3.502   4.028   5.435 -0.0457  0.8950  1.0223
 1651TIP3    H226445   3.421   4.138   5.370  0.7988  1.7603  1.4286
 1652TIP3   OH226446   5.903   2.544   1.326  0.5767  0.2132  0.1403
 1652TIP3    H126447   5.955   2.469   1.352 -0.7231 -0.4688  0.7709
 1652TIP3    H226448   5.967   2.614   1.311  1.6551 -0.6102  0.9335
 1653TIP3   OH226449   3.253   1.583   2.579  0.1636 -0.0777  0.3939
 1653TIP3    H126450   3.276   1.593   2.487  2.7516  2.1247  1.2207
 1653TIP3    H226451   3.278   1.493   2.600 -1.7952 -1.0750 -1.3770
 1654TIP3   OH226452   1.949   4.696  16.813  0.0213  0.1470  0.5003
 1654TIP3    H126453   2.032   4.698  16.861  1.3897 -5.3916 -1.2587
 1654TIP3    H226454   1.890   4.648  16.871 -0.6346  0.1780 -0.1378
 1655TIP3   OH226455   5.175   0.402   5.452  0.1333 -0.4644 -0.0522
 1655TIP3    H126456   5.235   0.327   5.450  1.1547  0.3422 -0.0936
 1655TIP3    H226457   5.205   0.458   5.380  0.3664  0.7395  0.9741
 1656TIP3   OH226458   5.218   0.777  11.915 -0.0255 -0.4771 -0.5116
 1656TIP3    H126459   5.255   0.855  11.956  0.6411 -0.1447 -1.7163
 1656TIP3    H226460   5.125   0.779  11.938 -0.3396  1.5229 -1.8160
 1657TIP3   OH226461   0.461   3.104   0.588 -0.2888  0.8078 -0.3787
 1657TIP3    H126462   0.400   3.030   0.592 -1.1810  1.5085 -1.0219
 1657TIP3    H226463   0.451   3.139   0.500 -0.1806  1.9699  0.0625
 1658TIP3   OH226464   5.566   0.878  15.614 -0.4739 -0.8215  0.1461
 1658TIP3    H126465   5.636   0.920  15.563  0.6160 -1.4695  1.0712
 1658TIP3    H226466   5.491   0.875  15.555 -0.3903  1.8664 -0.1565
 1659TIP3   OH226467   6.766   0.845  12.852 -0.1853 -0.0177  0.3061
 1659TIP3    H126468   6.818   0.895  12.789 -0.4786  0.0801  0.1381
 1659TIP3    H226469   6.758   0.903  12.928 -3.6456  1.7355 -1.2844
 1660TIP3   OH226470   6.001   2.086   0.749  0.1347  0.0487 -0.9277
 1660TIP3    H126471   6.079   2.133   0.778 -0.6695  0.3073  0.8881
 1660TIP3    H226472   5.939   2.154   0.724  0.6801 -0.1687 -2.9374
 1661TIP3   OH226473   5.144   5.528   0.876 -0.2244  0.0548  0.1246
 1661TIP3    H126474   5.129   5.572   0.792  0.9495  0.9171  0.3447
 1661TIP3    H226475   5.184   5.444   0.852 -4.3716 -1.8737 -0.4086
 1662TIP3   OH226476   2.055   1.942   0.092 -0.2834 -0.3534 -0.8449
 1662TIP3    H126477   1.976   1.957   0.040 -0.4743 -0.8753 -0.7087
 1662TIP3    H226478   2.108   1.883   0.039 -0.6931 -1.2713 -0.2380
 1663TIP3   OH226479   3.664   1.368   3.440  0.5133 -0.1110  0.1871
 1663TIP3    H126480   3.749   1.402   3.469  1.3752 -1.7291 -0.3492
 1663TIP3    H226481   3.649   1.411   3.356  0.6018  0.5021  0.4817
 1664TIP3   OH226482   3.245   2.262   1.019  0.0409  0.2854  0.0038
 1664TIP3    H126483   3.228   2.176   0.980 -2.0579  1.1997 -1.1722
 1664TIP3    H226484   3.193   2.263   1.099 -0.7694  0.8578 -0.5293
 1665TIP3   OH226485   5.684   3.860  12.693 -0.0062 -0.4820 -0.0829
 1665TIP3    H126486   5.628   3.783  12.694 -1.0296  0.2658  0.7209
 1665TIP3    H226487   5.773   3.824  12.684 -0.6072 -1.6498 -1.5805
 1666TIP3   OH226488   0.728   0.512   1.799  0.3601  0.9556 -0.9500
 1666TIP3    H126489   0.816   0.507   1.761  0.2420 -0.5891 -1.0171
 1666TIP3    H226490   0.722   0.437   1.858 -1.1543  0.6670 -1.4443
 1667TIP3   OH226491   0.235   0.537   5.408 -0.0228  0.5777 -0.3074
 1667TIP3    H126492   0.318   0.520   5.452 -0.5680 -1.4649 -0.0157
 1667TIP3    H226493   0.232   0.470   5.339 -1.9541 -0.1248  0.4401
 1668TIP3   OH226494   0.878   2.327  12.954 -0.4288 -0.4826  0.3149
 1668TIP3    H126495   0.848   2.364  12.870 -1.6676 -1.4700  0.3159
 1668TIP3    H226496   0.800   2.327  13.009 -0.0735 -1.6516  0.8291
 1669TIP3   OH226497   1.518   6.628   6.243 -0.2352  0.5875 -0.8699
 1669TIP3    H126498   1.585   6.693   6.222  0.2390  0.4930  0.3023
 1669TIP3    H226499   1.439   6.679   6.257  0.3217  1.0268  0.8775
 1670TIP3   OH226500   0.318   0.735  12.372  0.0602  0.4025 -0.1143
 1670TIP3    H126501   0.402   0.766  12.404 -0.9154  1.3877  1.5400
 1670TIP3    H226502   0.302   0.653  12.420  1.2578 -1.1738 -2.3243
 1671TIP3   OH226503   6.631   1.675  17.181 -0.2918  0.2981 -0.1873
 1671TIP3    H126504   6.620   1.580  17.187 -0.4336  0.3174 -0.1408
 1671TIP3    H226505   6.715   1.686  17.138 -0.3490  0.1507 -0.3366
 1672TIP3   OH226506   4.734   4.548  11.810  0.0637 -0.2696  0.5778
 1672TIP3    H126507   4.742   4.468  11.758  2.0900 -0.2740  0.8645
 1672TIP3    H226508   4.718   4.617  11.745  1.3473 -0.4585  0.0436
 1673TIP3   OH226509   2.662   4.157   1.399  0.8305  0.2251  0.4567
 1673TIP3    H126510   2.631   4.193   1.482 -0.3741 -0.7536  0.4415
 1673TIP3    H226511   2.585   4.116   1.360  1.8147 -0.9676 -0.2725
 1674TIP3   OH226512   3.730   0.818  13.430  0.3176  0.2031  0.1174
 1674TIP3    H126513   3.662   0.823  13.362  0.2651 -0.0817  0.1491
 1674TIP3    H226514   3.703   0.745  13.485 -0.8458  1.8300  1.7557
 1675TIP3   OH226515   6.528   6.219   3.959  0.1736 -0.2463 -0.1614
 1675TIP3    H126516   6.499   6.308   3.978 -0.6165 -0.4307 -0.5076
 1675TIP3    H226517   6.563   6.224   3.870 -0.4444 -0.4203 -0.4131
 1676TIP3   OH226518   5.075   1.891   4.107 -0.1140 -0.4213 -0.3094
 1676TIP3    H126519   5.090   1.968   4.162  1.7704 -1.3463  0.4977
 1676TIP3    H226520   5.162   1.856   4.090 -0.9380 -2.2850 -0.8289
 1677TIP3   OH226521   3.639   6.418   2.963 -0.1721 -0.0509 -0.4160
 1677TIP3    H126522   3.580   6.477   3.010 -1.0737  0.6610 -2.3778
 1677TIP3    H226523   3.691   6.376   3.031 -1.5977  0.7836  1.2157
 1678TIP3   OH226524   1.122   5.206  13.664 -0.6099  0.1402  0.4542
 1678TIP3    H126525   1.211   5.182  13.638 -1.0076 -1.1440  0.2520
 1678TIP3    H226526   1.087   5.126  13.704 -1.7790  0.5540  0.2591
 1679TIP3   OH226527   4.840   0.158  14.512 -1.0623  0.6187  0.0169
 1679TIP3    H126528   4.929   0.153  14.546 -0.9828 -0.1818 -0.3006
 1679TIP3    H226529   4.797   0.224  14.567 -0.0689  1.5476 -0.3280
 1680TIP3   OH226530   3.410   3.027   5.418 -0.0714 -0.1695  0.5900
 1680TIP3    H126531   3.468   3.022   5.493 -1.5370  2.6702  1.9840
 1680TIP3    H226532   3.461   3.071   5.350 -0.0893  0.9893  1.3218
 1681TIP3   OH226533   5.048   2.290   5.781  0.7590 -0.3491 -0.3175
 1681TIP3    H126534   4.992   2.268   5.856 -0.6243  0.5239 -1.0541
 1681TIP3    H226535   5.025   2.381   5.761  0.8409 -0.6931 -2.0222
 1682TIP3   OH226536   3.170   5.481   6.427  0.5911  0.0279  0.3511
 1682TIP3    H126537   3.080   5.472   6.459  0.9405 -0.4005  1.2190
 1682TIP3    H226538   3.210   5.545   6.486  0.7990  0.3601 -0.1540
 1683TIP3   OH226539   2.245   1.728   0.044 -0.2909  0.2639 -0.2187
 1683TIP3    H126540   2.336   1.745   0.020 -0.0325 -0.5726  0.1577
 1683TIP3    H226541   2.206   1.691  -0.036 -0.1445  0.0490 -0.1880
 1684TIP3   OH226542   4.809   6.671   3.544 -0.1434 -0.8681 -0.0113
 1684TIP3    H126543   4.784   6.760   3.522 -1.3352 -1.1534  0.1884
 1684TIP3    H226544   4.900   6.664   3.515 -0.6546 -0.2018 -1.8129
 1685TIP3   OH226545   0.965   3.758  13.026  0.6676 -0.3499 -0.5345
 1685TIP3    H126546   0.951   3.796  12.940 -0.8367 -0.2812 -0.2685
 1685TIP3    H226547   0.924   3.819  13.087  1.8774 -0.3009  0.2623
 1686TIP3   OH226548   1.842   0.781   0.499  0.4436 -0.2414 -0.1175
 1686TIP3    H126549   1.790   0.824   0.431  0.6697 -0.7397 -0.6076
 1686TIP3    H226550   1.784   0.714   0.534 -0.3086  1.1931  1.4234
 1687TIP3   OH226551   0.513   0.585  13.022  0.0338 -0.3945 -0.7517
 1687TIP3    H126552   0.453   0.515  13.049 -1.8460  0.8452 -1.6077
 1687TIP3    H226553   0.493   0.658  13.082  2.2408 -0.6720  0.3823
 1688TIP3   OH226554   5.657   5.373   2.723 -0.1854  0.1221 -0.6167
 1688TIP3    H126555   5.617   5.328   2.797  2.2224 -1.2087 -0.0847
 1688TIP3    H226556   5.746   5.394   2.753  0.3866  0.7323 -2.6788
 1689TIP3   OH226557   1.594   2.934  11.117  0.2581 -0.8934  0.3794
 1689TIP3    H126558   1.594   2.945  11.021  3.9165 -1.8961  0.2078
 1689TIP3    H226559   1.609   3.022  11.151  0.2378 -0.7401 -0.0052
 1690TIP3   OH226560   6.660   4.250  12.146  0.4495  0.5825  0.3434
 1690TIP3    H126561   6.582   4.296  12.175  0.7065  0.3584  1.4177
 1690TIP3    H226562   6.655   4.164  12.189 -0.2287 -0.5702 -1.9271
 1691TIP3   OH226563   5.903   6.379  11.879 -0.0851  0.0184  0.2947
 1691TIP3    H126564   5.998   6.391  11.881  0.2752 -2.3510 -1.0428
 1691TIP3    H226565   5.869   6.464  11.853  1.9288 -0.0764 -2.9170
 1692TIP3   OH226566   3.018   2.175   5.361 -0.6817  0.0902  0.5985
 1692TIP3    H126567   2.925   2.190   5.347 -0.6899 -0.9199 -0.5210
 1692TIP3    H226568   3.030   2.081   5.346  0.0686 -0.3089  3.3247
 1693TIP3   OH226569   4.903   5.476  12.248  0.1327  0.1657  0.2545
 1693TIP3    H126570   4.975   5.421  12.216 -0.3490 -2.5753  3.6247
 1693TIP3    H226571   4.832   5.461  12.186  1.2130 -0.0745 -0.9552
 1694TIP3   OH226572   2.240   4.273  16.698  0.2756  0.2302 -0.5380
 1694TIP3    H126573   2.178   4.343  16.677 -0.0865  0.1843  0.3651
 1694TIP3    H226574   2.309   4.318  16.748  1.0264  0.3025 -1.6331
 1695TIP3   OH226575   2.584   5.167   1.834  0.6614  0.1876  0.1575
 1695TIP3    H126576   2.642   5.093   1.855 -0.8276 -0.8877  0.5592
 1695TIP3    H226577   2.568   5.159   1.740  1.0285  0.4050  0.0723
 1696TIP3   OH226578   0.880   0.501  13.476  0.2323  0.1374 -0.2925
 1696TIP3    H126579   0.866   0.542  13.391 -0.6588  1.8375  0.6469
 1696TIP3    H226580   0.959   0.448  13.464  0.5110  0.8948 -1.9831
 1697TIP3   OH226581   0.497   3.135  12.195  0.7127  0.2581 -0.2547
 1697TIP3    H126582   0.422   3.151  12.138  0.7965 -0.9884 -0.7316
 1697TIP3    H226583   0.467   3.160  12.283 -0.2300 -0.1811 -0.4516
 1698TIP3   OH226584   1.642   1.190   3.473  1.1236  0.2278 -0.1877
 1698TIP3    H126585   1.592   1.119   3.433 -0.5959  1.7537 -0.8052
 1698TIP3    H226586   1.647   1.257   3.405  0.5728  1.7150  1.2070
 1699TIP3   OH226587   5.464   6.095  12.494 -0.4620  0.3652  0.2493
 1699TIP3    H126588   5.523   6.034  12.539  0.4856  0.3305 -1.0091
 1699TIP3    H226589   5.421   6.142  12.565  0.7545  0.0768  1.2105
 1700TIP3   OH226590   4.543   1.618   3.688 -0.3327  0.0728 -0.3349
 1700TIP3    H126591   4.539   1.713   3.676 -2.5902 -0.2127 -2.1882
 1700TIP3    H226592   4.478   1.599   3.756  0.3180 -0.1102  0.2366
 1701TIP3   OH226593   5.414   1.226  11.350 -0.3553 -0.1864 -0.0291
 1701TIP3    H126594   5.344   1.226  11.284 -1.2552 -1.4953  0.9019
 1701TIP3    H226595   5.402   1.308  11.397 -0.9541 -0.1798 -0.1888
 1702TIP3   OH226596   0.806   1.745   0.296  0.2354 -0.1081  0.3695
 1702TIP3    H126597   0.785   1.696   0.216  0.5926  0.1575  0.1174
 1702TIP3    H226598   0.783   1.835   0.276  1.1644  0.1063  0.2613
 1703TIP3   OH226599   3.007   4.661  13.672  0.1263  0.0849 -0.2370
 1703TIP3    H126600   2.925   4.678  13.717  0.3336 -0.0343  0.1919
 1703TIP3    H226601   3.074   4.671  13.739  0.4948  0.5371 -0.6667
 1704TIP3   OH226602   2.850   0.958   1.648  0.8667  0.2165  0.0499
 1704TIP3    H126603   2.899   0.876   1.654 -1.4990 -1.1018  2.9514
 1704TIP3    H226604   2.759   0.930   1.634  0.3143  2.4506 -1.0085
 1705TIP3   OH226605   0.585   0.175  15.581 -0.5246 -0.3059  0.7347
 1705TIP3    H126606   0.586   0.226  15.662 -1.7922  1.7627 -0.5254
 1705TIP3    H226607   0.632   0.228  15.518 -1.8224 -0.6848 -0.5889
 1706TIP3   OH226608   2.031   5.106  14.996  0.3534 -0.3116  0.2376
 1706TIP3    H126609   2.042   5.014  15.021 -0.5605 -0.5314 -0.1608
 1706TIP3    H226610   2.113   5.129  14.953  1.2191 -0.4732  1.7553
 1707TIP3   OH226611   3.440   5.752   6.311 -0.3662 -0.0929 -0.2934
 1707TIP3    H126612   3.401   5.765   6.397  1.5879 -0.8590  0.7320
 1707TIP3    H226613   3.448   5.840   6.274  0.3625  0.4013  1.0243
 1708TIP3   OH226614   4.335   2.480   3.866  0.2851 -0.5168  0.2908
 1708TIP3    H126615   4.305   2.568   3.885 -1.3859 -0.7448 -1.2068
 1708TIP3    H226616   4.423   2.492   3.829  0.5298  0.4151  1.1596
 1709TIP3   OH226617   6.706   1.429  14.205 -0.1820 -0.3656  0.0496
 1709TIP3    H126618   6.623   1.429  14.159  0.1009 -2.0214 -0.4911
 1709TIP3    H226619   6.740   1.340  14.193  1.1253 -0.0351  1.2158
 1710TIP3   OH226620   1.384   0.698  11.462  0.0041  0.2850  0.5582
 1710TIP3    H126621   1.359   0.770  11.520 -0.7300  0.9962 -0.5941
 1710TIP3    H226622   1.308   0.639  11.463  0.4311 -0.2497  1.1690
 1711TIP3   OH226623   3.702   6.334  16.184 -0.0639  0.1191  0.4495
 1711TIP3    H126624   3.613   6.301  16.182 -0.0041 -0.0392  0.3808
 1711TIP3    H226625   3.711   6.384  16.103 -1.4846  3.8125  2.4629
 1712TIP3   OH226626   4.607   0.881   1.189 -0.5286  0.5176 -0.5186
 1712TIP3    H126627   4.522   0.839   1.195 -0.7148  0.9520 -0.0476
 1712TIP3    H226628   4.612   0.914   1.099 -1.2137  1.2438 -0.2905
 1713TIP3   OH226629   0.834   5.169   0.436  0.8222  0.1883  0.0552
 1713TIP3    H126630   0.853   5.213   0.353 -0.6324  1.7145  0.5099
 1713TIP3    H226631   0.882   5.221   0.501  0.4555  0.1085  0.3863
 1714TIP3   OH226632   6.808   3.985   3.938 -0.0876  0.3724 -0.6487
 1714TIP3    H126633   6.759   3.930   3.998  2.6750 -1.1127  0.3212
 1714TIP3    H226634   6.811   4.071   3.981  1.4268 -0.5452  1.1148
 1715TIP3   OH226635   5.272   0.798   3.319  0.5080  0.2187  0.3945
 1715TIP3    H126636   5.252   0.838   3.234 -0.2574 -1.0442 -0.0366
 1715TIP3    H226637   5.367   0.783   3.316  0.5989  0.8402  0.0562
 1716TIP3   OH226638   2.475   3.685  14.990 -0.1491  0.4827 -0.1344
 1716TIP3    H126639   2.560   3.670  14.949 -1.0536 -0.6221 -1.6529
 1716TIP3    H226640   2.471   3.780  15.002  1.0109  0.6050 -0.6625
 1717TIP3   OH226641   3.797   4.073   1.144 -0.6709 -0.3916  0.1979
 1717TIP3    H126642   3.709   4.111   1.145 -0.1226  1.1562 -3.3488
 1717TIP3    H226643   3.802   4.026   1.061  1.7995 -0.6527  0.4592
 1718TIP3   OH226644   0.001   2.044   6.281 -0.6985  0.3234 -0.4576
 1718TIP3    H126645   0.041   1.965   6.319  0.3458  0.5416 -1.0772
 1718TIP3    H226646  -0.006   2.105   6.355  2.0956  1.0574 -0.7316
 1719TIP3   OH226647   1.071   5.246  15.450  0.0221 -0.2541 -0.0291
 1719TIP3    H126648   0.986   5.238  15.407  0.1959 -0.3705 -0.3581
 1719TIP3    H226649   1.130   5.276  15.381  0.3144 -0.4854  0.1151
 1720TIP3   OH226650   2.797   6.735  16.443 -0.0231 -0.1174 -0.1615
 1720TIP3    H126651   2.731   6.797  16.473  0.2200  0.2401 -0.3528
 1720TIP3    H226652   2.795   6.742  16.348  0.4627  0.0806 -0.1561
 1721TIP3   OH226653   2.233   2.833   4.920 -0.1439 -0.0412 -0.1928
 1721TIP3    H126654   2.200   2.917   4.952  1.2236  0.3090  0.3253
 1721TIP3    H226655   2.181   2.767   4.966 -1.3233  0.5172 -0.7121
 1722TIP3   OH226656   2.003   1.705   6.341 -0.3402  0.1290  0.0904
 1722TIP3    H126657   1.990   1.618   6.377  0.4791  0.2330  0.6565
 1722TIP3    H226658   1.965   1.701   6.253  0.0218 -0.9035 -0.0216
 1723TIP3   OH226659   5.298   3.495   2.902 -0.0285 -0.0450 -0.3763
 1723TIP3    H126660   5.354   3.509   2.980  1.1775 -0.4842 -1.1485
 1723TIP3    H226661   5.281   3.401   2.901  0.6252 -0.1601 -1.0845
 1724TIP3   OH226662   2.442   6.698  10.958  0.2682  0.1699 -0.6197
 1724TIP3    H126663   2.360   6.746  10.947  0.5917  0.8050 -0.2996
 1724TIP3    H226664   2.466   6.671  10.869 -0.4827 -0.3483 -0.6646
 1725TIP3   OH226665   0.203   1.155  16.658  0.3226  0.9652 -0.3178
 1725TIP3    H126666   0.285   1.107  16.661 -1.0907 -1.5540  0.2690
 1725TIP3    H226667   0.192   1.188  16.748 -0.7459 -1.3568  0.4580
 1726TIP3   OH226668   3.817   1.078   4.617 -0.9030 -0.0379  0.0941
 1726TIP3    H126669   3.910   1.068   4.599 -0.4696 -0.1134  2.2837
 1726TIP3    H226670   3.811   1.083   4.712 -3.0056  1.3399 -0.0809
 1727TIP3   OH226671   0.837   5.888   1.301  0.4460  0.1147 -0.2164
 1727TIP3    H126672   0.851   5.903   1.208  0.5349 -2.2304 -0.6073
 1727TIP3    H226673   0.890   5.811   1.322 -1.0894 -0.5666  1.3286
 1728TIP3   OH226674   3.276   1.357  11.422  0.6760  0.0808  0.4830
 1728TIP3    H126675   3.264   1.278  11.369 -0.6900  0.5710  0.0249
 1728TIP3    H226676   3.263   1.328  11.512  1.6488 -0.4938  0.4425
 1729TIP3   OH226677   0.836   0.237  16.723 -0.1234  0.0455 -0.1762
 1729TIP3    H126678   0.778   0.290  16.669 -0.8566  0.2021  0.7679
 1729TIP3    H226679   0.924   0.264  16.697 -0.4846  1.3299 -0.0780
 1730TIP3   OH226680   2.716   1.731  15.176  0.3081  0.2424 -0.4490
 1730TIP3    H126681   2.653   1.752  15.245  0.3312 -0.9375 -0.0592
 1730TIP3    H226682   2.801   1.735  15.220  0.3964  0.5085 -0.6495
 1731TIP3   OH226683   4.312   0.093   1.967 -0.7448 -0.1866  0.1355
 1731TIP3    H126684   4.403   0.100   1.940 -1.1325  1.2704 -0.8626
 1731TIP3    H226685   4.275   0.026   1.911 -0.2317 -0.9701  0.7241
 1732TIP3   OH226686   1.395   3.265  11.140 -0.7390  0.3978  0.4783
 1732TIP3    H126687   1.367   3.176  11.117  0.0035 -0.2482  2.0305
 1732TIP3    H226688   1.324   3.321  11.109 -0.9322 -0.6631 -1.0746
 1733TIP3   OH226689   0.930   4.595   4.204 -0.1823  0.4966 -0.4562
 1733TIP3    H126690   0.842   4.590   4.240 -0.5544  4.3762 -0.5347
 1733TIP3    H226691   0.919   4.640   4.120  1.6793 -0.5309 -1.2939
 1734TIP3   OH226692   4.830   6.088   5.253 -0.0586 -0.1294  0.2572
 1734TIP3    H126693   4.807   6.071   5.344 -0.0569  0.9382  0.4649
 1734TIP3    H226694   4.867   6.176   5.254 -0.7412  0.1748 -0.8977
 1735TIP3   OH226695   2.936   5.099  10.510  0.0351  0.0383 -0.1218
 1735TIP3    H126696   2.883   5.024  10.483  0.0532  0.5663 -1.6720
 1735TIP3    H226697   3.026   5.066  10.508  0.2401  0.6153 -2.7847
 1736TIP3   OH226698   1.715   6.745  14.797 -0.1292 -0.1427 -0.0437
 1736TIP3    H126699   1.736   6.678  14.732 -1.0031  1.5997 -2.2148
 1736TIP3    H226700   1.744   6.827  14.757  0.3538  0.8475  2.2857
 1737TIP3   OH226701   4.247   6.180  15.472  0.3254 -0.3444 -0.2044
 1737TIP3    H126702   4.257   6.129  15.392 -0.3931  0.1261 -0.6019
 1737TIP3    H226703   4.223   6.268  15.442  0.1883 -0.1271  0.5183
 1738TIP3   OH226704   4.217   4.605   5.850  0.5776 -0.0321 -0.3070
 1738TIP3    H126705   4.218   4.579   5.942 -1.6144 -0.6259 -0.4374
 1738TIP3    H226706   4.212   4.701   5.852  1.5883  0.0139  0.1787
 1739TIP3   OH226707   3.560   0.033   4.546  0.5189 -0.0554  0.0446
 1739TIP3    H126708   3.566   0.128   4.559  2.2264 -0.3319  1.3965
 1739TIP3    H226709   3.500   0.003   4.614  1.6088 -0.2064  0.9465
 1740TIP3   OH226710   2.108   6.093   4.776  0.2504  0.8333  0.0516
 1740TIP3    H126711   2.024   6.053   4.753  0.0224  0.9653  0.6392
 1740TIP3    H226712   2.137   6.135   4.695 -1.1857  2.4340  0.3353
 1741TIP3   OH226713   3.232   4.715   3.022 -0.1963  0.2112 -0.0369
 1741TIP3    H126714   3.200   4.806   3.021 -0.2381  0.1829 -1.6086
 1741TIP3    H226715   3.279   4.705   2.939  0.1518 -1.0951  0.3087
 1742TIP3   OH226716   3.339   1.057  11.080  0.2081  0.0222  0.1199
 1742TIP3    H126717   3.391   0.984  11.115 -1.3486 -1.6314 -0.9218
 1742TIP3    H226718   3.249   1.027  11.087 -0.5281  2.2938  0.6072
 1743TIP3   OH226719   5.326   2.039   5.634  0.4299 -0.3432  0.3493
 1743TIP3    H126720   5.305   2.053   5.542 -3.1979  0.3681  1.2039
 1743TIP3    H226721   5.341   2.127   5.669  0.8354 -0.5311  0.6491
 1744TIP3   OH226722   0.255   3.675  14.620 -0.0457 -0.0377  0.2100
 1744TIP3    H126723   0.283   3.728  14.695 -0.5742 -0.3559  0.6370
 1744TIP3    H226724   0.172   3.636  14.648  0.0403 -0.6129 -0.3284
 1745TIP3   OH226725   5.303   3.533  11.111  0.0240 -0.3610  0.5834
 1745TIP3    H126726   5.387   3.495  11.136 -0.0288 -0.5558  0.4695
 1745TIP3    H226727   5.277   3.484  11.033  0.2432  0.3093  0.0746
 1746TIP3   OH226728   0.772   4.431   0.293  1.0713 -0.7163 -0.0685
 1746TIP3    H126729   0.861   4.461   0.271  0.4801  1.0963 -0.1109
 1746TIP3    H226730   0.769   4.430   0.388  1.7510 -2.7503 -0.0429
 1747TIP3   OH226731   3.760   5.801  15.688  0.2592  0.0900  0.1494
 1747TIP3    H126732   3.816   5.734  15.647  0.9027  0.8194 -0.1717
 1747TIP3    H226733   3.776   5.791  15.782 -0.1977 -0.6902  0.1481
 1748TIP3   OH226734   3.354   6.774  11.565 -0.3690  0.3185 -0.2444
 1748TIP3    H126735   3.354   6.849  11.505 -1.1763 -0.4179 -1.1770
 1748TIP3    H226736   3.277   6.723  11.540  0.4557 -1.1075  0.0242
 1749TIP3   OH226737   5.138   5.520  16.149 -0.2507  0.1151  0.6727
 1749TIP3    H126738   5.112   5.605  16.186  2.2346  1.9316 -1.5752
 1749TIP3    H226739   5.055   5.476  16.130 -1.5829  2.0659  1.7845
 1750TIP3   OH226740   4.267   6.459   5.018 -0.9059  0.1633 -0.4458
 1750TIP3    H126741   4.341   6.499   5.063 -0.5554 -0.4544 -0.4658
 1750TIP3    H226742   4.307   6.410   4.946 -1.3128 -0.3790 -0.3014
 1751TIP3   OH226743   0.664   5.538   1.069  0.4798  0.2020  0.4596
 1751TIP3    H126744   0.695   5.601   1.004 -0.7236  0.4079  0.0706
 1751TIP3    H226745   0.741   5.484   1.088  0.7966 -0.0322 -1.3362
 1752TIP3   OH226746   0.241   3.164  17.241  0.3049  0.1703 -0.2783
 1752TIP3    H126747   0.231   3.250  17.200  1.7163  1.7283  2.5188
 1752TIP3    H226748   0.334   3.144  17.232  0.5137  0.2299  1.4753
 1753TIP3   OH226749   1.718   3.412   3.645 -0.0842 -0.4360  0.1146
 1753TIP3    H126750   1.736   3.321   3.621 -0.1994 -0.1947 -0.8838
 1753TIP3    H226751   1.686   3.453   3.565  2.0013  1.0478 -0.0077
 1754TIP3   OH226752   2.871   0.509   0.613 -0.8640  0.3152  0.2843
 1754TIP3    H126753   2.861   0.485   0.520  2.8855 -3.2086  0.6439
 1754TIP3    H226754   2.926   0.587   0.611 -1.6048  0.8289 -0.4837
 1755TIP3   OH226755   3.818   4.144  16.063  0.4484  0.1184  0.2871
 1755TIP3    H126756   3.887   4.186  16.013 -1.4474  2.1683 -0.6522
 1755TIP3    H226757   3.757   4.214  16.086 -0.5951 -1.3807  2.3569
 1756TIP3   OH226758   5.403   5.837  11.263 -0.4476 -0.0132  0.1992
 1756TIP3    H126759   5.372   5.894  11.193  0.0246 -0.1084 -0.0920
 1756TIP3    H226760   5.422   5.895  11.336  0.3649  0.2464 -0.2105
 1757TIP3   OH226761   1.071   2.711   2.443 -0.6871  0.5859 -0.3378
 1757TIP3    H126762   1.145   2.686   2.498  1.0386 -0.6616 -3.1123
 1757TIP3    H226763   1.025   2.629   2.426 -2.0706  1.1812  0.4016
 1758TIP3   OH226764   6.059   2.972   3.644 -0.6565 -0.4048 -0.7269
 1758TIP3    H126765   6.147   2.984   3.681 -0.6380  0.3104 -0.9893
 1758TIP3    H226766   6.000   3.005   3.712 -0.6312  0.7223 -1.2342
 1759TIP3   OH226767   4.429   4.720  14.141  0.3210 -0.0056  0.0145
 1759TIP3    H126768   4.511   4.728  14.190  0.5575  1.0195 -0.5148
 1759TIP3    H226769   4.380   4.652  14.186  1.1439 -0.0886  0.8027
 1760TIP3   OH226770   2.231   5.480  13.583 -0.1340  0.1133 -0.3709
 1760TIP3    H126771   2.255   5.497  13.674 -1.5303  1.7175 -0.2861
 1760TIP3    H226772   2.135   5.479  13.583 -0.1413 -2.2617 -1.4048
 1761TIP3   OH226773   1.858   3.509  11.910 -0.3652  0.5737  0.4862
 1761TIP3    H126774   1.905   3.566  11.970 -1.0936  1.0581  0.6113
 1761TIP3    H226775   1.879   3.420  11.939  1.4675  0.7491 -0.2463
 1762TIP3   OH226776   4.801   3.526   0.861 -0.0678  0.2085 -0.3299
 1762TIP3    H126777   4.767   3.493   0.944  2.5723  0.5936  0.9444
 1762TIP3    H226778   4.859   3.456   0.830 -0.0792  0.6005 -1.2574
 1763TIP3   OH226779   5.420   1.301  11.880 -0.3511 -0.2574 -0.1515
 1763TIP3    H126780   5.395   1.225  11.933  1.3535  1.0285  2.5438
 1763TIP3    H226781   5.510   1.283  11.854 -0.6463 -0.1228 -1.2885
 1764TIP3   OH226782   2.655   2.285   1.438 -0.4171  0.0412  0.2350
 1764TIP3    H126783   2.614   2.259   1.355  3.6790 -0.4389 -1.7563
 1764TIP3    H226784   2.658   2.381   1.434 -1.2097  0.0741  0.3419
 1765TIP3   OH226785   3.015   0.335   4.449 -0.4509 -0.0509  0.0034
 1765TIP3    H126786   3.022   0.394   4.374 -0.4417 -1.2489 -0.9541
 1765TIP3    H226787   2.924   0.303   4.446 -0.2138 -0.7387  0.0116
 1766TIP3   OH226788   5.156   2.044  15.232 -0.1225 -0.2460 -0.0788
 1766TIP3    H126789   5.132   2.091  15.312  1.9756 -1.8855  1.5578
 1766TIP3    H226790   5.077   1.995  15.208 -0.4881 -0.4007  1.4426
 1767TIP3   OH226791   1.828   1.056   1.218 -0.6432 -0.4829 -0.0447
 1767TIP3    H126792   1.860   0.968   1.235 -2.8050 -1.1221  0.8779
 1767TIP3    H226793   1.907   1.109   1.206  0.6784 -2.4409 -0.1765
 1768TIP3   OH226794   2.620   6.371   1.599 -0.6552 -0.0051 -0.5224
 1768TIP3    H126795   2.686   6.358   1.667  0.3458  1.0805 -1.2605
 1768TIP3    H226796   2.558   6.298   1.611  0.8838 -1.2677 -0.0626
 1769TIP3   OH226797   1.220   3.348  14.200  0.2132 -0.1661  0.0925
 1769TIP3    H126798   1.202   3.372  14.109  0.9009 -2.2833 -0.6254
 1769TIP3    H226799   1.135   3.357  14.244  0.0264  1.5516 -0.5853
 1770TIP3   OH226800   4.927   2.899   2.878 -0.4664  0.4414 -0.1033
 1770TIP3    H126801   4.910   2.972   2.818  1.8599  1.0015 -0.1275
 1770TIP3    H226802   4.909   2.821   2.825 -1.4033  0.9501 -0.5671
 1771TIP3   OH226803   3.504   2.344   1.527 -0.4446  0.4339 -0.1557
 1771TIP3    H126804   3.575   2.283   1.546 -0.0938  1.1036  0.7188
 1771TIP3    H226805   3.484   2.330   1.435  1.3298  0.7782 -0.6023
 1772TIP3   OH226806   3.286   6.134   5.163 -0.2488  0.3649  0.1580
 1772TIP3    H126807   3.315   6.208   5.217 -1.4298  1.8602 -1.2040
 1772TIP3    H226808   3.339   6.139   5.084 -0.5771 -0.0277 -0.0895
 1773TIP3   OH226809   3.919   0.381   0.243  0.5325 -0.8153 -0.4816
 1773TIP3    H126810   4.002   0.412   0.278 -0.3633  1.3037 -0.1392
 1773TIP3    H226811   3.858   0.453   0.258 -1.5448 -2.5672 -0.1128
 1774TIP3   OH226812   5.182   5.956  14.764  0.0941  0.1333  0.5790
 1774TIP3    H126813   5.147   5.874  14.799  0.0288 -0.7803 -1.5385
 1774TIP3    H226814   5.109   5.994  14.716 -0.0271  1.7100  1.9827
 1775TIP3   OH226815   4.438   5.650  10.751 -0.2464  0.0393  0.1136
 1775TIP3    H126816   4.477   5.718  10.695  0.5455  1.0603  1.8615
 1775TIP3    H226817   4.462   5.676  10.840 -2.4966 -0.8904  1.0342
 1776TIP3   OH226818   2.993   5.157  15.711 -0.0071  0.8866 -0.7219
 1776TIP3    H126819   2.930   5.223  15.740  2.4120  4.0884 -2.2578
 1776TIP3    H226820   3.013   5.182  15.620  2.2329 -0.9594 -0.7797
 1777TIP3   OH226821   5.238   3.419  16.795 -0.3613 -0.2566  0.5767
 1777TIP3    H126822   5.172   3.443  16.730 -0.6749 -0.1764  0.9243
 1777TIP3    H226823   5.317   3.464  16.766 -0.8842  1.0473  1.1071
 1778TIP3   OH226824   6.805   1.601  14.708 -0.5846  0.2759 -0.0044
 1778TIP3    H126825   6.873   1.551  14.663 -0.2149  2.6226 -2.2213
 1778TIP3    H226826   6.722   1.568  14.672 -0.5276 -1.1112  1.1182
 1779TIP3   OH226827   2.572   1.299   6.615 -0.1567  0.0623 -0.0604
 1779TIP3    H126828   2.592   1.391   6.632  0.0640  0.0152 -0.0554
 1779TIP3    H226829   2.497   1.301   6.556  0.9273  0.2924 -1.4759
 1780TIP3   OH226830   2.499   3.453  17.001  0.2315 -0.5595  0.0188
 1780TIP3    H126831   2.466   3.364  16.985  0.0117 -0.2308 -1.4204
 1780TIP3    H226832   2.489   3.465  17.095  0.1687 -2.0301  0.2181
 1781TIP3   OH226833   4.670   0.833   3.551 -0.0378  0.0689 -0.3232
 1781TIP3    H126834   4.579   0.863   3.559  0.0359  0.4335 -0.8320
 1781TIP3    H226835   4.702   0.832   3.641 -0.4046  0.3903 -0.1852
 1782TIP3   OH226836   2.638   2.307   0.463  0.4440 -0.4807  0.0988
 1782TIP3    H126837   2.653   2.374   0.396 -2.4517  0.0608 -0.0612
 1782TIP3    H226838   2.722   2.300   0.509  0.7570  3.4758  0.2831
 1783TIP3   OH226839   1.949   0.102   5.227 -0.4049 -0.1255 -0.1561
 1783TIP3    H126840   1.891   0.132   5.297 -0.2453 -0.2704  0.0388
 1783TIP3    H226841   1.918   0.014   5.205 -1.2394  0.3990 -1.1281
 1784TIP3   OH226842   1.317   4.874   3.975 -0.5936  0.2398 -0.7709
 1784TIP3    H126843   1.347   4.879   4.066 -0.6167 -2.7843 -0.5183
 1784TIP3    H226844   1.328   4.962   3.940  1.2565  0.9907  1.5977
 1785TIP3   OH226845   6.278   1.913  12.367  0.1902  0.0566  0.4453
 1785TIP3    H126846   6.276   1.873  12.281 -0.8106 -0.5094  0.7326
 1785TIP3    H226847   6.358   1.879  12.407  0.2751 -0.2467  0.0167
 1786TIP3   OH226848   3.770   2.917   3.799  0.2880 -0.1284  0.6331
 1786TIP3    H126849   3.731   2.950   3.879  2.1339 -0.6260  1.7635
 1786TIP3    H226850   3.821   2.840   3.826 -0.4640 -1.3481 -1.2764
 1787TIP3   OH226851   4.517   5.712  11.016  0.1731 -0.2018  0.0317
 1787TIP3    H126852   4.528   5.631  11.065  0.2571 -0.5437 -0.5433
 1787TIP3    H226853   4.603   5.730  10.979  0.0919  0.0045 -0.0576
 1788TIP3   OH226854   4.551   5.437  16.992  0.2947  0.1911 -0.3799
 1788TIP3    H126855   4.588   5.388  17.065 -1.9300 -1.3064 -0.2219
 1788TIP3    H226856   4.577   5.387  16.914  0.9025  0.6583 -0.4873
 1789TIP3   OH226857   0.522   4.305   3.622  0.1871  0.0230  0.0515
 1789TIP3    H126858   0.549   4.397   3.617 -1.6340  0.5283 -0.9498
 1789TIP3    H226859   0.471   4.291   3.542 -1.9264 -1.0697  1.5482
 1790TIP3   OH226860   3.627   3.938   3.059  0.1866  0.3521 -0.1127
 1790TIP3    H126861   3.651   3.900   3.144  1.6578 -0.2064 -0.7570
 1790TIP3    H226862   3.669   4.024   3.059  1.2783 -0.1690 -0.7854
 1791TIP3   OH226863   0.602   5.997   1.212 -0.1441 -0.1208  0.0488
 1791TIP3    H126864   0.685   5.970   1.251 -0.3529 -0.3693  0.3172
 1791TIP3    H226865   0.559   5.915   1.188 -1.4351 -0.1045  2.1959
 1792TIP3   OH226866   5.390   0.519   4.928  0.3194  0.0918  0.4181
 1792TIP3    H126867   5.445   0.571   4.869  2.0803  0.7884  2.6306
 1792TIP3    H226868   5.340   0.584   4.977 -0.0919 -0.4419  0.7071
 1793TIP3   OH226869   3.183   0.971  14.674  0.1082 -0.0681  0.2192
 1793TIP3    H126870   3.108   0.999  14.621  0.2892 -0.1395 -0.0752
 1793TIP3    H226871   3.227   0.906  14.619 -0.2841 -0.8939  0.8665
 1794TIP3   OH226872   1.152   2.076   5.585 -0.1220  0.7565 -0.2646
 1794TIP3    H126873   1.111   2.017   5.648  0.5125  0.3910 -0.1917
 1794TIP3    H226874   1.083   2.093   5.521 -0.3736  0.1108 -0.1740
 1795TIP3   OH226875   0.071   2.903   4.295 -0.0988 -0.3093 -0.1069
 1795TIP3    H126876   0.057   2.809   4.293  1.1431 -0.4899 -0.7279
 1795TIP3    H226877   0.149   2.915   4.350 -1.7149  0.5628  2.1242
 1796TIP3   OH226878   5.172   2.694   3.188  0.2712  0.2878 -0.2908
 1796TIP3    H126879   5.150   2.782   3.156 -1.6856 -1.0452 -2.7733
 1796TIP3    H226880   5.087   2.651   3.200  1.1544 -0.8206  2.2772
 1797TIP3   OH226881   1.661   4.829  14.071 -0.1070  0.0070  0.4964
 1797TIP3    H126882   1.688   4.760  14.012  1.0865  1.1094 -0.2819
 1797TIP3    H226883   1.588   4.792  14.121  0.6358 -1.8510  0.2285
 1798TIP3   OH226884   6.045   2.584   3.301  0.2041  0.1399 -0.4382
 1798TIP3    H126885   6.045   2.634   3.383  3.0734 -0.4363 -0.0060
 1798TIP3    H226886   6.076   2.646   3.235 -0.7481  0.2214 -0.8053
 1799TIP3   OH226887   1.247   5.825   2.444  0.0165 -0.5326  0.4847
 1799TIP3    H126888   1.303   5.895   2.477 -0.0733 -0.6218  0.8325
 1799TIP3    H226889   1.232   5.847   2.352 -0.7186  0.3678  0.8114
 1800TIP3   OH226890   1.426   0.432  15.293  0.5194  0.5919 -0.0749
 1800TIP3    H126891   1.408   0.501  15.229 -0.4161  0.1625 -0.2743
 1800TIP3    H226892   1.420   0.351  15.243 -3.3857  0.0181  1.1647
 1801TIP3   OH226893   6.215   3.281  12.400  0.2726  0.2807  0.1257
 1801TIP3    H126894   6.211   3.363  12.349 -0.5966  0.9444  1.2512
 1801TIP3    H226895   6.304   3.280  12.435 -0.1118  1.3977  1.1625
 1802TIP3   OH226896   6.704   2.397  15.969  0.3841 -0.7275  0.4786
 1802TIP3    H126897   6.726   2.488  15.990  0.2020 -0.0705 -2.0749
 1802TIP3    H226898   6.742   2.346  16.041  0.8493  1.3185  1.7155
 1803TIP3   OH226899   3.249   5.975   4.203  0.4545  0.4605  0.6240
 1803TIP3    H126900   3.220   6.066   4.196 -2.2400 -0.4976 -1.6248
 1803TIP3    H226901   3.202   5.941   4.279 -0.1452  0.4111  0.2378
 1804TIP3   OH226902   5.999   0.740   3.748  0.1805 -0.0161  0.1461
 1804TIP3    H126903   5.916   0.754   3.702  1.0926  2.3094 -0.8598
 1804TIP3    H226904   6.066   0.743   3.680  1.3690  1.4144  1.3110
 1805TIP3   OH226905   4.931   5.451  11.922  0.0463 -0.1945  0.1061
 1805TIP3    H126906   4.870   5.381  11.897  1.5904 -1.5068 -0.0811
 1805TIP3    H226907   4.877   5.512  11.972 -1.1750 -1.9158  0.9731
 1806TIP3   OH226908   1.883   5.624  15.604  0.3994  0.3161  0.2550
 1806TIP3    H126909   1.886   5.536  15.642  0.5484  0.4937  0.6597
 1806TIP3    H226910   1.927   5.679  15.668  0.8120  0.5925 -0.2633
 1807TIP3   OH226911   5.926   5.124  16.247  0.2857 -0.4883  0.2045
 1807TIP3    H126912   5.830   5.123  16.252  0.2334 -1.9571 -0.7982
 1807TIP3    H226913   5.945   5.110  16.154  1.4601  2.1310  0.0076
 1808TIP3   OH226914   0.644   1.678  11.690 -0.2902  0.2232  0.0664
 1808TIP3    H126915   0.580   1.749  11.696  0.9088  1.4916 -1.6737
 1808TIP3    H226916   0.625   1.637  11.606  0.6517  0.1005 -0.0870
 1809TIP3   OH226917   2.340   3.050   1.458 -0.2442  0.2352  0.5631
 1809TIP3    H126918   2.281   3.000   1.402  0.1715 -0.9630  1.1714
 1809TIP3    H226919   2.409   3.081   1.399  2.3749 -4.3370  0.9638
 1810TIP3   OH226920   4.448   0.843  12.386 -0.2433  0.1532 -0.0400
 1810TIP3    H126921   4.439   0.939  12.381  1.0991  0.3267  0.7094
 1810TIP3    H226922   4.476   0.826  12.476  1.5402 -0.7705 -0.7489
 1811TIP3   OH226923   3.575   2.323  13.213 -0.3957 -0.0529 -0.3278
 1811TIP3    H126924   3.598   2.333  13.121 -0.7471 -0.1286 -0.4216
 1811TIP3    H226925   3.628   2.249  13.243  1.4185  1.3747  0.0977
 1812TIP3   OH226926   3.025   0.429  10.763 -0.4851 -0.3391 -0.0427
 1812TIP3    H126927   3.077   0.494  10.811 -0.7983  0.0264 -0.1902
 1812TIP3    H226928   3.088   0.366  10.730  0.0131  0.9112 -1.4871
 1813TIP3   OH226929   2.432   1.840  16.408 -0.2878 -0.4063  0.0926
 1813TIP3    H126930   2.504   1.778  16.395 -0.5971 -0.8083  0.3048
 1813TIP3    H226931   2.452   1.882  16.491  0.2104  0.1737 -0.3102
 1814TIP3   OH226932   2.517   0.765  14.219 -0.0218 -0.2842  0.1281
 1814TIP3    H126933   2.459   0.715  14.161  0.2231  0.8764 -1.1275
 1814TIP3    H226934   2.462   0.835  14.254  0.4385  0.4323 -0.5634
 1815TIP3   OH226935   3.566   1.755   5.754 -0.5261 -0.0947 -0.0099
 1815TIP3    H126936   3.521   1.672   5.767  0.4541 -0.4338  1.3635
 1815TIP3    H226937   3.659   1.735   5.771 -0.3683  1.4003  0.9490
 1816TIP3   OH226938   6.202   0.723  15.882  0.1541  0.0543  0.1639
 1816TIP3    H126939   6.144   0.696  15.953 -1.1775 -0.1502 -0.9668
 1816TIP3    H226940   6.166   0.679  15.804  3.0555 -1.7436 -0.2372
 1817TIP3   OH226941   3.461   6.074  16.565 -0.0057 -0.4069  0.2391
 1817TIP3    H126942   3.536   6.086  16.506 -1.5154 -0.6020 -1.7900
 1817TIP3    H226943   3.415   5.997  16.530 -0.4275 -1.0891  2.2483
 1818TIP3   OH226944   0.881   1.104   1.823 -0.2629  0.5216 -0.0819
 1818TIP3    H126945   0.849   1.023   1.782  3.0691 -0.5981 -0.6419
 1818TIP3    H226946   0.887   1.166   1.750  2.4735 -0.4631 -0.7566
 1819TIP3   OH226947   6.226   3.997   1.412 -0.3306  0.4335 -0.2905
 1819TIP3    H126948   6.192   3.911   1.438  0.3315  0.2171 -0.1398
 1819TIP3    H226949   6.149   4.044   1.380 -0.5349 -0.5460 -1.2469
 1820TIP3   OH226950   1.986   2.107  16.548 -0.2071  0.2591  0.0428
 1820TIP3    H126951   1.943   2.059  16.477  0.0543 -1.1017  0.7915
 1820TIP3    H226952   2.044   2.043  16.589 -0.8005  0.8739  1.8738
 1821TIP3   OH226953   6.723   0.073  11.980  0.3508  0.2646 -0.1828
 1821TIP3    H126954   6.797   0.043  12.034  0.0528  0.7360  0.4989
 1821TIP3    H226955   6.679  -0.007  11.954  1.5246 -0.0700 -1.2197
 1822TIP3   OH226956   4.860   1.632   1.596  0.1048 -0.1884  0.1469
 1822TIP3    H126957   4.828   1.574   1.665  1.0462 -0.0962  0.6727
 1822TIP3    H226958   4.823   1.718   1.618  0.6722 -0.0899  0.7289
 1823TIP3   OH226959   2.584   0.590  13.620  0.0887 -0.5922  0.4176
 1823TIP3    H126960   2.601   0.600  13.714  0.8316 -1.1453  0.3527
 1823TIP3    H226961   2.537   0.507  13.612 -1.3353  0.2095  0.4466
 1824TIP3   OH226962   2.544   0.875  11.733 -0.6526  0.2794  0.0970
 1824TIP3    H126963   2.608   0.850  11.667  1.0345 -1.8339  2.4495
 1824TIP3    H226964   2.460   0.846  11.697  0.2540 -0.9304 -1.1023
 1825TIP3   OH226965   6.703   4.928   1.992  0.1058 -0.2705 -0.2724
 1825TIP3    H126966   6.714   4.854   2.051  2.1199  0.6393  0.5481
 1825TIP3    H226967   6.609   4.933   1.977 -0.3006 -1.4580  1.6646
 1826TIP3   OH226968   0.347   1.514  12.346 -0.2834 -0.1820 -0.1939
 1826TIP3    H126969   0.396   1.446  12.299  0.2173  1.7658 -2.6249
 1826TIP3    H226970   0.414   1.561  12.397 -0.4177 -0.6309  0.4029
 1827TIP3   OH226971   6.411   4.813  16.710 -0.3368  0.5569  0.3865
 1827TIP3    H126972   6.477   4.751  16.677 -1.2849 -0.5267  0.5110
 1827TIP3    H226973   6.462   4.876  16.762  0.5346 -0.5904  0.9431
 1828TIP3   OH226974   6.030   0.072   2.959  0.3502 -0.2629  0.1771
 1828TIP3    H126975   6.112   0.115   2.937  0.8097 -0.8055  0.8158
 1828TIP3    H226976   6.035  -0.014   2.919  1.3648 -1.4113  2.6548
 1829TIP3   OH226977   6.614   5.899  16.659 -0.1099 -0.5058 -0.1304
 1829TIP3    H126978   6.668   5.975  16.683 -0.4843 -0.0671 -0.6628
 1829TIP3    H226979   6.583   5.865  16.743 -0.1839  0.1097  0.0996
 1830TIP3   OH226980   3.942   3.414   1.862  0.3558  0.4540 -0.4942
 1830TIP3    H126981   4.018   3.454   1.820  0.2153 -1.0920 -2.3040
 1830TIP3    H226982   3.946   3.322   1.834 -0.3429 -0.3830  2.0590
 1831TIP3   OH226983   4.390   5.936   1.783  0.1845 -0.2368 -0.1899
 1831TIP3    H126984   4.438   5.943   1.700 -0.5905 -0.0401 -0.6306
 1831TIP3    H226985   4.374   6.026   1.810 -1.5951 -0.2657 -1.0379
 1832TIP3   OH226986   3.370   3.473  16.844 -0.0811 -0.0164 -0.6892
 1832TIP3    H126987   3.416   3.535  16.788 -0.5320 -0.8216 -1.9502
 1832TIP3    H226988   3.290   3.519  16.870  0.2112  0.4212 -0.5561
 1833TIP3   OH226989   5.210   4.335   3.018 -0.2556  0.0838  0.4395
 1833TIP3    H126990   5.135   4.341   2.958 -1.1431  0.5451  1.5896
 1833TIP3    H226991   5.221   4.241   3.033  1.6188 -0.2520 -2.4658
 1834TIP3   OH226992   2.042   4.110  16.445 -0.3092  0.6444 -0.6108
 1834TIP3    H126993   2.120   4.075  16.488 -0.0304 -0.3224 -1.8918
 1834TIP3    H226994   2.059   4.204  16.437  0.3276  0.5746 -0.0856
 1835TIP3   OH226995   4.311   4.576  11.604  0.6140 -0.0433 -0.5185
 1835TIP3    H126996   4.373   4.504  11.613  0.3078 -0.3978 -1.2063
 1835TIP3    H226997   4.356   4.652  11.640  0.2144 -0.9756  2.0667
 1836TIP3   OH226998   5.712   2.350   4.411 -0.9388  0.9320 -0.6813
 1836TIP3    H126999   5.773   2.415   4.445 -0.2380  0.2819 -0.6961
 1836TIP3    H227000   5.666   2.396   4.340 -1.2563  1.7672  0.0598
 1837TIP3   OH227001   0.716   4.401  13.575 -0.2202 -0.7423 -0.1933
 1837TIP3    H127002   0.658   4.473  13.549  0.6858  0.3516  0.7557
 1837TIP3    H227003   0.798   4.444  13.599 -0.2210 -1.9195  2.0655
 1838TIP3   OH227004   3.616   3.110   1.092 -0.7722  0.3356 -0.2854
 1838TIP3    H127005   3.597   3.089   1.001 -0.6720  0.6271 -0.3755
 1838TIP3    H227006   3.592   3.032   1.141  1.3392 -0.6667 -0.8041
 1839TIP3   OH227007   3.490   1.022   0.413  0.0486 -0.1947  0.0738
 1839TIP3    H127008   3.566   1.026   0.471  2.0470  1.5906 -2.5233
 1839TIP3    H227009   3.424   1.076   0.455  0.7779 -0.4873  1.6192
 1840TIP3   OH227010   0.610   1.139  15.648  0.1941 -0.2640  0.1284
 1840TIP3    H127011   0.593   1.071  15.582 -0.9384  0.9080 -0.8295
 1840TIP3    H227012   0.526   1.149  15.693  1.3543 -2.1453  2.8568
 1841TIP3   OH227013   5.082   5.329   4.689  0.8525 -0.2745  0.1299
 1841TIP3    H127014   5.072   5.234   4.679  1.9809 -0.4850  0.8771
 1841TIP3    H227015   5.140   5.339   4.765 -0.2593  1.0456  0.8259
 1842TIP3   OH227016   0.589   2.985  12.821  0.2833 -0.1411 -0.2093
 1842TIP3    H127017   0.496   3.007  12.828 -0.1204 -1.2213 -1.8607
 1842TIP3    H227018   0.612   2.950  12.907 -0.1137  2.7101  1.1077
 1843TIP3   OH227019   5.326   1.685  13.847  0.5008  0.3571 -0.0265
 1843TIP3    H127020   5.279   1.638  13.778  0.6990 -0.0740  0.1304
 1843TIP3    H227021   5.354   1.617  13.908 -2.6003  1.0542  2.2894
 1844TIP3   OH227022   6.599   5.738  12.175  0.1120 -0.6656 -0.6940
 1844TIP3    H127023   6.643   5.821  12.194 -0.3506 -0.2361 -1.4448
 1844TIP3    H227024   6.670   5.677  12.157  0.4854 -0.6168  0.5646
 1845TIP3   OH227025   0.750   6.224   0.126  0.1053 -0.6936 -0.4294
 1845TIP3    H127026   0.671   6.197   0.172 -0.7623 -0.3599 -1.6777
 1845TIP3    H227027   0.754   6.167   0.049 -0.7160  1.4107 -2.0858
 1846TIP3   OH227028   2.119   4.414   4.289  0.1531 -0.0614  0.0468
 1846TIP3    H127029   2.199   4.381   4.249  0.0850 -0.2168  0.0378
 1846TIP3    H227030   2.144   4.435   4.379 -0.5105 -2.9798  0.9554
 1847TIP3   OH227031   4.310   0.076   4.855 -0.3388 -0.6876 -0.2524
 1847TIP3    H127032   4.357   0.158   4.867 -1.3358 -0.2106  0.4807
 1847TIP3    H227033   4.337   0.044   4.769 -1.3859  1.3475 -1.3568
 1848TIP3   OH227034   0.193   5.504   5.182  0.3227 -0.9711  0.4908
 1848TIP3    H127035   0.272   5.557   5.189 -0.6856  0.5216  0.6343
 1848TIP3    H227036   0.128   5.550   5.235 -0.9626 -1.5934 -0.5178
 1849TIP3   OH227037   6.587   5.027  16.835  0.2097  0.0902 -0.1155
 1849TIP3    H127038   6.612   5.086  16.906 -0.6691 -0.8296  0.9760
 1849TIP3    H227039   6.666   4.977  16.817  0.1075 -0.5060  1.0496
 1850TIP3   OH227040   1.191   1.979  11.868  0.0434  0.4212 -0.1468
 1850TIP3    H127041   1.181   2.073  11.855  1.2137  0.7059  0.9530
 1850TIP3    H227042   1.245   1.971  11.947  3.4537 -1.0984 -2.5052
 1851TIP3   OH227043   2.659   0.545   4.071  0.3830  0.1150  0.0592
 1851TIP3    H127044   2.722   0.474   4.063 -0.0178 -0.1915 -0.4105
 1851TIP3    H227045   2.604   0.538   3.992 -0.7858 -0.1486  0.8761
 1852TIP3   OH227046   1.968   2.817  14.690  0.6783 -0.2424 -0.0250
 1852TIP3    H127047   2.051   2.794  14.648  0.5918 -0.1673 -0.2360
 1852TIP3    H227048   1.949   2.906  14.660  0.3189 -0.4090 -0.2914
 1853TIP3   OH227049   5.199   3.556   2.635 -0.6491 -0.2369  0.2692
 1853TIP3    H127050   5.248   3.548   2.717  0.5773  1.1304 -0.3103
 1853TIP3    H227051   5.256   3.607   2.578 -1.2289 -1.6950 -1.6677
 1854TIP3   OH227052   4.145   0.675  11.637  0.5505  0.9498 -0.3605
 1854TIP3    H127053   4.145   0.741  11.707  2.2365 -1.5692  2.1208
 1854TIP3    H227054   4.082   0.708  11.573 -2.1301  2.6531  3.0010
 1855TIP3   OH227055   5.730   1.528  12.428  0.0724 -0.1922  0.4919
 1855TIP3    H127056   5.644   1.553  12.393  0.4000  0.3580  0.0759
 1855TIP3    H227057   5.781   1.610  12.428  1.1177 -0.8339 -0.7694
 1856TIP3   OH227058   5.395   3.491   4.284 -0.2541 -0.1961 -0.6821
 1856TIP3    H127059   5.421   3.578   4.252 -1.1793  0.6318  0.7194
 1856TIP3    H227060   5.453   3.430   4.239  0.2930  1.1388 -1.8356
 1857TIP3   OH227061   2.812   1.328  12.159  0.0277 -0.1647  0.2327
 1857TIP3    H127062   2.818   1.406  12.104  1.4942 -1.6392 -1.8139
 1857TIP3    H227063   2.883   1.337  12.222 -0.7095  0.8247  0.9259
 1858TIP3   OH227064   5.040   2.983  10.704 -0.4555  1.1953 -0.1615
 1858TIP3    H127065   5.051   3.077  10.720  1.4454  1.0701 -0.6135
 1858TIP3    H227066   5.084   2.968  10.620 -0.2774 -0.2045  0.1730
 1859TIP3   OH227067   4.038   4.808   0.314  0.3292 -0.3607  0.4493
 1859TIP3    H127068   4.037   4.818   0.219  0.8501  0.9488  0.5692
 1859TIP3    H227069   3.962   4.753   0.333 -0.3515  0.1797 -0.6519
 1860TIP3   OH227070   0.049   2.662  14.694 -0.6605  0.6557 -0.2173
 1860TIP3    H127071   0.121   2.602  14.678 -2.3127 -1.4401 -0.1252
 1860TIP3    H227072   0.072   2.706  14.776  0.3372 -0.2493 -0.0049
 1861TIP3   OH227073   0.324   1.348   3.067 -0.7170  0.0737  0.3135
 1861TIP3    H127074   0.395   1.315   3.012 -0.4242  0.7246  0.2931
 1861TIP3    H227075   0.315   1.283   3.136 -0.5170 -0.3234 -0.0326
 1862TIP3   OH227076   2.675   4.406   3.352 -0.6741  0.1877 -0.2482
 1862TIP3    H127077   2.664   4.501   3.361 -1.9414 -0.0430  0.7409
 1862TIP3    H227078   2.757   4.396   3.303 -0.6155  1.7927 -0.5018
 1863TIP3   OH227079   3.773   2.823  11.752 -0.7700 -0.5495 -0.2367
 1863TIP3    H127080   3.743   2.802  11.840 -0.6417  2.2716  0.5236
 1863TIP3    H227081   3.865   2.796  11.750 -0.7713 -0.5966  0.4770
 1864TIP3   OH227082   2.777   3.156  16.591  0.0918  0.1795  0.4419
 1864TIP3    H127083   2.835   3.162  16.667  0.1618 -0.9667  0.4905
 1864TIP3    H227084   2.691   3.135  16.628 -0.1225  0.7737  0.2844
 1865TIP3   OH227085   3.227   2.610  12.248 -0.4044 -0.5143  0.0366
 1865TIP3    H127086   3.189   2.529  12.214  0.6040 -0.5849 -0.9491
 1865TIP3    H227087   3.321   2.601  12.234 -0.3512  1.2249 -0.9667
 1866TIP3   OH227088   2.272   5.871   4.347 -0.3848 -0.1937 -0.1588
 1866TIP3    H127089   2.367   5.869   4.348 -0.4023 -1.3955 -0.3697
 1866TIP3    H227090   2.245   5.799   4.405 -1.1546 -0.2374 -0.5529
 1867TIP3   OH227091   5.836   1.513   4.029 -0.4096 -0.1958  0.0640
 1867TIP3    H127092   5.841   1.461   4.110  0.8742 -1.3709 -0.7418
 1867TIP3    H227093   5.928   1.528   4.006 -0.7509  2.6997  0.4186
 1868TIP3   OH227094   5.220   0.101  16.101  0.2806 -0.6204 -0.5445
 1868TIP3    H127095   5.312   0.077  16.104  1.0818  2.2746 -0.6476
 1868TIP3    H227096   5.214   0.182  16.151 -2.4677 -1.4776  0.6473
 1869TIP3   OH227097   0.010   6.561  16.968  0.4868  0.0771 -0.4064
 1869TIP3    H127098  -0.039   6.632  17.008 -0.8807 -0.5258 -0.9573
 1869TIP3    H227099   0.022   6.497  17.038 -0.9508 -0.4933 -0.6704
 1870TIP3   OH227100   5.624   4.727   5.548  0.2382  0.1434  0.0972
 1870TIP3    H127101   5.592   4.638   5.557  2.4264 -1.1870 -4.0139
 1870TIP3    H227102   5.719   4.721   5.559  0.2640  2.2703  1.4515
 1871TIP3   OH227103   4.197   1.731   4.600 -0.0768 -0.4502  0.4354
 1871TIP3    H127104   4.109   1.726   4.638 -1.3050  0.0624 -2.2313
 1871TIP3    H227105   4.254   1.754   4.673 -2.2757 -0.0112  2.0503
 1872TIP3   OH227106   0.980   0.138  11.731 -0.0461  0.2951  0.5356
 1872TIP3    H127107   0.968   0.049  11.698 -2.4583  0.3571  1.1047
 1872TIP3    H227108   1.012   0.127  11.821  0.2161  0.0123  0.4069
 1873TIP3   OH227109   2.972   5.809  16.784 -0.3780 -0.0763 -0.4684
 1873TIP3    H127110   3.006   5.760  16.709 -0.5449  1.0949 -1.3233
 1873TIP3    H227111   2.887   5.842  16.755  0.1870  1.5863 -0.2952
 1874TIP3   OH227112   6.572   0.051   5.044 -0.0980  0.2190  0.4742
 1874TIP3    H127113   6.600  -0.021   5.101  0.9058 -0.0215 -0.3016
 1874TIP3    H227114   6.505   0.012   4.988  0.7747 -0.2495 -0.2592
 1875TIP3   OH227115   3.396   0.315  13.994  0.3211 -0.2563 -0.9060
 1875TIP3    H127116   3.300   0.315  13.991  0.2410 -0.7450  0.8319
 1875TIP3    H227117   3.419   0.398  14.035  0.7526  0.8033 -3.2337
 1876TIP3   OH227118   2.940   5.229   2.892 -0.5488 -0.3242 -0.2317
 1876TIP3    H127119   2.881   5.238   2.817 -0.8699  0.0845  0.0747
 1876TIP3    H227120   3.021   5.273   2.864  0.1109 -2.0719 -1.1830
 1877TIP3   OH227121   6.626   3.870  16.465  0.3486 -0.7324  0.1192
 1877TIP3    H127122   6.563   3.926  16.419  0.0806 -0.9325  0.2434
 1877TIP3    H227123   6.595   3.869  16.556  1.8488  1.0485  0.6795
 1878TIP3   OH227124   2.826   3.176   5.221 -0.1700  0.1411 -0.4082
 1878TIP3    H127125   2.902   3.205   5.170  0.7769 -1.3085  0.1314
 1878TIP3    H227126   2.844   3.084   5.240 -2.1579 -0.2714 -0.4033
 1879TIP3   OH227127   0.609   5.692  11.163  0.5387  0.6746  0.1975
 1879TIP3    H127128   0.526   5.650  11.145  0.7757 -0.1608  1.0095
 1879TIP3    H227129   0.608   5.772  11.110  0.1314 -0.3908 -1.4089
 1880TIP3   OH227130   5.990   5.722   4.971 -0.2103  0.1390 -0.4358
 1880TIP3    H127131   6.082   5.733   4.997 -1.3500  1.1954  3.4321
 1880TIP3    H227132   5.950   5.808   4.986 -2.3773 -0.9686  0.3607
 1881TIP3   OH227133   2.171   3.537  13.510  0.9971 -0.1844  0.3479
 1881TIP3    H127134   2.246   3.597  13.512 -1.0727  2.6046 -1.5057
 1881TIP3    H227135   2.105   3.579  13.565  0.1339 -1.6857  0.4881
 1882TIP3   OH227136   5.091   0.214   0.975 -0.2805 -0.3545  0.4979
 1882TIP3    H127137   5.126   0.302   0.986  0.8664 -0.8672  1.0174
 1882TIP3    H227138   5.057   0.212   0.886 -0.1981  0.5661  0.4419
 1883TIP3   OH227139   3.272   4.143   0.469  0.5943  0.6599 -0.4182
 1883TIP3    H127140   3.184   4.119   0.441  0.7191  1.0290 -1.1663
 1883TIP3    H227141   3.329   4.080   0.425  0.6333 -0.2776  0.9550
 1884TIP3   OH227142   4.883   5.652  13.168  0.1469 -0.9015  0.1541
 1884TIP3    H127143   4.813   5.711  13.197  0.9972  0.1812  0.0295
 1884TIP3    H227144   4.908   5.604  13.247 -0.0436 -0.5664  0.4190
 1885TIP3   OH227145   5.733   3.676   1.465 -0.1853  0.5797  0.3437
 1885TIP3    H127146   5.813   3.682   1.516 -1.2643 -1.0925  2.3208
 1885TIP3    H227147   5.752   3.610   1.398 -0.0404 -0.2206  1.1516
 1886TIP3   OH227148   0.511   3.864   5.315 -0.0547  0.0485 -0.6074
 1886TIP3    H127149   0.419   3.861   5.342 -0.2327 -0.4924 -1.2612
 1886TIP3    H227150   0.529   3.957   5.304 -1.1745  0.0732 -2.6212
 1887TIP3   OH227151   3.396   2.615   0.918  0.2799 -0.1677 -0.3261
 1887TIP3    H127152   3.417   2.664   0.997 -2.6378 -0.0608  0.4531
 1887TIP3    H227153   3.324   2.663   0.878 -0.5583 -2.0978 -1.2316
 1888TIP3   OH227154   1.189   2.006   2.433 -0.0531  0.0588 -0.2574
 1888TIP3    H127155   1.283   2.020   2.428 -0.1384  0.8008  0.0679
 1888TIP3    H227156   1.179   1.912   2.447  0.5816 -0.2368 -1.6998
 1889TIP3   OH227157   0.920   3.600   3.293 -0.3962 -0.2161 -0.5438
 1889TIP3    H127158   1.010   3.597   3.260  0.2756  2.0877  1.0349
 1889TIP3    H227159   0.914   3.524   3.351  1.0462  0.4882  0.5686
 1890TIP3   OH227160   3.630   3.309  12.714 -0.1870  0.2787  0.1083
 1890TIP3    H127161   3.701   3.245  12.719  0.2049  0.6604 -0.5102
 1890TIP3    H227162   3.582   3.285  12.634 -1.6307 -0.8672  1.2682
 1891TIP3   OH227163   4.451   0.218   1.202 -0.5182 -0.2599  0.1729
 1891TIP3    H127164   4.432   0.185   1.290  1.0739 -0.0026  0.6280
 1891TIP3    H227165   4.390   0.291   1.190 -0.6582 -0.2105  1.1073
 1892TIP3   OH227166   4.318   2.812   5.789 -0.0577 -0.1398  0.0433
 1892TIP3    H127167   4.359   2.725   5.798  0.2181 -0.1627 -1.3526
 1892TIP3    H227168   4.392   2.873   5.785 -0.2143  0.0413 -0.1150
 1893TIP3   OH227169   4.604   0.066  13.077 -0.4616 -0.2802  0.3221
 1893TIP3    H127170   4.587  -0.013  13.128  2.4254 -0.4490  1.1613
 1893TIP3    H227171   4.639   0.034  12.994 -0.9183  0.0845 -0.0139
 1894TIP3   OH227172   6.234   5.092   2.654 -0.1112 -0.5566 -0.0257
 1894TIP3    H127173   6.307   5.125   2.708  0.1430 -1.8548  0.4394
 1894TIP3    H227174   6.254   5.123   2.566 -0.2534  1.1481  0.5092
 1895TIP3   OH227175   2.949   2.852   2.784 -0.4358 -0.4017 -0.5637
 1895TIP3    H127176   2.978   2.821   2.698  0.9211 -0.3507 -0.1285
 1895TIP3    H227177   2.911   2.774   2.825  0.9316 -0.9797 -0.3535
 1896TIP3   OH227178   2.228   1.968   0.536 -0.5644  0.1210  0.2727
 1896TIP3    H127179   2.285   1.891   0.532  0.1626  0.6313  0.5975
 1896TIP3    H227180   2.286   2.041   0.512 -0.9574  0.7061  1.0843
 1897TIP3   OH227181   0.579   0.497  16.996 -0.4865  0.4776  0.0755
 1897TIP3    H127182   0.553   0.516  17.086 -0.8069 -1.0182  0.3133
 1897TIP3    H227183   0.606   0.582  16.960 -2.8119  1.5328  0.7502
 1898TIP3   OH227184   0.287   3.066  13.853 -0.8089 -0.0849 -0.9171
 1898TIP3    H127185   0.348   3.079  13.780  1.1971 -0.4056  0.6526
 1898TIP3    H227186   0.243   2.984  13.833  0.6769 -0.8479 -1.1413
 1899TIP3   OH227187   2.039   6.681  10.220 -0.4212  0.1988  0.6196
 1899TIP3    H127188   2.031   6.714  10.309 -0.7769 -0.1203  0.7072
 1899TIP3    H227189   1.969   6.616  10.212 -1.0193  0.9391 -0.2112
 1900TIP3   OH227190   2.559   4.138  16.281  0.2734  0.4716 -0.3586
 1900TIP3    H127191   2.561   4.052  16.323  0.1938  0.1089 -1.0839
 1900TIP3    H227192   2.492   4.130  16.213 -1.5331  1.8994  1.2239
 1901TIP3   OH227193   5.433   3.109   5.711 -0.3176  0.2456 -0.1275
 1901TIP3    H127194   5.398   3.022   5.694  0.4679 -0.0516 -0.2420
 1901TIP3    H227195   5.433   3.117   5.807 -1.0124  0.3859 -0.1322
 1902TIP3   OH227196   6.606   1.675   2.512 -0.8480 -0.4662  0.4007
 1902TIP3    H127197   6.688   1.692   2.464 -0.1713 -1.1415  1.3018
 1902TIP3    H227198   6.575   1.592   2.477 -0.3497 -0.9636  1.1358
 1903TIP3   OH227199   5.429   4.030   4.185  0.6533 -0.3299 -0.0606
 1903TIP3    H127200   5.341   4.065   4.178  0.7331  0.0562  0.8299
 1903TIP3    H227201   5.483   4.090   4.134  1.4166  3.1540  4.5303
 1904TIP3   OH227202   3.652   6.762   2.369 -0.4415 -0.5206 -0.2663
 1904TIP3    H127203   3.603   6.764   2.286 -0.0758 -0.3730 -0.4798
 1904TIP3    H227204   3.657   6.668   2.390  1.3002 -0.7321 -1.5176
 1905TIP3   OH227205   5.307   0.809   5.036 -0.4214 -0.1317  0.8880
 1905TIP3    H127206   5.251   0.879   5.002  0.6444  1.2425  1.9114
 1905TIP3    H227207   5.260   0.776   5.113  0.0168  0.7918  1.5503
 1906TIP3   OH227208   0.566   2.508  12.488 -0.1205  0.2132  0.2962
 1906TIP3    H127209   0.651   2.544  12.463  0.2595 -1.7066 -1.3252
 1906TIP3    H227210   0.518   2.582  12.526  1.1701  2.0503 -1.5485
 1907TIP3   OH227211   1.406   5.164  14.132  0.3460 -0.0395 -0.6145
 1907TIP3    H127212   1.312   5.149  14.139  0.2935 -0.3710 -1.9239
 1907TIP3    H227213   1.440   5.145  14.220 -0.7219 -0.5109 -0.2957
 1908TIP3   OH227214   4.707   0.561  15.572  0.5055  0.3352  0.1741
 1908TIP3    H127215   4.694   0.482  15.519 -0.0502  0.7881 -0.3722
 1908TIP3    H227216   4.798   0.586  15.556  1.0881 -0.9466  1.3890
 1909TIP3   OH227217   0.287   6.214   5.478 -0.1637  0.5205 -0.6428
 1909TIP3    H127218   0.372   6.198   5.437  0.7132  3.4642 -0.1391
 1909TIP3    H227219   0.308   6.236   5.569 -1.8542 -3.1377  0.7057
 1910TIP3   OH227220   2.242   6.229   1.881  0.1083  0.3503 -0.1160
 1910TIP3    H127221   2.185   6.220   1.957  0.3400  1.4110  0.1893
 1910TIP3    H227222   2.283   6.314   1.891  0.1939  0.4782 -1.3951
 1911TIP3   OH227223   2.983   5.724  11.354 -0.5907  0.9049  0.2311
 1911TIP3    H127224   2.961   5.723  11.447 -0.7706  1.6820  0.2022
 1911TIP3    H227225   3.024   5.810  11.340  1.6963 -0.1709  0.1139
 1912TIP3   OH227226   5.744   4.996   4.186 -0.0072  0.2903  0.2509
 1912TIP3    H127227   5.792   4.914   4.197  0.1975  0.7128  2.9509
 1912TIP3    H227228   5.667   4.972   4.135  0.7446 -1.2949 -0.1849
 1913TIP3   OH227229   4.952   5.813   1.545  0.2334  0.3823 -0.4993
 1913TIP3    H127230   4.910   5.804   1.630  1.9608  0.4465  0.3742
 1913TIP3    H227231   4.942   5.727   1.504  0.8157 -0.1241  0.4218
 1914TIP3   OH227232   4.531   4.282  15.177 -0.2619  0.1270 -0.0756
 1914TIP3    H127233   4.534   4.244  15.089  0.3283  1.1236 -0.4989
 1914TIP3    H227234   4.495   4.212  15.232  1.0384 -1.1356 -0.7890
 1915TIP3   OH227235   2.647   6.745  13.381 -0.6647 -0.0757 -0.3011
 1915TIP3    H127236   2.727   6.798  13.377  0.5508 -1.8118  0.0790
 1915TIP3    H227237   2.619   6.750  13.472  0.3044 -1.2673  0.0787
 1916TIP3   OH227238   3.074   5.560   2.193  0.0450  0.2407  0.2338
 1916TIP3    H127239   2.988   5.556   2.234  0.0662  2.1578  0.5359
 1916TIP3    H227240   3.081   5.650   2.160  1.8237  0.0462  0.0092
 1917TIP3   OH227241   1.562   5.431   4.068  0.2626 -0.8748  0.0688
 1917TIP3    H127242   1.635   5.460   4.013  0.2085 -3.3737 -1.4228
 1917TIP3    H227243   1.491   5.491   4.047  0.7116 -0.8461 -1.4313
 1918TIP3   OH227244   0.179   4.957   4.174 -0.3742  0.0789  0.4010
 1918TIP3    H127245   0.218   4.954   4.087 -1.7148  0.0209 -0.2070
 1918TIP3    H227246   0.205   5.042   4.209  1.7090 -0.6401  0.6942
 1919TIP3   OH227247   0.658   4.668  11.705 -0.2186 -0.0226 -0.2233
 1919TIP3    H127248   0.599   4.702  11.772 -0.5795 -0.4056 -0.3444
 1919TIP3    H227249   0.736   4.725  11.710 -0.7704  0.7493 -0.3551
 1920TIP3   OH227250   0.588   0.163  14.261  0.4959  0.0703  0.6557
 1920TIP3    H127251   0.665   0.109  14.275  2.4178  2.2656 -1.1604
 1920TIP3    H227252   0.554   0.134  14.176  1.7825  1.9365 -0.5310
 1921TIP3   OH227253   5.148   3.391   3.547 -0.2351 -0.3322 -0.0618
 1921TIP3    H127254   5.111   3.313   3.589 -1.9838  0.2093 -0.5577
 1921TIP3    H227255   5.170   3.450   3.619 -3.5511  0.7385  0.1302
 1922TIP3   OH227256   4.204   4.413   2.838 -0.4562 -0.1268  0.4961
 1922TIP3    H127257   4.120   4.450   2.866 -0.5728  0.6384 -0.8427
 1922TIP3    H227258   4.228   4.463   2.760  0.2367 -1.7089 -0.3381
 1923TIP3   OH227259   0.527   3.477  16.318  0.4463 -0.2528  0.1208
 1923TIP3    H127260   0.538   3.384  16.298 -0.3117 -0.4571  0.6580
 1923TIP3    H227261   0.439   3.484  16.354 -0.2106  0.9614 -1.6393
 1924TIP3   OH227262   5.360   1.341  15.072  0.5118 -0.6853  0.7466
 1924TIP3    H127263   5.340   1.393  14.994  0.7774  2.4828  2.7206
 1924TIP3    H227264   5.279   1.342  15.123  0.3527 -2.7189  0.6098
 1925TIP3   OH227265   4.382   2.486  12.068 -0.0250 -0.0206 -0.3387
 1925TIP3    H127266   4.469   2.477  12.106  0.6001  0.7880 -1.5506
 1925TIP3    H227267   4.397   2.517  11.979 -1.6097  1.5560 -0.0880
 1926TIP3   OH227268   3.780   3.904  11.489  0.6082 -0.5487  0.1004
 1926TIP3    H127269   3.841   3.832  11.507  0.7201 -0.4879 -0.0288
 1926TIP3    H227270   3.712   3.865  11.435  0.0584 -0.8241  0.9938
 1927TIP3   OH227271   2.711   2.216  16.901  0.2920  0.4197 -0.7329
 1927TIP3    H127272   2.784   2.278  16.896  1.1113 -0.6282 -2.0447
 1927TIP3    H227273   2.724   2.170  16.984 -0.2854  1.9232  0.2171
 1928TIP3   OH227274   2.959   1.828  16.542 -0.2151 -0.1679  0.0501
 1928TIP3    H127275   2.872   1.824  16.582 -0.7250  1.1780 -0.8758
 1928TIP3    H227276   3.007   1.892  16.595  0.3609 -1.2352  0.8275
 1929TIP3   OH227277   0.567   5.625  12.321 -0.0487 -0.5648  0.3717
 1929TIP3    H127278   0.475   5.615  12.345 -0.7255 -1.0995 -2.3635
 1929TIP3    H227279   0.613   5.625  12.405 -2.6025  0.7231  1.8541
 1930TIP3   OH227280   1.179   2.872  16.841 -0.6364 -0.3293  0.2518
 1930TIP3    H127281   1.249   2.937  16.849 -2.3893  1.5083  1.0874
 1930TIP3    H227282   1.215   2.805  16.782  1.6908  0.7212  0.4303
 1931TIP3   OH227283   4.914   0.234   1.768  0.0886 -0.1278 -0.9619
 1931TIP3    H127284   4.848   0.270   1.827  0.8771 -0.5109  0.1531
 1931TIP3    H227285   4.863   0.199   1.694 -1.0336 -1.3406  0.3621
 1932TIP3   OH227286   5.155   4.967  10.429 -0.2856  0.2033  0.3218
 1932TIP3    H127287   5.129   5.007  10.512 -0.3311  4.5370 -1.6325
 1932TIP3    H227288   5.076   4.924  10.397 -1.4624  2.0373  0.6517
 1933TIP3   OH227289   4.459   4.424  13.114  0.7945 -0.3383  0.0884
 1933TIP3    H127290   4.544   4.383  13.124  0.2714 -1.7882 -1.2552
 1933TIP3    H227291   4.478   4.511  13.079  1.8579  0.2868  2.1448
 1934TIP3   OH227292   4.529   5.845  13.352  0.0107 -0.0191  0.1661
 1934TIP3    H127293   4.541   5.913  13.419  1.6802  0.5347 -0.6639
 1934TIP3    H227294   4.545   5.763  13.398 -0.4173  0.2555  0.8099
 1935TIP3   OH227295   2.273   4.715  12.391  0.2086 -0.2729  0.3543
 1935TIP3    H127296   2.366   4.699  12.409  0.5393 -0.1227 -1.1438
 1935TIP3    H227297   2.268   4.808  12.369 -0.1452 -0.4807 -0.4578
 1936TIP3   OH227298   5.013   3.353   2.635 -0.1309  0.4047 -0.3516
 1936TIP3    H127299   5.084   3.418   2.635 -0.2195  0.5012  0.0895
 1936TIP3    H227300   5.058   3.269   2.631  0.0286  0.4464  0.5453
 1937TIP3   OH227301   5.327   4.145  14.927 -0.2543  0.0241  0.7766
 1937TIP3    H127302   5.372   4.101  14.999 -0.7703  0.7787  1.5688
 1937TIP3    H227303   5.324   4.080  14.857  0.5790 -0.5914  1.3038
 1938TIP3   OH227304   6.786   1.967  14.766 -0.0153  0.5418  0.0244
 1938TIP3    H127305   6.856   1.959  14.831  0.9876  0.2283 -1.0632
 1938TIP3    H227306   6.822   1.924  14.688 -1.7519 -0.3641 -0.2984
 1939TIP3   OH227307   5.978   1.701  15.727 -0.3053  0.1451  0.2415
 1939TIP3    H127308   5.925   1.623  15.743  0.1740  0.2680  2.6537
 1939TIP3    H227309   6.067   1.676  15.750 -0.2258  1.5225  1.5481
 1940TIP3   OH227310   3.564   1.799   2.062 -0.2510 -0.0369 -0.1042
 1940TIP3    H127311   3.526   1.880   2.094 -1.7204 -0.1430 -1.5604
 1940TIP3    H227312   3.496   1.759   2.008  1.2891 -1.1040 -1.3067
 1941TIP3   OH227313   0.057   5.789  15.680  0.1734  0.5251  0.6368
 1941TIP3    H127314   0.047   5.726  15.751  1.0230 -0.8116 -0.4123
 1941TIP3    H227315  -0.026   5.786  15.633  0.3276 -0.0466  0.3983
 1942TIP3   OH227316   1.102   3.522   0.988 -0.3565 -0.0213  0.0906
 1942TIP3    H127317   1.166   3.453   0.969 -0.2452  0.2845 -0.6508
 1942TIP3    H227318   1.040   3.517   0.915 -0.4115  0.5853  0.0970
 1943TIP3   OH227319   3.692   6.734  12.864  0.2387  0.0418 -0.1934
 1943TIP3    H127320   3.633   6.671  12.906 -1.1539  0.3233 -1.6722
 1943TIP3    H227321   3.778   6.714  12.900 -0.6259 -0.9178  1.4025
 1944TIP3   OH227322   2.338   0.280   2.479  0.2884 -0.4326 -0.0028
 1944TIP3    H127323   2.263   0.254   2.533 -0.1825 -0.5330 -0.6921
 1944TIP3    H227324   2.342   0.375   2.489  0.0564 -0.4234  0.0232
 1945TIP3   OH227325   0.612   4.887  16.943 -0.2246  0.2363 -0.0723
 1945TIP3    H127326   0.620   4.976  16.976  1.0393  0.6692 -1.5036
 1945TIP3    H227327   0.597   4.834  17.021  2.5606  1.2479  1.2037
 1946TIP3   OH227328   4.933   1.142  16.496 -0.1948 -0.3677 -0.4400
 1946TIP3    H127329   4.874   1.074  16.464  0.3002 -0.9444 -0.1308
 1946TIP3    H227330   4.989   1.098  16.559  0.4959  0.2024 -0.6436
 1947TIP3   OH227331   6.569   1.138  13.801  0.3171 -0.2412 -0.5786
 1947TIP3    H127332   6.500   1.169  13.860  0.9226 -0.9036  0.4862
 1947TIP3    H227333   6.553   1.045  13.792 -0.2955  0.0044 -2.1838
 1948TIP3   OH227334   5.565   2.263   5.901 -0.5005  0.3510  0.6993
 1948TIP3    H127335   5.497   2.238   5.838 -1.6100  0.4254  1.8459
 1948TIP3    H227336   5.592   2.351   5.874 -1.0570  0.4332  0.4064
 1949TIP3   OH227337   2.246   1.349  14.210  0.3526  0.0490 -0.0415
 1949TIP3    H127338   2.153   1.327  14.209  0.1596  0.8470  0.2163
 1949TIP3    H227339   2.258   1.401  14.289  1.0241 -0.0812 -0.0554
 1950TIP3   OH227340   5.467   4.073   1.199 -0.2851 -0.1879  0.0661
 1950TIP3    H127341   5.413   4.072   1.278 -2.4356 -1.3878 -1.3619
 1950TIP3    H227342   5.521   3.995   1.206 -0.8096 -0.5463  0.1465
 1951TIP3   OH227343   3.947   2.835  12.956  0.3017 -0.0423 -0.2784
 1951TIP3    H127344   3.870   2.891  12.952 -0.2805 -0.9898 -2.4884
 1951TIP3    H227345   3.913   2.746  12.961  1.2469 -0.4180 -0.3206
 1952TIP3   OH227346   4.165   2.377   2.894 -0.4225  0.6876 -0.1320
 1952TIP3    H127347   4.192   2.468   2.911 -0.8414  0.8215 -0.1920
 1952TIP3    H227348   4.104   2.357   2.965 -0.5244  0.5333 -0.2664
 1953TIP3   OH227349   0.984   4.618   1.379 -0.7859 -0.0879 -0.4042
 1953TIP3    H127350   0.931   4.599   1.302 -1.8669  0.0786  0.2941
 1953TIP3    H227351   0.960   4.550   1.442 -0.5678  0.3086  0.1084
 1954TIP3   OH227352   5.635   3.079  16.102 -0.3233  0.1973 -0.2869
 1954TIP3    H127353   5.543   3.067  16.123  0.1273  0.3994  1.9521
 1954TIP3    H227354   5.677   3.097  16.187  1.8935 -0.7716 -1.1351
 1955TIP3   OH227355   2.173   0.072  16.968  0.3027 -0.7731 -0.3331
 1955TIP3    H127356   2.248   0.014  16.979  0.8730 -0.4168 -2.1374
 1955TIP3    H227357   2.166   0.084  16.873 -1.7462 -0.4357 -0.1642
 1956TIP3   OH227358   1.514   2.586   3.522  0.3695  0.1354 -0.1535
 1956TIP3    H127359   1.592   2.531   3.532  1.1073  1.1492 -0.2479
 1956TIP3    H227360   1.482   2.599   3.611  1.2096  0.9927  0.0336
 1957TIP3   OH227361   3.426   4.478   4.022 -0.4661  0.1879 -0.0734
 1957TIP3    H127362   3.422   4.383   4.021 -1.2087  0.1964  1.1702
 1957TIP3    H227363   3.507   4.499   3.976 -0.1909 -1.0443 -0.1688
 1958TIP3   OH227364   4.962   2.737   6.023 -0.5599  0.1875 -0.1768
 1958TIP3    H127365   5.006   2.653   6.011  0.3524  0.4802  1.0143
 1958TIP3    H227366   4.871   2.713   6.041 -0.9667 -0.4149 -2.7992
 1959TIP3   OH227367   6.137   4.722  13.624 -0.1931 -0.3406  0.7450
 1959TIP3    H127368   6.118   4.694  13.713 -1.9049  1.2876  0.9242
 1959TIP3    H227369   6.165   4.813  13.634 -0.5520 -0.0987 -0.3914
 1960TIP3   OH227370   2.239   3.709   1.520 -0.3620  0.4789  0.2667
 1960TIP3    H127371   2.331   3.688   1.501 -0.2443  0.4675  0.8381
 1960TIP3    H227372   2.234   3.706   1.616 -1.6165 -2.3218  0.1757
 1961TIP3   OH227373   0.390   6.207  17.251  0.3724 -0.2185 -0.0624
 1961TIP3    H127374   0.414   6.296  17.279 -2.1241 -0.1417  2.0149
 1961TIP3    H227375   0.358   6.218  17.162 -1.1324  1.1891  0.6220
 1962TIP3   OH227376   1.783   1.428  16.093  0.6667  0.1900  0.1154
 1962TIP3    H127377   1.701   1.442  16.046  0.7361 -0.5321 -0.2096
 1962TIP3    H227378   1.796   1.334  16.094  1.9210  0.3379 -0.5621
 1963TIP3   OH227379   4.980   1.268   3.298 -0.5082  0.4305  0.3682
 1963TIP3    H127380   4.932   1.195   3.337 -0.5928  0.5141  0.4246
 1963TIP3    H227381   5.063   1.270   3.345  0.5705 -1.2303 -1.3902
 1964TIP3   OH227382   0.259   5.269  16.333 -0.0263  0.3405 -0.5763
 1964TIP3    H127383   0.240   5.198  16.394 -0.7809  1.5157  0.5789
 1964TIP3    H227384   0.345   5.247  16.296 -1.0936 -2.1677 -1.7007
 1965TIP3   OH227385   1.962   3.194  16.967  0.4157 -0.5198 -0.4890
 1965TIP3    H127386   2.017   3.249  16.910  1.8607 -0.4523  0.9382
 1965TIP3    H227387   1.957   3.243  17.049  0.7105 -1.9663  0.3947
 1966TIP3   OH227388   6.136   1.810  12.963  0.7417 -0.4055  0.2962
 1966TIP3    H127389   6.172   1.816  12.874 -1.1425  1.9615 -0.3614
 1966TIP3    H227390   6.131   1.900  12.993  1.6856 -1.1858  3.0118
 1967TIP3   OH227391   3.448   0.094  12.764  0.3703  0.2151  0.1409
 1967TIP3    H127392   3.498   0.168  12.728  0.6688 -0.9757 -1.9621
 1967TIP3    H227393   3.506   0.019  12.754 -0.7463 -0.6780  0.3068
 1968TIP3   OH227394   0.749   0.335   4.022 -0.4755  0.2246  0.3855
 1968TIP3    H127395   0.755   0.407   4.086  0.9401  1.0857 -0.7049
 1968TIP3    H227396   0.702   0.373   3.948 -1.8524 -0.6969  0.7469
 1969TIP3   OH227397   2.849   4.978   5.398  0.1581 -0.3920  0.1640
 1969TIP3    H127398   2.822   4.892   5.367 -0.5604 -0.4871  1.0403
 1969TIP3    H227399   2.823   4.980   5.490  1.1213  0.3644  0.4289
 1970TIP3   OH227400   2.539   6.459  10.587 -0.5750 -0.8142 -0.7740
 1970TIP3    H127401   2.447   6.486  10.584  0.6423  3.8907 -0.1282
 1970TIP3    H227402   2.567   6.457  10.496 -0.6436  0.4033 -0.8270
 1971TIP3   OH227403   3.752   6.753   5.952 -0.0008  0.0339  0.2733
 1971TIP3    H127404   3.750   6.668   5.906 -1.0441  0.5786 -0.7019
 1971TIP3    H227405   3.829   6.797   5.916 -0.7129  0.3842 -0.8524
 1972TIP3   OH227406   4.769   1.829  14.051  0.1175 -0.5637  0.9474
 1972TIP3    H127407   4.708   1.899  14.074  0.0558 -0.2881 -0.0317
 1972TIP3    H227408   4.856   1.869  14.057  0.1036 -0.4999  0.7410
 1973TIP3   OH227409   2.905   2.577   3.693  0.5218 -0.4068 -0.0997
 1973TIP3    H127410   2.906   2.603   3.601 -1.4728  1.1238  0.2682
 1973TIP3    H227411   2.820   2.607   3.725  1.4084 -0.4382  2.3849
 1974TIP3   OH227412   4.481   2.416   2.856 -0.0298  0.1097  0.2847
 1974TIP3    H127413   4.452   2.480   2.792 -0.6372  0.0334  0.4781
 1974TIP3    H227414   4.562   2.453   2.893 -1.4604  1.7517  1.8692
 1975TIP3   OH227415   0.313   4.080   2.931 -0.1680  0.3051  0.0753
 1975TIP3    H127416   0.363   4.150   2.889  0.4291 -0.0799  0.1301
 1975TIP3    H227417   0.354   3.999   2.899 -0.7315 -0.0160  0.1579
 1976TIP3   OH227418   5.246   2.776  16.334 -0.0878 -0.3100  0.5071
 1976TIP3    H127419   5.298   2.770  16.414 -1.1683  0.8328  1.3013
 1976TIP3    H227420   5.245   2.686  16.300  2.2072 -0.4166  0.5834
 1977TIP3   OH227421   5.570   6.137   3.657  0.1466  0.4486  0.2518
 1977TIP3    H127422   5.625   6.093   3.592  0.7129 -0.3712  1.2712
 1977TIP3    H227423   5.622   6.210   3.689  0.7175 -0.4147  1.3235
 1978TIP3   OH227424   3.427   6.726   3.863  0.0732  0.2278 -0.1735
 1978TIP3    H127425   3.519   6.715   3.887 -0.1368  0.5713  0.8001
 1978TIP3    H227426   3.386   6.763   3.941 -0.9556 -0.2018 -0.5027
 1979TIP3   OH227427   0.196   2.301  14.868  0.2083 -0.2824 -0.0772
 1979TIP3    H127428   0.153   2.291  14.954  0.3198 -1.2860 -0.1305
 1979TIP3    H227429   0.201   2.212  14.834 -0.0871  0.1480 -1.2609
 1980TIP3   OH227430   1.916   6.165  10.865 -0.3030 -0.0967 -0.0149
 1980TIP3    H127431   1.903   6.153  10.771 -2.0271 -0.9621  0.3226
 1980TIP3    H227432   1.848   6.112  10.906 -0.5569  1.5028  1.7085
 1981TIP3   OH227433   1.951   6.641   5.210  0.8569  0.1915 -0.4674
 1981TIP3    H127434   1.993   6.626   5.294  3.1394  0.2398 -1.5604
 1981TIP3    H227435   1.951   6.556   5.167  1.0341  0.4497 -0.9916
 1982TIP3   OH227436   5.207   3.315   4.832  0.5567 -0.2986  0.9184
 1982TIP3    H127437   5.260   3.329   4.911 -0.7199  1.6669  1.4538
 1982TIP3    H227438   5.154   3.395   4.824 -1.1934 -1.5679 -0.4869
 1983TIP3   OH227439   2.690   0.748  15.120 -0.0952  0.0554  0.5524
 1983TIP3    H127440   2.636   0.812  15.074 -0.4376  0.0352  0.9208
 1983TIP3    H227441   2.656   0.663  15.092  1.8638 -0.0142 -1.7295
 1984TIP3   OH227442   5.889   4.796  15.791  0.2663  0.0176 -0.5055
 1984TIP3    H127443   5.945   4.839  15.855  1.6473 -0.5732 -1.2873
 1984TIP3    H227444   5.920   4.705  15.790 -0.4562 -0.2265 -1.2114
 1985TIP3   OH227445   5.171   5.377  14.425 -0.5174  0.0750 -0.0717
 1985TIP3    H127446   5.209   5.446  14.370 -1.8681  0.3120 -0.7248
 1985TIP3    H227447   5.235   5.306  14.423  0.1128  0.6616 -0.7598
 1986TIP3   OH227448   6.440   0.050   0.095 -0.7256 -0.9015 -0.0783
 1986TIP3    H127449   6.436   0.020   0.004 -0.8612 -1.4022  0.0937
 1986TIP3    H227450   6.350   0.075   0.116 -0.9179 -1.8942  0.2923
 1987TIP3   OH227451   4.902   1.321   5.166 -0.1587 -0.1084  0.1869
 1987TIP3    H127452   4.809   1.337   5.180  0.1994  0.7150  1.7821
 1987TIP3    H227453   4.911   1.310   5.071 -2.3051 -3.0577  0.2712
 1988TIP3   OH227454   0.708   3.230   6.277 -0.1067 -0.0987  0.5105
 1988TIP3    H127455   0.781   3.241   6.338 -0.1580  0.4408  0.4741
 1988TIP3    H227456   0.652   3.306   6.292 -0.3693 -0.2137  0.1309
 1989TIP3   OH227457   1.344   0.654  15.753 -0.3071 -0.8978 -0.2489
 1989TIP3    H127458   1.301   0.661  15.838  0.7835 -0.3567  0.2642
 1989TIP3    H227459   1.315   0.569  15.718 -1.5034 -0.6922  0.2368
 1990TIP3   OH227460   5.906   0.110   4.431  0.0485  0.0342 -0.3392
 1990TIP3    H127461   5.953   0.110   4.513  1.1036 -0.3778 -0.9352
 1990TIP3    H227462   5.838   0.043   4.442 -0.6309  0.8685  0.6332
 1991TIP3   OH227463   3.780   3.102  11.651 -0.0754 -0.0646 -0.0621
 1991TIP3    H127464   3.705   3.161  11.655 -0.7014 -0.7825 -0.8446
 1991TIP3    H227465   3.745   3.017  11.679  0.5442 -0.3149 -0.0345
 1992TIP3   OH227466   3.838   2.784  15.998  0.3178  0.5555 -0.6795
 1992TIP3    H127467   3.802   2.825  16.076  0.7543 -0.0186 -0.1728
 1992TIP3    H227468   3.854   2.857  15.938  0.7686  1.0895  0.0826
 1993TIP3   OH227469   6.652   4.807  17.099  0.2342  0.2919  0.3789
 1993TIP3    H127470   6.717   4.857  17.150  1.5480 -0.4584 -0.5211
 1993TIP3    H227471   6.701   4.775  17.024 -0.9714 -1.0881  0.1704
 1994TIP3   OH227472   5.080   3.839  16.767  0.0342  0.2308 -0.0737
 1994TIP3    H127473   5.108   3.749  16.784  1.1554 -0.0741 -3.3480
 1994TIP3    H227474   5.003   3.830  16.711  0.6468  1.3153 -1.1154
 1995TIP3   OH227475   6.553   2.326   2.097 -0.1256  0.5021 -0.1446
 1995TIP3    H127476   6.477   2.369   2.136  0.6912 -0.7805  3.0909
 1995TIP3    H227477   6.628   2.379   2.125  0.5181 -0.6521  0.3790
 1996TIP3   OH227478   3.240   3.321   5.293  0.2133 -0.1729 -0.3266
 1996TIP3    H127479   3.149   3.300   5.315  0.5482 -1.9590 -0.5032
 1996TIP3    H227480   3.285   3.321   5.377  0.4554 -1.5111 -0.4437
 1997TIP3   OH227481   3.597   0.489   1.032  0.0046  0.1875  0.1704
 1997TIP3    H127482   3.580   0.396   1.051  1.2835  0.4404  2.9454
 1997TIP3    H227483   3.612   0.492   0.938 -0.3260 -2.3873 -0.0085
 1998TIP3   OH227484   5.903   4.499  15.846  0.1411 -0.2915 -0.4976
 1998TIP3    H127485   5.837   4.471  15.909  0.8465  0.2990  0.5169
 1998TIP3    H227486   5.986   4.488  15.892  0.6669  0.0363 -1.3648
 1999TIP3   OH227487   1.297   0.273   3.859 -0.3972 -0.1747 -0.1472
 1999TIP3    H127488   1.283   0.321   3.941  3.8606 -0.6641  0.9370
 1999TIP3    H227489   1.351   0.198   3.883  2.0757  0.3917 -3.5704
 2000TIP3   OH227490   2.105   2.514   2.721  0.5768  0.5433 -0.0245
 2000TIP3    H127491   2.024   2.483   2.681  0.9724 -0.1496 -0.2962
 2000TIP3    H227492   2.106   2.472   2.807  0.8231  0.2602 -0.1641
 2001TIP3   OH227493   6.057   1.971   2.791 -0.2533  0.2322 -0.0444
 2001TIP3    H127494   6.100   2.023   2.860  0.3267  1.5526 -1.3721
 2001TIP3    H227495   6.126   1.914   2.758 -0.9684 -1.6515  1.6222
 2002TIP3   OH227496   1.599   3.457  13.201 -0.2304 -0.0925  0.2578
 2002TIP3    H127497   1.691   3.446  13.223  0.1693 -0.0362 -1.3092
 2002TIP3    H227498   1.565   3.367  13.193  0.3301 -0.1725 -1.6354
 2003TIP3   OH227499   4.256   2.226  13.271 -0.3733 -0.0212  0.2992
 2003TIP3    H127500   4.179   2.209  13.217 -0.3305  0.0299  0.2217
 2003TIP3    H227501   4.240   2.176  13.352 -0.2623 -0.3978  0.0870
 2004TIP3   OH227502   5.525   2.900  14.357  0.4248  0.5209  0.3743
 2004TIP3    H127503   5.535   2.829  14.293 -0.4826 -1.0586  1.9532
 2004TIP3    H227504   5.431   2.917  14.360  0.4921  0.7799  1.0830
 2005TIP3   OH227505   1.365   0.911  13.671 -0.1172 -0.7559 -0.2458
 2005TIP3    H127506   1.407   0.997  13.680 -0.8447 -0.5692  1.4839
 2005TIP3    H227507   1.282   0.929  13.626 -0.2011 -0.5741 -0.0192
 2006TIP3   OH227508   4.335   1.154  16.474 -0.1886 -0.0461 -0.2065
 2006TIP3    H127509   4.385   1.198  16.542  0.1159 -0.2044 -0.3307
 2006TIP3    H227510   4.244   1.174  16.495 -0.0217  1.3211 -0.7218
 2007TIP3   OH227511   2.941   3.097   1.847 -0.0188 -0.6965  0.0197
 2007TIP3    H127512   2.856   3.093   1.892  0.8206  0.1197  1.7238
 2007TIP3    H227513   2.957   3.191   1.836  1.2251 -0.8028  0.8146
 2008TIP3   OH227514   4.074   6.135   5.583 -0.3693  0.2847 -0.2355
 2008TIP3    H127515   4.034   6.050   5.599  0.0704  0.5271  2.4011
 2008TIP3    H227516   4.153   6.116   5.532 -0.2008 -0.8870  0.4596
 2009TIP3   OH227517   5.461   1.494   5.511 -0.3027 -0.1904 -0.1927
 2009TIP3    H127518   5.379   1.535   5.485 -0.6966  0.0742  1.4160
 2009TIP3    H227519   5.526   1.564   5.507 -0.3107 -0.2138 -0.7057
 2010TIP3   OH227520   6.580   4.984  14.291 -0.1124  0.1210 -0.5396
 2010TIP3    H127521   6.586   5.030  14.208  4.9434  1.9688  0.6956
 2010TIP3    H227522   6.577   5.053  14.357  1.4004 -1.2637  1.0314
 2011TIP3   OH227523   0.488   5.977  14.997 -0.1012  0.2719 -0.8310
 2011TIP3    H127524   0.551   6.049  15.008 -1.1829  1.6073 -2.8893
 2011TIP3    H227525   0.541   5.904  14.964  0.7115  0.7186 -0.5477
 2012TIP3   OH227526   3.181   0.596  11.955 -0.1718  0.1994 -0.3573
 2012TIP3    H127527   3.127   0.568  12.029 -0.3638 -0.4933 -0.7532
 2012TIP3    H227528   3.233   0.519  11.932  0.1765  0.5285 -0.6865
 2013TIP3   OH227529   4.851   6.421   3.207  0.0951 -0.2364  0.3357
 2013TIP3    H127530   4.805   6.342   3.177  0.6753 -0.9074  1.1888
 2013TIP3    H227531   4.929   6.425   3.152  1.1130 -1.4148  1.6957
 2014TIP3   OH227532   2.005   2.856  13.850 -0.1316 -0.1781  0.2362
 2014TIP3    H127533   2.058   2.833  13.773  0.4336 -0.5674  0.7332
 2014TIP3    H227534   1.927   2.897  13.814 -0.4577 -1.5207 -0.6140
 2015TIP3   OH227535   6.057   3.351   1.579 -0.1364 -0.2327  0.4817
 2015TIP3    H127536   6.130   3.397   1.537  1.2447 -2.0835  0.7957
 2015TIP3    H227537   6.010   3.311   1.506 -2.0969  2.6828  0.0918
 2016TIP3   OH227538   0.981   5.272   5.153  0.1161  0.1785  0.9590
 2016TIP3    H127539   0.994   5.305   5.064 -1.3525  0.7767  0.9562
 2016TIP3    H227540   0.982   5.177   5.143  2.1283  0.2255  0.6330
 2017TIP3   OH227541   2.329   2.793  17.050 -0.1284  0.4068  0.0668
 2017TIP3    H127542   2.321   2.728  17.119 -0.6362  0.0089 -0.3667
 2017TIP3    H227543   2.413   2.775  17.010 -0.7707 -0.7190 -0.7969
 2018TIP3   OH227544   4.885   5.764   0.598 -0.3978 -0.3429 -0.4623
 2018TIP3    H127545   4.819   5.694   0.603 -0.6396  0.0265  2.3358
 2018TIP3    H227546   4.968   5.718   0.601 -0.5475 -0.5096  2.8502
 2019TIP3   OH227547   2.739   5.707  14.252  0.0591  0.1268 -0.5915
 2019TIP3    H127548   2.762   5.792  14.290  0.0451 -0.6672  1.2563
 2019TIP3    H227549   2.739   5.722  14.157  1.1582  1.9023 -0.3362
 2020TIP3   OH227550   0.628   0.347   5.329 -0.4733 -0.4557  0.6561
 2020TIP3    H127551   0.552   0.365   5.385 -0.3686 -1.2520  1.0615
 2020TIP3    H227552   0.590   0.312   5.248 -0.6152  0.5449  0.2789
 2021TIP3   OH227553   6.670   2.072   2.036  0.1667 -0.2265 -0.5256
 2021TIP3    H127554   6.699   2.060   2.127 -0.2982 -2.3284 -0.6369
 2021TIP3    H227555   6.609   2.146   2.040 -1.0503 -1.2923  1.1477
 2022TIP3   OH227556   4.505   0.499  17.176 -0.3015  0.1742 -0.0114
 2022TIP3    H127557   4.449   0.514  17.252  0.4426  0.4222  0.4960
 2022TIP3    H227558   4.446   0.501  17.101 -1.0042  0.1766  0.5442
 2023TIP3   OH227559   1.444   2.300  15.048  0.1524 -0.1995  0.0484
 2023TIP3    H127560   1.348   2.300  15.044  0.1342  1.3938  0.2374
 2023TIP3    H227561   1.465   2.240  15.119 -0.7602  0.6215  1.0241
 2024TIP3   OH227562   2.576   3.152  13.282  0.3417 -0.8077 -0.8341
 2024TIP3    H127563   2.513   3.202  13.230  1.0882 -0.1461 -1.1145
 2024TIP3    H227564   2.527   3.124  13.359 -0.0872  0.3674 -0.6675
 2025TIP3   OH227565   5.771   3.800   2.281  0.3884  0.5021 -0.3352
 2025TIP3    H127566   5.705   3.755   2.334  1.3887  1.8971  2.1911
 2025TIP3    H227567   5.729   3.882   2.256  0.7893  0.9389  0.4117
 2026TIP3   OH227568   2.078   4.009   0.836 -0.3114  0.0570 -0.0324
 2026TIP3    H127569   1.999   3.983   0.790  0.3630  0.7547 -1.6360
 2026TIP3    H227570   2.101   3.933   0.889 -0.9062 -0.9078 -1.1334
 2027TIP3   OH227571   5.619   1.737  12.036  0.6136 -0.0417  0.1693
 2027TIP3    H127572   5.677   1.811  12.052  1.3928 -0.4212 -0.8519
 2027TIP3    H227573   5.656   1.694  11.958 -0.5475 -0.7714  0.0166
 2028TIP3   OH227574   4.216   5.340   0.557  0.2167  0.2604 -0.2627
 2028TIP3    H127575   4.128   5.339   0.595  0.1829  0.7659 -0.3130
 2028TIP3    H227576   4.255   5.257   0.583  0.1608  0.5631  0.8114
 2029TIP3   OH227577   2.609   1.628  13.991  0.1270 -0.1939 -0.0276
 2029TIP3    H127578   2.689   1.672  13.961 -0.1182 -0.4774 -1.1447
 2029TIP3    H227579   2.574   1.587  13.912 -2.0092  1.2705  0.1080
 2030TIP3   OH227580   0.173   2.272   4.644 -0.1106 -0.2213  0.2700
 2030TIP3    H127581   0.200   2.287   4.553 -0.9078 -1.5469 -0.1915
 2030TIP3    H227582   0.085   2.235   4.637 -0.5699  0.5872  1.6269
 2031TIP3   OH227583   4.879   1.141   6.075  0.3434 -0.0459  0.3574
 2031TIP3    H127584   4.877   1.150   6.170  0.5533 -0.8640  0.4402
 2031TIP3    H227585   4.969   1.116   6.054  0.5701  1.1537 -0.1562
 2032TIP3   OH227586   1.648   6.020  16.627  0.3216  0.2445  0.0667
 2032TIP3    H127587   1.596   6.082  16.678 -0.1431 -0.7305  0.7831
 2032TIP3    H227588   1.690   5.964  16.693  0.4166 -0.4588 -0.5901
 2033TIP3   OH227589   5.464   6.232   3.252  0.2522 -0.1971 -1.4348
 2033TIP3    H127590   5.446   6.318   3.292  1.2753 -0.7742  0.3387
 2033TIP3    H227591   5.559   6.232   3.237  0.4437 -1.4758 -0.3056
 2034TIP3   OH227592   0.329   1.688  15.658 -0.0573  0.0358  0.0229
 2034TIP3    H127593   0.365   1.770  15.625 -0.2677  1.4776  3.2279
 2034TIP3    H227594   0.236   1.707  15.674  0.4475  0.0156  3.2635
 2035TIP3   OH227595   5.005   0.954  12.762 -0.1797  0.3999  0.0402
 2035TIP3    H127596   5.075   0.923  12.705  0.2289 -0.0293  0.7534
 2035TIP3    H227597   5.047   0.965  12.847 -0.8554  0.6768  0.3449
 2036TIP3   OH227598   1.430   0.846  15.182 -0.3382 -0.1628 -0.0231
 2036TIP3    H127599   1.488   0.835  15.106  0.8420 -0.4157  0.9051
 2036TIP3    H227600   1.346   0.811  15.152  0.1135 -0.2581 -1.2233
 2037TIP3   OH227601   4.120   4.958   4.099 -0.7481  0.3636  0.1809
 2037TIP3    H127602   4.053   4.894   4.125 -1.2418  1.2498  1.1449
 2037TIP3    H227603   4.074   5.042   4.100  0.1885  0.8810  0.0808
 2038TIP3   OH227604   5.145   2.804  11.374 -0.0049 -0.1573 -0.1894
 2038TIP3    H127605   5.109   2.893  11.366  0.3808 -0.0024 -0.2307
 2038TIP3    H227606   5.180   2.786  11.287  0.3779 -0.1480 -0.0374
 2039TIP3   OH227607   3.105   6.467   6.614  0.4146 -0.2735  0.3949
 2039TIP3    H127608   3.121   6.548   6.566  0.8092 -0.4384  0.2434
 2039TIP3    H227609   3.033   6.425   6.567 -1.8447  1.4104  2.2293
 2040TIP3   OH227610   4.192   5.186   2.718 -0.1246 -0.0401 -0.7615
 2040TIP3    H127611   4.181   5.280   2.727  1.9569  0.0673  1.0003
 2040TIP3    H227612   4.228   5.174   2.630 -0.3957  0.8203 -0.9879
 2041TIP3   OH227613   5.149   3.666   4.123 -0.5270  0.6866 -0.4361
 2041TIP3    H127614   5.234   3.702   4.149 -0.1167  0.1001 -0.9296
 2041TIP3    H227615   5.172   3.589   4.070 -1.3653  0.7427 -0.8753
 2042TIP3   OH227616   1.262   3.281   2.665 -0.1280 -0.1074 -0.5053
 2042TIP3    H127617   1.179   3.328   2.662 -0.1402 -0.1562 -1.0529
 2042TIP3    H227618   1.247   3.202   2.614  0.2906 -0.0561 -0.7149
 2043TIP3   OH227619   0.938   0.859   2.500  0.2136  0.4120 -0.3853
 2043TIP3    H127620   0.902   0.770   2.502  1.8223 -0.2818 -0.7419
 2043TIP3    H227621   0.896   0.900   2.425  0.0199 -0.3156 -0.6836
 2044TIP3   OH227622   1.268   5.358   3.502  0.3758 -0.1829 -0.3178
 2044TIP3    H127623   1.263   5.446   3.539 -0.5343  0.6539 -2.3600
 2044TIP3    H227624   1.341   5.361   3.441  1.5475 -1.4037  1.0090
 2045TIP3   OH227625   4.557   0.677  14.852 -0.2038 -0.0723 -0.3459
 2045TIP3    H127626   4.562   0.610  14.921 -1.8834  0.6303  0.4681
 2045TIP3    H227627   4.475   0.658  14.807  0.2233  0.3248 -1.2908
 2046TIP3   OH227628   6.082   5.055  14.959  0.5231 -0.3802 -0.2459
 2046TIP3    H127629   6.109   5.007  14.880  0.2477  1.5106 -1.5117
 2046TIP3    H227630   6.069   5.145  14.929 -1.3724 -0.0155  1.5960
 2047TIP3   OH227631   2.827   6.338   1.794  0.2192  0.3824  0.2787
 2047TIP3    H127632   2.890   6.399   1.755  0.0874 -0.3329 -1.0893
 2047TIP3    H227633   2.805   6.377   1.879  0.7631  1.8060 -0.2195
 2048TIP3   OH227634   4.619   6.780  14.617 -0.6740  0.6695  0.1312
 2048TIP3    H127635   4.614   6.758  14.524 -1.9580 -2.3320  0.8690
 2048TIP3    H227636   4.713   6.780  14.636 -0.3899  1.4708 -1.1711
 2049TIP3   OH227637   5.384   4.581  16.674 -0.6038  0.2990  0.5771
 2049TIP3    H127638   5.342   4.602  16.757 -0.6288 -2.6187  1.3721
 2049TIP3    H227639   5.476   4.605  16.686 -0.1752 -1.9918  2.2431
 2050TIP3   OH227640   1.348   0.962  14.563  0.3675 -0.0093  0.0462
 2050TIP3    H127641   1.304   1.010  14.493  0.0919  0.0005  0.2257
 2050TIP3    H227642   1.285   0.962  14.635  0.0068 -1.4016 -0.2518
 2051TIP3   OH227643   4.861   6.182   0.407 -0.7044  0.1293  0.7639
 2051TIP3    H127644   4.895   6.224   0.327 -0.8128 -1.1212  0.0560
 2051TIP3    H227645   4.793   6.122   0.375 -0.5447 -0.5871  1.7703
 2052TIP3   OH227646   4.552   1.325   3.181  0.8275  1.2475  0.1564
 2052TIP3    H127647   4.640   1.340   3.216 -0.3400  2.1704  2.8312
 2052TIP3    H227648   4.521   1.247   3.227  0.7913 -0.0021 -1.9185
 2053TIP3   OH227649   4.619   1.378   1.683 -0.3119 -0.0990 -0.5018
 2053TIP3    H127650   4.603   1.392   1.590  0.1550 -1.2901 -0.7668
 2053TIP3    H227651   4.715   1.369   1.689 -0.5919 -3.2503 -0.3581
 2054TIP3   OH227652   4.985   6.448  14.477 -0.2109 -0.5037  0.6390
 2054TIP3    H127653   4.972   6.464  14.570  1.2345 -3.2581  1.3736
 2054TIP3    H227654   5.065   6.496  14.455 -0.6361  0.2699  0.7704
 2055TIP3   OH227655   0.440   3.432   2.148 -0.2578  0.4399 -0.0860
 2055TIP3    H127656   0.447   3.355   2.205 -0.0446  1.1787  0.9048
 2055TIP3    H227657   0.478   3.405   2.065  0.7378 -0.2073  0.5809
 2056TIP3   OH227658   5.955   0.460   0.522  0.9669 -0.0672  0.3366
 2056TIP3    H127659   6.024   0.403   0.556  0.6606  0.4208  1.8348
 2056TIP3    H227660   5.902   0.403   0.467  1.1759 -1.0224  1.1049
 2057TIP3   OH227661   6.181   2.586   4.803 -0.1525 -0.0590  0.2651
 2057TIP3    H127662   6.217   2.498   4.801  0.7273  0.3132 -1.7493
 2057TIP3    H227663   6.252   2.642   4.771 -1.0258  1.2703  0.5764
 2058TIP3   OH227664   6.507   6.813  13.286 -0.0958  0.2525 -0.1023
 2058TIP3    H127665   6.486   6.885  13.346  1.4314 -0.4185  1.3163
 2058TIP3    H227666   6.436   6.750  13.298  1.2350 -0.8256  2.6613
 2059TIP3   OH227667   4.135   3.620   1.364  0.2153 -0.4405 -0.3560
 2059TIP3    H127668   4.140   3.695   1.305  0.4166 -1.1528 -1.2473
 2059TIP3    H227669   4.072   3.561   1.323  1.0356 -1.3485 -0.3211
 2060TIP3   OH227670   6.425   0.318  16.664  0.0006  0.1150 -0.5632
 2060TIP3    H127671   6.363   0.246  16.682  0.0344 -0.4688 -2.5972
 2060TIP3    H227672   6.375   0.397  16.682 -1.2152 -0.3637 -1.7194
 2061TIP3   OH227673   1.696   2.584   1.444  0.8476 -0.0766 -0.3651
 2061TIP3    H127674   1.646   2.504   1.429  0.2722  0.0307  0.8507
 2061TIP3    H227675   1.780   2.553   1.478 -0.3191 -0.1565  2.7050
 2062TIP3   OH227676   2.012   2.473   4.296 -0.1569 -0.1082  0.4055
 2062TIP3    H127677   2.060   2.408   4.347  1.0273 -0.3423 -0.9605
 2062TIP3    H227678   2.027   2.556   4.342  0.6117 -0.3674  0.6218
 2063TIP3   OH227679   3.617   2.800  16.333 -0.1214  0.5221  0.5590
 2063TIP3    H127680   3.690   2.850  16.298 -0.0710  0.8921  1.1869
 2063TIP3    H227681   3.541   2.832  16.284  0.2513 -0.4272 -0.6383
 2064TIP3   OH227682   6.291   4.553   1.825  0.0704 -0.8469 -0.1594
 2064TIP3    H127683   6.339   4.555   1.908 -1.7411 -0.5232  0.9072
 2064TIP3    H227684   6.299   4.462   1.795  1.0655 -0.8698  0.1635
 2065TIP3   OH227685   6.257   2.094   1.893 -0.0506  0.1814  0.1382
 2065TIP3    H127686   6.340   2.082   1.847 -0.2919 -1.1206  0.0169
 2065TIP3    H227687   6.221   2.174   1.856  0.2930 -0.2392 -1.1574
 2066TIP3   OH227688   5.863   1.280   0.595 -0.4713 -0.1645 -0.2478
 2066TIP3    H127689   5.887   1.339   0.667 -1.8173  1.8292 -1.3720
 2066TIP3    H227690   5.772   1.257   0.612  0.2329 -2.4540  0.5136
 2067TIP3   OH227691   2.629   4.068   2.450 -0.5512 -0.2449 -0.0213
 2067TIP3    H127692   2.545   4.026   2.433 -1.2090  0.3020  1.7490
 2067TIP3    H227693   2.668   4.017   2.521  0.7045 -0.6121 -0.9620
 2068TIP3   OH227694   5.997   5.403  11.145 -0.1961  0.4700  0.2901
 2068TIP3    H127695   6.066   5.350  11.184  1.4002  2.8950  0.9321
 2068TIP3    H227696   6.024   5.412  11.053 -0.3277  0.3539  0.2415
 2069TIP3   OH227697   3.363   2.935  15.089 -0.0471  0.1620 -0.1158
 2069TIP3    H127698   3.348   3.018  15.045  1.9189  0.3330 -0.5340
 2069TIP3    H227699   3.315   2.871  15.038  1.4255  0.4986 -2.0000
 2070TIP3   OH227700   2.663   2.034   0.409  0.2270  0.3006  0.2139
 2070TIP3    H127701   2.715   2.013   0.487 -1.0795  0.4600  1.1473
 2070TIP3    H227702   2.647   2.128   0.415 -0.1156  0.2630 -0.0983
 2071TIP3   OH227703   4.467   4.221   5.784 -0.5513  0.0644  0.6883
 2071TIP3    H127704   4.474   4.172   5.866  0.5153 -0.2391  0.4103
 2071TIP3    H227705   4.391   4.183   5.740  0.8486 -2.0112  0.0122
 2072TIP3   OH227706   5.564   3.787  10.957 -0.0932  0.6827 -0.1084
 2072TIP3    H127707   5.626   3.738  10.903 -0.7629  1.1909 -1.3394
 2072TIP3    H227708   5.616   3.816  11.033  0.3946 -1.6183  0.4680
 2073TIP3   OH227709   1.159   1.380  14.710  0.0675  0.0527 -0.2020
 2073TIP3    H127710   1.168   1.389  14.804  0.3090  2.0250 -0.3898
 2073TIP3    H227711   1.245   1.352  14.679  0.0167 -0.4864  0.1505
 2074TIP3   OH227712   5.438   4.481   1.143  0.0316  0.4451  0.1426
 2074TIP3    H127713   5.508   4.425   1.178 -1.6129 -1.7258  0.0861
 2074TIP3    H227714   5.431   4.453   1.051 -1.5183 -0.0250  0.3953
 2075TIP3   OH227715   6.393   2.608   4.555 -0.3979 -0.1766 -0.3498
 2075TIP3    H127716   6.391   2.530   4.500  0.7570 -0.5777  0.1470
 2075TIP3    H227717   6.426   2.577   4.640  0.9001  0.9915 -0.3980
 2076TIP3   OH227718   0.548   4.939  11.535  0.0925  0.2000  0.1286
 2076TIP3    H127719   0.632   4.914  11.574  1.0712  1.1865 -1.2437
 2076TIP3    H227720   0.571   5.011  11.475 -1.7944  0.7062 -0.0077
 2077TIP3   OH227721   5.984   5.831   3.184 -0.1093  0.5341 -0.0441
 2077TIP3    H127722   6.026   5.749   3.209 -2.8575 -1.3428 -1.2607
 2077TIP3    H227723   5.989   5.832   3.088 -1.8937  0.7422 -0.1519
 2078TIP3   OH227724   2.451   3.511   3.718 -0.4760  0.8194 -0.4053
 2078TIP3    H127725   2.482   3.593   3.680 -2.1943  1.6927 -0.0070
 2078TIP3    H227726   2.468   3.520   3.812 -0.0051  0.4112 -0.4499
 2079TIP3   OH227727   4.267   3.615   0.433  0.5975  0.0841  0.4284
 2079TIP3    H127728   4.254   3.703   0.398 -0.5391 -0.7445 -1.3400
 2079TIP3    H227729   4.332   3.576   0.375  2.3391  0.2842  2.1981
 2080TIP3   OH227730   1.321   3.131  13.856 -0.9015  0.5378  0.2522
 2080TIP3    H127731   1.261   3.074  13.904 -2.5390  1.4731 -0.6705
 2080TIP3    H227732   1.380   3.166  13.924  0.5828 -2.7354  0.7422
 2081TIP3   OH227733   1.368   5.130  13.588 -0.3590 -0.2696  0.3761
 2081TIP3    H127734   1.407   5.217  13.589 -0.6186 -0.1141 -1.6862
 2081TIP3    H227735   1.385   5.097  13.500 -0.8810 -2.0282  0.9131
 2082TIP3   OH227736   4.684   0.137  15.222  0.3125 -0.2941  0.4228
 2082TIP3    H127737   4.697   0.161  15.130 -0.7694 -1.4421 -0.0359
 2082TIP3    H227738   4.695   0.042  15.224  1.0338 -0.2033  1.6208
 2083TIP3   OH227739   6.596   1.688  15.448 -0.2190 -0.3525  0.9111
 2083TIP3    H127740   6.618   1.605  15.405  0.8219  1.3480 -1.9388
 2083TIP3    H227741   6.528   1.727  15.393 -0.2350  1.0023  1.8675
 2084TIP3   OH227742   6.717   3.091  14.494 -0.0657 -0.1817  0.0905
 2084TIP3    H127743   6.806   3.056  14.503  0.6904  1.0137 -2.3121
 2084TIP3    H227744   6.714   3.164  14.556  2.2248  2.6638 -2.9881
 2085TIP3   OH227745   5.679   2.125   2.369  0.3675  0.1953 -0.0730
 2085TIP3    H127746   5.693   2.069   2.292  1.6251 -0.9652  0.9754
 2085TIP3    H227747   5.585   2.118   2.387  0.3335 -0.7633 -0.5749
 2086TIP3   OH227748   1.675   4.429   2.355  0.8577 -0.2756  0.3382
 2086TIP3    H127749   1.659   4.334   2.354  0.3814 -0.2016 -0.8395
 2086TIP3    H227750   1.723   4.445   2.435  0.9412 -1.5271  0.5454
 2087TIP3   OH227751   5.521   0.240  14.184  0.1848  0.1723  0.3628
 2087TIP3    H127752   5.498   0.266  14.273  1.5375  0.9413  0.5162
 2087TIP3    H227753   5.531   0.145  14.189 -1.6309 -0.0206  0.5700
 2088TIP3   OH227754   0.536   0.864   5.064 -0.3007  0.0551  0.4429
 2088TIP3    H127755   0.530   0.926   5.136  1.0267 -0.7464  1.2785
 2088TIP3    H227756   0.471   0.797   5.084 -1.5454  1.0166 -0.3212
 2089TIP3   OH227757   4.688   4.913  15.828  0.1493  0.7701 -0.7121
 2089TIP3    H127758   4.776   4.935  15.798  0.3489  0.6350 -0.2355
 2089TIP3    H227759   4.631   4.932  15.754  0.2782  3.0510 -0.2564
 2090TIP3   OH227760   6.742   1.283   6.096 -0.5370  0.0669  0.7914
 2090TIP3    H127761   6.649   1.294   6.118 -0.4965 -0.5086  1.2682
 2090TIP3    H227762   6.755   1.188   6.094  0.2968  0.1530  1.8203
 2091TIP3   OH227763   6.555   0.126   0.837  0.0078 -0.0826  0.3839
 2091TIP3    H127764   6.542   0.219   0.818  0.2406  0.0502  0.8629
 2091TIP3    H227765   6.480   0.082   0.798  1.4988 -0.0460 -2.6666
 2092TIP3   OH227766   1.477   3.665  17.057 -0.1685 -0.1098 -0.3645
 2092TIP3    H127767   1.542   3.651  17.126  0.6468  0.7091 -0.9517
 2092TIP3    H227768   1.426   3.740  17.087  0.8907  0.9396 -1.1504
 2093TIP3   OH227769   0.331   2.467   3.216 -0.1247  0.4294  0.3072
 2093TIP3    H127770   0.266   2.537   3.212 -0.8701 -0.2501  0.4036
 2093TIP3    H227771   0.351   2.448   3.124  0.3071  0.9747  0.2867
 2094TIP3   OH227772   3.898   0.131  16.894  0.2810  0.0322 -0.0545
 2094TIP3    H127773   3.850   0.101  16.816  1.0943 -1.6395  0.0692
 2094TIP3    H227774   3.986   0.094  16.883  0.3575 -0.3444  1.7419
 2095TIP3   OH227775   4.613   1.173   2.820 -0.6455 -0.6534 -0.1595
 2095TIP3    H127776   4.682   1.131   2.768 -0.7414 -1.3574  0.2745
 2095TIP3    H227777   4.579   1.243   2.764 -0.4072 -1.0903 -0.8471
 2096TIP3   OH227778   4.907   1.987  13.638  0.4433  0.1751  0.3292
 2096TIP3    H127779   4.960   1.925  13.688  0.3095  0.6954  1.1200
 2096TIP3    H227780   4.970   2.038  13.588  0.4829 -1.5501 -1.4478
 2097TIP3   OH227781   5.423   5.860  13.333 -0.1495 -0.3001  0.3647
 2097TIP3    H127782   5.456   5.948  13.348 -1.1166  0.2381 -0.6163
 2097TIP3    H227783   5.332   5.872  13.305 -0.3029 -1.5988  0.2472
 2098TIP3   OH227784   4.325   0.124  15.272 -0.4084  0.7775 -0.5082
 2098TIP3    H127785   4.342   0.215  15.249  1.4244  1.2280  2.4385
 2098TIP3    H227786   4.235   0.108  15.243 -1.2875  3.9641  0.3205
 2099TIP3   OH227787   3.919   4.344  14.269 -0.5606 -0.1763 -0.6220
 2099TIP3    H127788   3.825   4.326  14.275 -1.0472  1.3093 -2.9497
 2099TIP3    H227789   3.961   4.262  14.295 -2.4481 -0.3679  2.0136
 2100TIP3   OH227790   5.296   0.316  16.775 -0.2224 -0.8964  0.0983
 2100TIP3    H127791   5.231   0.372  16.817  0.3716  0.6505 -0.9737
 2100TIP3    H227792   5.260   0.228  16.781 -1.9187 -0.1945  0.4541
 2101TIP3   OH227793   2.297   5.913  10.801  0.3077  0.0129 -0.2002
 2101TIP3    H127794   2.311   5.887  10.710  0.0885  0.8060 -0.4645
 2101TIP3    H227795   2.323   6.006  10.804  0.3647 -0.0201  0.5537
 2102TIP3   OH227796   6.677   4.568   4.266  0.1027  0.6893  0.2567
 2102TIP3    H127797   6.609   4.633   4.251  1.4925  2.3711  1.1187
 2102TIP3    H227798   6.748   4.593   4.208  0.7034  0.0271  0.6912
 2103TIP3   OH227799   1.719   1.423   2.072  0.1745 -0.0749  0.2339
 2103TIP3    H127800   1.659   1.411   2.146 -1.2781  0.6146 -0.8005
 2103TIP3    H227801   1.801   1.383   2.101 -0.9144 -1.4566  1.5009
 2104TIP3   OH227802   6.707   5.865   3.740 -0.8337 -0.1060 -0.2362
 2104TIP3    H127803   6.708   5.840   3.832 -0.7464  2.7094  0.5986
 2104TIP3    H227804   6.777   5.931   3.733 -0.0237 -1.1721 -2.5875
 2105TIP3   OH227805   1.632   5.905  14.799  0.4507 -0.1704  0.3286
 2105TIP3    H127806   1.621   5.936  14.709 -2.2700 -1.9702 -0.0304
 2105TIP3    H227807   1.703   5.841  14.794  1.6079  1.1243 -0.1464
 2106TIP3   OH227808   0.279   1.178  15.128 -0.0638  0.1604  0.2841
 2106TIP3    H127809   0.303   1.192  15.037 -2.0253  3.5857  0.1947
 2106TIP3    H227810   0.191   1.141  15.125  1.7528 -4.5617  0.7808
 2107TIP3   OH227811   3.432   1.838  14.158  0.5969  0.0516 -0.7219
 2107TIP3    H127812   3.387   1.918  14.130 -0.4930  0.0481  0.9574
 2107TIP3    H227813   3.364   1.771  14.158  0.4698  0.0964  2.0936
 2108TIP3   OH227814   1.499   3.876   1.071 -0.2850 -0.1633 -0.7030
 2108TIP3    H127815   1.560   3.814   1.030  1.0082  0.1979  0.6065
 2108TIP3    H227816   1.540   3.962   1.058 -1.0130  0.1899 -0.6827
 2109TIP3   OH227817   1.719   6.730  12.005 -0.5070 -0.0854  0.0242
 2109TIP3    H127818   1.717   6.640  11.974  3.2490  0.6356 -2.5833
 2109TIP3    H227819   1.658   6.777  11.948  0.0804 -0.3463 -0.8160
 2110TIP3   OH227820   6.547   6.750   5.589  0.9312  0.0044 -0.0990
 2110TIP3    H127821   6.465   6.745   5.639  0.6777 -2.4362 -0.6859
 2110TIP3    H227822   6.565   6.844   5.582 -1.9449  0.6021 -0.1964
 2111TIP3   OH227823   2.930   5.521  16.126 -0.1096  0.0068  0.5016
 2111TIP3    H127824   2.970   5.546  16.209  1.6203 -0.4820 -0.1656
 2111TIP3    H227825   2.865   5.455  16.149  0.2112  0.0300  1.4875
 2112TIP3   OH227826   2.825   2.733  11.763 -0.2604  0.3969  0.1283
 2112TIP3    H127827   2.819   2.668  11.833 -1.2355  1.3470  0.9397
 2112TIP3    H227828   2.879   2.691  11.696 -1.9993 -1.7784  0.0428
 2113TIP3   OH227829   3.298   4.689  13.517  0.2195  0.6697  0.5581
 2113TIP3    H127830   3.287   4.696  13.422  2.2133  0.4327  0.2797
 2113TIP3    H227831   3.334   4.774  13.543  1.7357 -0.0149  0.7580
 2114TIP3   OH227832   5.481   0.185  11.831  0.0454  0.2107  0.2201
 2114TIP3    H127833   5.514   0.124  11.765 -0.5595 -0.5244  0.5857
 2114TIP3    H227834   5.402   0.222  11.792  0.3490  0.6895  0.0443
 2115TIP3   OH227835   6.313   2.332   2.836  0.2534  0.5114  0.4151
 2115TIP3    H127836   6.379   2.269   2.808  0.1128  1.6679 -2.8459
 2115TIP3    H227837   6.363   2.408   2.866  0.4850  1.1661 -1.5162
 2116TIP3   OH227838   2.375   1.584  11.075  0.3653 -0.2643  0.5276
 2116TIP3    H127839   2.421   1.517  11.024 -0.0909 -0.3244  0.1917
 2116TIP3    H227840   2.310   1.535  11.126  0.2654 -0.1176  0.5424
 2117TIP3   OH227841   5.396   3.339  17.103 -0.4250  0.1186  0.5607
 2117TIP3    H127842   5.401   3.247  17.075 -0.4154  0.3525 -0.2158
 2117TIP3    H227843   5.461   3.384  17.050  0.9235  0.2532  2.2823
 2118TIP3   OH227844   4.131   0.324  11.354 -0.2601  0.6955 -0.4386
 2118TIP3    H127845   4.036   0.339  11.357  0.0439  2.5832  0.1381
 2118TIP3    H227846   4.142   0.236  11.389 -1.6543  1.1479  1.2111
 2119TIP3   OH227847   5.937   3.327  16.994 -0.1070  0.2842 -0.8139
 2119TIP3    H127848   5.868   3.262  16.984 -0.8072  1.1829 -2.0430
 2119TIP3    H227849   5.943   3.341  17.089 -1.4843  0.0358 -0.6725
 2120TIP3   OH227850   0.322   3.377   1.324  0.0987  0.0076 -0.1541
 2120TIP3    H127851   0.296   3.328   1.402 -0.7763 -0.9632 -1.0354
 2120TIP3    H227852   0.323   3.468   1.352 -1.7842 -0.1760  0.5779
 2121TIP3   OH227853   0.110   3.780   5.793 -0.5719 -0.0728 -0.1427
 2121TIP3    H127854   0.187   3.751   5.743 -0.6945  0.2532 -0.5239
 2121TIP3    H227855   0.096   3.871   5.765 -1.5090 -0.3468 -0.5848
 2122TIP3   OH227856   4.824   1.180  12.603  0.6189 -0.1723  0.5367
 2122TIP3    H127857   4.859   1.150  12.687 -0.0135  2.0839  1.6451
 2122TIP3    H227858   4.902   1.208  12.554  0.8614 -0.2317  0.8838
 2123TIP3   OH227859   4.069   2.537   5.508 -0.6556 -0.3926  1.2671
 2123TIP3    H127860   4.024   2.601   5.564  0.2799  0.5135  0.9972
 2123TIP3    H227861   4.131   2.494   5.566  1.3643  1.5745  0.6543
 2124TIP3   OH227862   3.828   1.686   2.439  0.1835  0.3498  0.1505
 2124TIP3    H127863   3.871   1.770   2.459  0.3163  0.5561 -0.9562
 2124TIP3    H227864   3.839   1.634   2.518  0.6176  1.1682  0.6399
 2125TIP3   OH227865   2.810   1.588  12.059  0.4972  0.4986  0.1632
 2125TIP3    H127866   2.871   1.655  12.029  1.3445 -0.5600 -0.5580
 2125TIP3    H227867   2.725   1.632  12.061  1.0697  1.6407 -0.0910
 2126TIP3   OH227868   6.411   2.466  15.013  0.2504  0.1282  0.0886
 2126TIP3    H127869   6.407   2.556  15.044  0.3881 -0.2167  1.1096
 2126TIP3    H227870   6.329   2.454  14.965 -0.3683  0.3947  1.0576
 2127TIP3   OH227871   2.073   2.875   3.289 -0.0436  0.0169 -0.4033
 2127TIP3    H127872   2.156   2.895   3.332  0.3164  1.5743 -1.7415
 2127TIP3    H227873   2.094   2.879   3.195 -1.4964 -0.1561 -0.7437
 2128TIP3   OH227874   1.735   5.625  14.718 -0.2314  0.1907 -0.2844
 2128TIP3    H127875   1.803   5.557  14.725 -1.0809 -0.5604  0.7168
 2128TIP3    H227876   1.753   5.668  14.634 -0.3246 -1.9600 -1.4307
 2129TIP3   OH227877   3.394   6.182   3.523 -0.3146  0.3229 -0.2469
 2129TIP3    H127878   3.392   6.222   3.610  0.2728  2.2877 -1.1250
 2129TIP3    H227879   3.394   6.088   3.541  0.5187  0.6888  1.9089
 2130TIP3   OH227880   6.119   5.686  14.008  0.3631 -0.2961 -0.4986
 2130TIP3    H127881   6.067   5.608  14.031  0.9826  0.0458  2.2089
 2130TIP3    H227882   6.148   5.721  14.092 -0.1165  3.0549 -1.6455
 2131TIP3   OH227883   5.701   6.748  10.921  0.3317 -0.4539 -0.3126
 2131TIP3    H127884   5.648   6.827  10.906 -0.9073 -0.6568  2.6369
 2131TIP3    H227885   5.786   6.768  10.882  0.4718  2.8996  1.5323
 2132TIP3   OH227886   3.392   3.696  10.796 -0.0353  0.1289  0.2797
 2132TIP3    H127887   3.399   3.647  10.878 -0.5577  0.3675  0.4664
 2132TIP3    H227888   3.467   3.666  10.744 -2.0882 -3.2537 -0.8860
 2133TIP3   OH227889   6.356   2.245   2.550 -0.7736 -0.1902  0.2017
 2133TIP3    H127890   6.380   2.337   2.538 -0.5752 -0.3088 -0.3110
 2133TIP3    H227891   6.272   2.248   2.596 -1.5519  0.2777 -1.2046
 2134TIP3   OH227892   4.875   2.246  12.473 -0.4454  0.3146 -0.0301
 2134TIP3    H127893   4.940   2.187  12.512 -0.2746  0.4485 -0.1131
 2134TIP3    H227894   4.822   2.190  12.417 -0.0807  0.2990 -0.3621
 2135TIP3   OH227895   5.469   4.947   5.702 -0.0310 -0.4450 -0.1690
 2135TIP3    H127896   5.525   4.873   5.676 -0.9501 -1.8738  1.7828
 2135TIP3    H227897   5.382   4.908   5.709 -0.4625  0.7510  1.2370
 2136TIP3   OH227898   3.233   5.042   2.177  0.0292 -0.3637 -0.4724
 2136TIP3    H127899   3.181   4.977   2.132  0.8252 -2.2093  1.1943
 2136TIP3    H227900   3.257   5.001   2.260  0.4428  2.0978  0.6806
 2137TIP3   OH227901   1.114   3.695   4.373 -0.0519  0.0001 -0.8833
 2137TIP3    H127902   1.074   3.778   4.346 -1.8434 -0.3157  0.6535
 2137TIP3    H227903   1.202   3.718   4.402  0.0713  1.0965 -2.0964
 2138TIP3   OH227904   4.784   2.958  13.945 -0.8723 -0.0320 -0.3080
 2138TIP3    H127905   4.861   2.914  13.910 -0.9193  1.8851 -2.9858
 2138TIP3    H227906   4.769   2.917  14.030  1.0702 -2.7662 -1.2254
 2139TIP3   OH227907   1.052   4.259  12.694  0.2773  0.8795 -0.1934
 2139TIP3    H127908   0.963   4.294  12.693  0.6111  1.7502  0.9802
 2139TIP3    H227909   1.097   4.305  12.765  1.2345 -0.6346  0.2214
 2140TIP3   OH227910   1.801   4.587  14.001  0.4736 -0.0197 -0.0799
 2140TIP3    H127911   1.819   4.563  14.092  0.1240  1.1617  0.3128
 2140TIP3    H227912   1.847   4.521  13.949  1.3158 -0.2550  0.9471
 2141TIP3   OH227913   6.757   5.713   2.776 -1.0169 -0.1278 -0.3315
 2141TIP3    H127914   6.804   5.778   2.723  0.3272 -1.0218 -0.2517
 2141TIP3    H227915   6.718   5.764   2.847  0.2003  0.5581 -0.1535
 2142TIP3   OH227916   3.127   4.487  15.289  0.2045 -0.4033  0.2181
 2142TIP3    H127917   3.143   4.498  15.195  1.9797 -0.6221  0.4768
 2142TIP3    H227918   3.209   4.514  15.330  0.1353 -2.2022  1.5957
 2143TIP3   OH227919   2.719   6.393   5.377  0.4537 -0.6467  0.4304
 2143TIP3    H127920   2.777   6.355   5.311  0.3896 -0.7189  0.4160
 2143TIP3    H227921   2.776   6.453   5.427  0.6561 -1.0976  0.7403
 2144TIP3   OH227922   1.498   2.361  15.748  0.5364 -0.6997  0.1150
 2144TIP3    H127923   1.522   2.453  15.738  2.4334 -1.2398 -0.5973
 2144TIP3    H227924   1.474   2.333  15.660 -0.9724 -0.6578  0.5003
 2145TIP3   OH227925   0.592   4.077  14.728 -0.2196  0.3206 -0.1912
 2145TIP3    H127926   0.551   4.085  14.814  0.3234 -0.2463  0.1292
 2145TIP3    H227927   0.654   4.005  14.738 -0.3832  0.0379 -1.1483
 2146TIP3   OH227928   1.277   2.401  14.188 -0.2058 -0.5004 -0.1721
 2146TIP3    H127929   1.216   2.337  14.225  1.7407 -0.5454  3.1069
 2146TIP3    H227930   1.363   2.368  14.212  0.8655  2.8174  0.7443
 2147TIP3   OH227931   2.997   4.826  11.124 -0.2863 -0.1901  0.7037
 2147TIP3    H127932   2.932   4.896  11.128  1.1680  1.1511  1.4201
 2147TIP3    H227933   3.079   4.868  11.151  0.6765 -2.0891  0.8063
 2148TIP3   OH227934   5.380   3.076  12.623 -0.0893  0.5447 -0.6080
 2148TIP3    H127935   5.342   3.072  12.711 -0.6564  0.0766 -0.8751
 2148TIP3    H227936   5.450   3.011  12.624 -0.4230  0.1892 -0.6663
 2149TIP3   OH227937   2.056   5.755  12.631 -0.8988 -0.2868  0.3259
 2149TIP3    H127938   2.127   5.691  12.635 -0.3799  0.3399  1.2731
 2149TIP3    H227939   2.093   5.835  12.667 -1.8657  0.2573  0.1418
 2150TIP3   OH227940   0.548   4.360   2.572 -0.7753  0.2743 -0.4318
 2150TIP3    H127941   0.463   4.388   2.605 -0.9093 -0.4858 -0.1251
 2150TIP3    H227942   0.545   4.380   2.479 -1.2873  0.2574 -0.4205
 2151TIP3   OH227943   4.684   2.737  13.413  0.1445 -0.1652 -0.4749
 2151TIP3    H127944   4.737   2.717  13.490 -0.3328 -2.5295 -0.7342
 2151TIP3    H227945   4.741   2.721  13.339 -0.5544 -1.6139 -0.7187
 2152TIP3   OH227946   3.050   1.191  17.166  0.0184  0.6563  0.2101
 2152TIP3    H127947   3.086   1.124  17.224 -1.0036 -0.9908 -0.9969
 2152TIP3    H227948   3.028   1.264  17.224 -2.2762 -1.4592  2.1486
 2153TIP3   OH227949   2.838   2.245   6.391 -0.3032  0.1309 -0.2271
 2153TIP3    H127950   2.765   2.220   6.334 -0.1990  1.9651 -1.1979
 2153TIP3    H227951   2.915   2.205   6.351 -0.5392 -0.4060 -0.1456
 2154TIP3   OH227952   3.937   4.033   4.093 -0.1126 -0.1070  0.0429
 2154TIP3    H127953   3.969   3.962   4.148 -1.8793 -0.2208  0.9661
 2154TIP3    H227954   3.862   3.996   4.047 -0.3808  0.8432 -0.2938
 2155TIP3   OH227955   2.132   4.748   6.306 -0.0089  0.1564 -0.1860
 2155TIP3    H127956   2.139   4.683   6.376 -0.5135  2.1238  1.7620
 2155TIP3    H227957   2.205   4.729   6.247  0.5460 -1.4099  0.9880
 2156TIP3   OH227958   6.740   2.048  13.126  0.1373  0.0122 -0.4147
 2156TIP3    H127959   6.718   2.125  13.179  0.2611  0.4090 -0.9415
 2156TIP3    H227960   6.671   2.045  13.059 -0.6327 -1.1111  0.4110
 2157TIP3   OH227961   0.436   5.944   2.523 -0.2728 -0.6428  0.0347
 2157TIP3    H127962   0.432   5.876   2.590  0.0075 -0.6367  0.0559
 2157TIP3    H227963   0.349   5.984   2.524  0.6335  1.4194  2.5141
 2158TIP3   OH227964   3.344   4.014   1.448  0.7267  0.6360  0.2804
 2158TIP3    H127965   3.420   4.068   1.468 -0.3645  2.3334 -0.0456
 2158TIP3    H227966   3.343   4.009   1.352  0.0592  1.1934  0.2500
 2159TIP3   OH227967   5.196   2.040   4.578 -0.2203 -0.6909 -0.4468
 2159TIP3    H127968   5.118   2.000   4.539  0.7073 -3.3614  0.3112
 2159TIP3    H227969   5.266   2.020   4.517  0.6344 -2.1056  0.9291
 2160TIP3   OH227970   5.826   2.218  12.065  0.1872 -0.0257 -0.3139
 2160TIP3    H127971   5.787   2.255  12.144  1.0220  0.7343 -0.2576
 2160TIP3    H227972   5.792   2.273  11.994  0.1697 -0.1392 -0.3937
 2161TIP3   OH227973   2.893   2.602   3.394 -0.6521 -0.3242  0.2834
 2161TIP3    H127974   2.968   2.592   3.335 -0.8173  1.6621 -0.3121
 2161TIP3    H227975   2.825   2.641   3.339 -1.9304 -1.5773  0.9670
 2162TIP3   OH227976   4.329   6.424  14.803  0.0869 -0.0908 -0.2212
 2162TIP3    H127977   4.266   6.478  14.756 -0.4995  1.5084  2.2655
 2162TIP3    H227978   4.404   6.418  14.744 -1.7973 -0.8218 -2.6242
 2163TIP3   OH227979   2.584   1.630  11.270 -0.3940  0.1926 -0.1129
 2163TIP3    H127980   2.546   1.589  11.192  0.1803  0.2642 -0.4363
 2163TIP3    H227981   2.509   1.655  11.323 -0.8173  1.0305 -1.0965
 2164TIP3   OH227982   3.396   0.424   2.610  0.5001 -0.3220  0.6289
 2164TIP3    H127983   3.484   0.456   2.631 -0.3740  1.6133  1.4483
 2164TIP3    H227984   3.385   0.445   2.517  0.1458  1.3744  1.0222
 2165TIP3   OH227985   5.821   4.360   0.924 -0.2865 -0.2088  0.3446
 2165TIP3    H127986   5.744   4.342   0.978  0.2732  1.0810  1.6032
 2165TIP3    H227987   5.879   4.286   0.940 -1.4312 -1.3779 -0.9113
 2166TIP3   OH227988   2.545   2.145  16.063  0.5054  0.0802 -0.3370
 2166TIP3    H127989   2.497   2.146  15.980 -0.5786 -0.7742  0.2655
 2166TIP3    H227990   2.538   2.055  16.093  1.2518  0.2940  0.4933
 2167TIP3   OH227991   3.344   2.517  12.693  0.3501 -0.6282  0.0371
 2167TIP3    H127992   3.252   2.499  12.677  0.3327 -1.6062  1.1335
 2167TIP3    H227993   3.345   2.602  12.737  0.0345 -0.2526 -0.6807
 2168TIP3   OH227994   2.491   1.052   6.669  0.7968  0.3150 -0.3890
 2168TIP3    H127995   2.566   0.992   6.669 -0.4630 -1.3067 -1.4983
 2168TIP3    H227996   2.528   1.137   6.649  2.3502 -0.4888 -1.0077
 2169TIP3   OH227997   4.716   5.338   1.483 -0.1393 -0.3018  0.3130
 2169TIP3    H127998   4.623   5.349   1.505 -0.2657 -1.3330  0.2807
 2169TIP3    H227999   4.722   5.251   1.444  0.8732 -0.3020  0.4575
 2170TIP3   OH228000   2.904   3.959  13.446 -0.2644  0.2636  0.3278
 2170TIP3    H128001   2.878   3.869  13.425 -0.5245  0.8165 -1.7948
 2170TIP3    H228002   2.861   4.012  13.379 -0.2113  1.9848  1.6504
 2171TIP3   OH228003   5.250   3.976  16.920  0.0452 -0.5579  0.3934
 2171TIP3    H128004   5.170   3.938  16.883  0.4007 -1.3127  0.3906
 2171TIP3    H228005   5.232   4.070  16.925  0.0806 -0.4233 -1.8638
 2172TIP3   OH228006   3.428   4.240   3.749  1.0246 -0.1066 -0.6823
 2172TIP3    H128007   3.481   4.317   3.726 -0.2556  0.5943 -1.3277
 2172TIP3    H228008   3.391   4.211   3.666 -1.4900  0.8461  0.0571
 2173TIP3   OH228009   4.102   2.171  11.475  0.0475  0.1020  0.1472
 2173TIP3    H128010   4.174   2.127  11.520 -0.4553 -0.7379  0.1446
 2173TIP3    H228011   4.023   2.140  11.520 -0.4461 -0.5583 -1.1495
 2174TIP3   OH228012   5.967   5.773  13.197  0.0892  0.6056  0.6598
 2174TIP3    H128013   6.013   5.717  13.260 -0.7701  3.3378  3.8786
 2174TIP3    H228014   5.878   5.739  13.195  0.0317  0.7236  1.2013
 2175TIP3   OH228015   1.752   4.120   1.972 -0.1883 -0.3105 -0.7973
 2175TIP3    H128016   1.684   4.056   1.992 -0.2921  0.2218  0.6662
 2175TIP3    H228017   1.705   4.194   1.934 -0.4126 -0.0321  0.0099
 2176TIP3   OH228018   6.153   2.605  12.160 -0.2510  0.3164  0.1887
 2176TIP3    H128019   6.167   2.517  12.125 -0.4391  0.4473 -0.2127
 2176TIP3    H228020   6.224   2.617  12.223 -1.7739 -1.1706  2.2346
 2177TIP3   OH228021   6.710   0.161  13.651 -0.0542 -0.2186  0.1358
 2177TIP3    H128022   6.695   0.068  13.665 -0.4884  0.0806  1.6536
 2177TIP3    H228023   6.631   0.204  13.683  1.1575  0.8445  1.7967
 2178TIP3   OH228024   5.289   4.033  17.197 -0.0215 -0.1240  0.1529
 2178TIP3    H128025   5.329   3.958  17.242  0.8556  0.2036 -0.0728
 2178TIP3    H228026   5.284   4.005  17.105  1.1808  0.4495 -0.0936
 2179TIP3   OH228027   1.260   0.731  16.504 -0.3209 -0.6363 -0.4590
 2179TIP3    H128028   1.345   0.733  16.547 -0.2317  1.6718 -0.7172
 2179TIP3    H228029   1.198   0.707  16.573  0.2735 -0.3367  0.1811
 2180TIP3   OH228030   1.256   5.331  10.918 -0.1903 -0.2707  0.3209
 2180TIP3    H128031   1.228   5.328  11.010 -0.6876  0.1593  0.1899
 2180TIP3    H228032   1.208   5.260  10.876  0.9272 -1.2170  0.6248
 2181TIP3   OH228033   1.087   4.905  14.469  0.1975  0.7633  0.4801
 2181TIP3    H128034   1.055   4.977  14.415  1.2844  0.6063 -0.4059
 2181TIP3    H228035   1.116   4.839  14.406  0.0968 -0.0505  1.2776
 2182TIP3   OH228036   3.570   2.053   5.141  0.0457  0.1596  0.4587
 2182TIP3    H128037   3.476   2.063   5.154  0.0012 -0.2347  0.4542
 2182TIP3    H228038   3.595   1.985   5.203  0.5180  1.0181  1.2322
 2183TIP3   OH228039   6.418   2.193  11.203  0.0481  0.3274 -0.2176
 2183TIP3    H128040   6.350   2.138  11.242  2.2166 -3.2074 -1.1974
 2183TIP3    H228041   6.474   2.217  11.276  1.2989 -2.1364 -0.3165
 2184TIP3   OH228042   3.724   2.681   5.027 -0.4897 -0.1676  0.0156
 2184TIP3    H128043   3.654   2.640   4.975 -0.8678  1.0279 -0.4376
 2184TIP3    H228044   3.689   2.767   5.051 -0.8785 -1.2304  3.4751
 2185TIP3   OH228045   3.860   4.030   5.089 -0.3931 -0.2745  0.0413
 2185TIP3    H128046   3.876   4.026   5.183 -0.5561  0.5524  0.1004
 2185TIP3    H228047   3.939   4.069   5.053 -1.5585  2.2685  0.1588
 2186TIP3   OH228048   3.508   6.189  15.617 -0.3772  0.0319  0.1585
 2186TIP3    H128049   3.530   6.098  15.637 -3.0739 -0.4243  1.3497
 2186TIP3    H228050   3.470   6.187  15.530 -1.1431 -0.1051  0.4950
 2187TIP3   OH228051   4.491   1.954   2.016 -0.0512  0.2870 -0.0463
 2187TIP3    H128052   4.425   1.887   2.031  1.1810 -0.7660  0.7813
 2187TIP3    H228053   4.509   1.990   2.103  0.9596  0.0929 -0.1735
 2188TIP3   OH228054   2.688   0.172   0.490  0.1535  0.2004  0.4957
 2188TIP3    H128055   2.706   0.247   0.433  3.0915  0.0957  1.2473
 2188TIP3    H228056   2.611   0.131   0.450 -0.2235  2.3812 -1.1361
 2189TIP3   OH228057   6.125   5.878   1.907 -0.4199 -0.3900 -0.0003
 2189TIP3    H128058   6.129   5.911   1.997  0.3707 -0.0257 -0.1637
 2189TIP3    H228059   6.124   5.783   1.916  1.7190 -0.3987  0.3306
 2190TIP3   OH228060   5.389   0.301   2.160 -0.1199 -0.2233 -0.5080
 2190TIP3    H128061   5.393   0.232   2.094  2.0859  2.3867 -3.2933
 2190TIP3    H228062   5.474   0.297   2.204  0.2235  0.9327 -1.0235
 2191TIP3   OH228063   0.600   6.243   5.911  0.1135 -0.8081 -0.0639
 2191TIP3    H128064   0.560   6.192   5.982 -2.3048  0.2550 -0.6243
 2191TIP3    H228065   0.676   6.285   5.953  0.2847 -2.3106  1.1985
 2192TIP3   OH228066   1.467   5.165  12.798 -0.2265 -0.3608  0.4150
 2192TIP3    H128067   1.431   5.253  12.799  1.2529  0.3571 -2.6997
 2192TIP3    H228068   1.535   5.167  12.730 -0.8314 -4.1335 -0.4369
 2193TIP3   OH228069   0.594   4.192  11.014 -0.0440  0.2360  0.2847
 2193TIP3    H128070   0.597   4.204  11.109  0.8720 -2.1936  0.5827
 2193TIP3    H228071   0.672   4.140  10.994 -0.6287  0.1046 -1.7120
 2194TIP3   OH228072   5.945   2.521   2.166 -0.1702  0.0227 -0.5077
 2194TIP3    H128073   5.992   2.481   2.239 -0.6047 -0.2201 -0.3626
 2194TIP3    H228074   5.927   2.611   2.194 -0.6866 -0.1890 -0.1588
 2195TIP3   OH228075   2.317   4.056  16.561  0.2466 -0.0648  0.4871
 2195TIP3    H128076   2.397   4.029  16.606  1.2097  1.4640 -0.2712
 2195TIP3    H228077   2.275   4.118  16.622 -0.6834 -1.3076  1.1370
 2196TIP3   OH228078   5.111   5.407   3.433  0.0773  0.5889 -0.3477
 2196TIP3    H128079   5.101   5.426   3.526 -1.1791  0.6375 -0.4905
 2196TIP3    H228080   5.192   5.355   3.428 -0.0404  0.2800  0.8108
 2197TIP3   OH228081   0.448   1.214  11.126 -0.2801 -0.2032  0.1937
 2197TIP3    H128082   0.411   1.221  11.038 -2.4042  0.3552  1.0904
 2197TIP3    H228083   0.427   1.298  11.167 -0.9565 -1.1453  1.8293
 2198TIP3   OH228084   2.852   6.447  17.192  0.0340 -0.8549 -0.3451
 2198TIP3    H128085   2.941   6.472  17.215 -0.9654 -0.1026  3.0710
 2198TIP3    H228086   2.847   6.353  17.212 -0.1678 -0.7126  0.2833
 2199TIP3   OH228087   0.348   1.227  14.004  0.2358  0.0772 -0.0931
 2199TIP3    H128088   0.344   1.157  13.939  0.1157  1.2962 -1.4285
 2199TIP3    H228089   0.440   1.254  14.004  0.5588 -0.9683  1.3991
 2200TIP3   OH228090   0.590   2.652   1.135  0.6276  0.0906 -0.5765
 2200TIP3    H128091   0.671   2.695   1.163  1.2988 -1.4442 -0.0713
 2200TIP3    H228092   0.543   2.636   1.217  0.7051 -0.7197 -0.6824
 2201TIP3   OH228093   3.791   4.992   2.320  0.5340  0.5443  0.1745
 2201TIP3    H128094   3.781   4.915   2.264  0.9277  0.3493  0.3649
 2201TIP3    H228095   3.714   5.046   2.301 -1.6471 -1.5649  2.6793
 2202TIP3   OH228096   1.337   3.753   2.209 -0.0520 -0.1095 -1.1231
 2202TIP3    H128097   1.341   3.744   2.114  1.9726  2.2415 -1.2897
 2202TIP3    H228098   1.414   3.805   2.232 -1.2417  0.5167  1.6677
 2203TIP3   OH228099   2.136   3.743   5.120 -0.5290  0.6000 -0.0265
 2203TIP3    H128100   2.214   3.783   5.158 -1.1141  1.3415  0.4005
 2203TIP3    H228101   2.164   3.654   5.097 -0.2403  0.0293  2.3875
 2204TIP3   OH228102   2.086   2.572  16.893  0.2065  0.7808 -0.1162
 2204TIP3    H128103   2.130   2.543  16.813  0.5840 -0.8301  0.6429
 2204TIP3    H228104   1.997   2.537  16.886  1.4336 -3.0465  2.0354
 2205TIP3   OH228105   4.979   3.550  13.702 -0.0022 -0.2829  0.6955
 2205TIP3    H128106   5.007   3.487  13.769  0.3547 -0.5203  0.3198
 2205TIP3    H228107   5.039   3.537  13.629 -0.6116 -0.2687  0.1886
 2206TIP3   OH228108   4.404   3.370   2.558 -0.0993 -0.9650 -0.0049
 2206TIP3    H128109   4.352   3.359   2.478  0.7491 -1.8436 -0.4409
 2206TIP3    H228110   4.413   3.465   2.567 -2.6986 -0.7579  0.6910
 2207TIP3   OH228111   1.665   2.560   0.753  0.2168  0.1898 -0.2157
 2207TIP3    H128112   1.716   2.578   0.675  1.2171  1.5816  0.7357
 2207TIP3    H228113   1.600   2.631   0.756 -1.0555 -0.9248 -0.7992
 2208TIP3   OH228114   6.790   3.149  10.840  0.1688  0.2850  0.2425
 2208TIP3    H128115   6.778   3.114  10.752  0.3615 -0.3359  0.4622
 2208TIP3    H228116   6.885   3.150  10.852  0.0959 -1.5815  1.2176
 2209TIP3   OH228117   4.955   6.764  15.258  0.6699 -0.0271 -0.0238
 2209TIP3    H128118   4.984   6.767  15.167  2.5530 -1.3719  0.5083
 2209TIP3    H228119   5.005   6.692  15.297 -0.8463 -0.1171  1.8267
 2210TIP3   OH228120   1.514   0.106  11.040  0.3492 -0.0515  0.1771
 2210TIP3    H128121   1.444   0.170  11.029 -0.6681 -1.1200  0.3279
 2210TIP3    H228122   1.573   0.122  10.966  1.6422  2.9254  1.7493
 2211TIP3   OH228123   0.706   3.854   0.145  0.0726  0.1118 -0.0340
 2211TIP3    H128124   0.712   3.765   0.109 -0.6516 -0.6094  1.5408
 2211TIP3    H228125   0.674   3.907   0.072 -1.4353 -1.3152 -0.4661
 2212TIP3   OH228126   2.003   4.274   5.206  0.3205  0.3593  1.1826
 2212TIP3    H128127   2.017   4.263   5.300 -1.3251  0.0946  1.4052
 2212TIP3    H228128   1.961   4.193   5.178 -2.8692  2.0196  0.9882
 2213TIP3   OH228129   1.273   0.172   3.619 -0.1963 -0.6840  0.0041
 2213TIP3    H128130   1.293   0.220   3.699 -0.5380 -0.8127  0.1658
 2213TIP3    H228131   1.339   0.202   3.556  0.4481 -1.0378  0.5064
 2214TIP3   OH228132   4.447   0.777  14.322 -0.3287 -0.2746 -0.1322
 2214TIP3    H128133   4.432   0.687  14.294  0.1257 -0.6308  0.7371
 2214TIP3    H228134   4.387   0.829  14.269  0.2373 -0.9562 -1.4657
 2215TIP3   OH228135   6.085   4.329  12.483  0.1329 -0.1136 -1.2841
 2215TIP3    H128136   6.156   4.265  12.475  0.4594  0.2159 -0.9856
 2215TIP3    H228137   6.024   4.289  12.546  0.0091 -0.4324 -1.6016
 2216TIP3   OH228138   1.146   4.243  17.130  0.1317  0.4553  1.0475
 2216TIP3    H128139   1.112   4.228  17.218 -0.7347  0.5888  0.7415
 2216TIP3    H228140   1.214   4.309  17.140  0.4571  0.0287  1.6940
 2217TIP3   OH228141   1.709   5.308  13.222 -0.1256  0.3279 -0.5777
 2217TIP3    H128142   1.713   5.319  13.317  1.2330  0.6557 -0.6611
 2217TIP3    H228143   1.715   5.397  13.187  0.0114  0.1619 -0.9805
 2218TIP3   OH228144   4.360   3.957  11.643 -0.1898 -0.1108 -0.0731
 2218TIP3    H128145   4.455   3.950  11.651 -0.2154 -1.3646 -0.6666
 2218TIP3    H228146   4.330   3.866  11.631 -1.4897  0.2334  0.4431
 2219TIP3   OH228147   4.503   3.097   2.490 -0.2052  0.1329 -0.1313
 2219TIP3    H128148   4.499   3.168   2.555 -2.4266 -0.0451 -0.0532
 2219TIP3    H228149   4.552   3.135   2.417 -0.4873  1.4210  0.3329
 2220TIP3   OH228150   3.020   3.276   4.671  0.1475  0.1207  0.3197
 2220TIP3    H128151   3.115   3.284   4.665  0.2593 -0.3637  1.4466
 2220TIP3    H228152   2.994   3.242   4.585  0.8921  1.0480 -0.2863
 2221TIP3   OH228153   2.811   0.000  15.174 -0.3214  0.4308  0.2465
 2221TIP3    H128154   2.801  -0.026  15.082 -0.4558  0.7178  0.1780
 2221TIP3    H228155   2.903   0.023  15.183 -0.2432  0.1140  0.2601
 2222TIP3   OH228156   0.441   4.398   5.238  0.1930  0.0521  0.1622
 2222TIP3    H128157   0.523   4.428   5.199  0.7402 -3.2967 -1.4345
 2222TIP3    H228158   0.468   4.349   5.315 -0.3564 -0.4881  0.0102
 2223TIP3   OH228159   1.766   0.205   4.115 -0.0860 -0.3835  0.3438
 2223TIP3    H128160   1.672   0.222   4.121 -0.2571 -1.2156  0.1173
 2223TIP3    H228161   1.791   0.181   4.205  0.0868  0.6849  0.5885
 2224TIP3   OH228162   3.850   1.261   0.520 -0.0158  0.1912 -0.6268
 2224TIP3    H128163   3.846   1.167   0.537  1.0638  0.0292 -1.2094
 2224TIP3    H228164   3.782   1.276   0.454 -0.7718 -0.0272  0.0950
 2225TIP3   OH228165   5.108   1.490   6.833 -0.6693 -0.6680 -0.5422
 2225TIP3    H128166   5.043   1.550   6.798 -0.0420  0.3558  0.0230
 2225TIP3    H228167   5.161   1.544   6.892 -0.8806 -2.0511  0.9565
 2226TIP3   OH228168   1.000   4.960  13.715 -0.0571 -0.8757 -0.2934
 2226TIP3    H128169   0.978   4.885  13.660  1.3628 -1.9980  0.6210
 2226TIP3    H228170   0.963   4.939  13.801  0.6925 -0.7275  0.0702
 2227TIP3   OH228171   0.369   3.232  15.038  0.0674  0.1043 -0.4981
 2227TIP3    H128172   0.383   3.318  15.078  1.6141 -0.1605 -0.4429
 2227TIP3    H228173   0.426   3.173  15.087 -1.9712 -1.2387  0.3559
 2228TIP3   OH228174   5.383   1.897   1.036  0.1764 -0.1117 -0.8380
 2228TIP3    H128175   5.392   1.802   1.042  1.2902  0.0509  0.3737
 2228TIP3    H228176   5.408   1.929   1.123 -0.2401  1.2877 -1.2167
 2229TIP3   OH228177   4.229   5.632  13.523 -0.0192 -0.0503 -0.1645
 2229TIP3    H128178   4.201   5.605  13.611  0.7189 -0.4617 -0.0498
 2229TIP3    H228179   4.218   5.727  13.523  1.0910  0.0963  0.7872
 2230TIP3   OH228180   4.366   6.165   0.274 -0.3568  0.0376 -0.1760
 2230TIP3    H128181   4.438   6.227   0.269  0.9237 -1.3207  0.9097
 2230TIP3    H228182   4.315   6.181   0.195  0.2799  2.0300 -0.2193
 2231TIP3   OH228183   5.635   6.439   5.749 -0.1127 -0.7957  0.0378
 2231TIP3    H128184   5.679   6.519   5.777 -1.4894 -0.0428  0.1019
 2231TIP3    H228185   5.626   6.449   5.654 -1.3455 -0.3040  0.1898
 2232TIP3   OH228186   2.316   3.302   5.989 -0.4818 -0.2989 -0.1630
 2232TIP3    H128187   2.329   3.346   6.073  1.5592 -0.9291 -0.1368
 2232TIP3    H228188   2.308   3.374   5.926  1.1890  0.1457  0.1128
 2233TIP3   OH228189   6.638   3.941  11.108  0.4910 -0.1409  0.0450
 2233TIP3    H128190   6.557   3.951  11.158  0.7399 -1.8826  0.8377
 2233TIP3    H228191   6.618   3.875  11.042  0.7816  0.6430 -0.8468
 2234TIP3   OH228192   2.129   1.987  14.859  0.2437 -0.7366 -0.1218
 2234TIP3    H128193   2.094   1.898  14.857 -1.0467 -0.2669  0.8344
 2234TIP3    H228194   2.169   1.995  14.946 -3.5952  1.0377  1.6263
 2235TIP3   OH228195   0.613   6.511  11.740  0.4969 -0.4077 -0.2570
 2235TIP3    H128196   0.577   6.599  11.727 -0.2270 -0.8731 -1.4642
 2235TIP3    H228197   0.536   6.454  11.743  1.0353 -1.1992 -1.1179
 2236TIP3   OH228198   5.699   6.807   1.157 -0.0232 -0.3301 -0.1855
 2236TIP3    H128199   5.617   6.816   1.108  0.0877  0.1949 -0.2731
 2236TIP3    H228200   5.694   6.874   1.225  0.5899  0.0915 -0.5533
 2237TIP3   OH228201   5.323   5.911  14.257  0.1660 -0.2014 -0.1546
 2237TIP3    H128202   5.230   5.927  14.238  0.3655  2.4503  0.9241
 2237TIP3    H228203   5.325   5.896  14.352  0.7511 -1.0552 -0.3014
 2238TIP3   OH228204   3.185   6.534   2.542 -0.3732 -0.4169 -0.2780
 2238TIP3    H128205   3.128   6.553   2.617 -0.8064 -0.6358 -0.5502
 2238TIP3    H228206   3.254   6.601   2.547  0.8326 -1.7346  1.5751
 2239TIP3   OH228207   6.435   0.928  11.937  0.8086 -0.3756  0.1884
 2239TIP3    H128208   6.389   1.008  11.910  0.3844 -0.8543 -0.5383
 2239TIP3    H228209   6.452   0.882  11.854  2.1652 -0.4389  0.4873
 2240TIP3   OH228210   2.027   3.488   6.060 -0.0291 -0.1711 -0.9570
 2240TIP3    H128211   1.960   3.499   6.128  0.1913 -1.2741 -0.5399
 2240TIP3    H228212   2.109   3.485   6.109  0.2955  0.8462 -1.4384
 2241TIP3   OH228213   1.649   1.939   0.144  0.3211  0.0660  0.2835
 2241TIP3    H128214   1.578   1.968   0.087 -1.0840  1.0925  2.4703
 2241TIP3    H228215   1.728   1.949   0.091 -1.0738 -0.4533 -1.9769
 2242TIP3   OH228216   4.534   1.713   5.746  0.0301 -0.1414 -0.7023
 2242TIP3    H128217   4.507   1.800   5.774 -1.4748 -0.9034  0.2877
 2242TIP3    H228218   4.566   1.725   5.656 -1.7473  1.1435 -1.1835
 2243TIP3   OH228219   5.270   4.764   2.383 -0.4946 -0.2494 -0.0658
 2243TIP3    H128220   5.257   4.804   2.296 -0.5307  2.3662  1.0785
 2243TIP3    H228221   5.325   4.687   2.366  0.4723  0.8670 -2.2905
 2244TIP3   OH228222   3.115   1.035  16.303 -0.3784  0.2397 -0.2122
 2244TIP3    H128223   3.110   1.002  16.213 -1.6158 -0.0758 -0.0347
 2244TIP3    H228224   3.200   1.080  16.307 -0.6468  0.9313 -1.7696
 2245TIP3   OH228225   0.197   1.058   1.136  0.1121  0.3646 -0.1673
 2245TIP3    H128226   0.188   0.994   1.206  1.7466  2.3263  1.9387
 2245TIP3    H228227   0.291   1.075   1.131 -0.1145  1.2261 -1.9579
 2246TIP3   OH228228   0.448   2.105   0.104 -1.1569  0.1058  0.4255
 2246TIP3    H128229   0.356   2.084   0.086 -1.7710  0.5940  2.7808
 2246TIP3    H228230   0.444   2.179   0.165  0.8394  1.1772 -0.6948
 2247TIP3   OH228231   4.990   1.446  12.021  0.3415 -0.0495  0.3486
 2247TIP3    H128232   5.079   1.441  12.056 -0.2274 -0.5267  1.7368
 2247TIP3    H228233   4.959   1.533  12.046 -0.7077 -1.0535  2.6175
 2248TIP3   OH228234   4.677   1.466  14.986  0.1924  0.3103 -0.1759
 2248TIP3    H128235   4.668   1.534  14.919  0.7481  1.3295  0.7798
 2248TIP3    H228236   4.770   1.442  14.984  0.6325  1.7348  1.5521
 2249TIP3   OH228237   5.408   4.312  12.191  0.6370 -0.1405 -0.4955
 2249TIP3    H128238   5.455   4.343  12.268  0.4997 -2.4319  0.5385
 2249TIP3    H228239   5.473   4.317  12.121  0.7458  1.9979 -0.3010
 2250TIP3   OH228240   0.277   3.108  11.784 -0.6427 -0.0219  0.0515
 2250TIP3    H128241   0.269   3.055  11.863 -0.7788  0.6081  0.4646
 2250TIP3    H228242   0.364   3.149  11.792 -1.2576  1.1981  0.6016
 2251TIP3   OH228243   1.296   6.736   0.149  0.4055  0.6901 -0.1463
 2251TIP3    H128244   1.317   6.690   0.068  0.7663  0.8475 -0.1436
 2251TIP3    H228245   1.362   6.706   0.212 -0.4030 -0.0908  0.3298
 2252TIP3   OH228246   3.759   2.006   1.305 -0.1569  0.1624  0.0448
 2252TIP3    H128247   3.855   2.005   1.307 -0.1375  0.5469 -0.6731
 2252TIP3    H228248   3.737   2.047   1.221 -0.9496  0.0350  0.1886
 2253TIP3   OH228249   1.836   5.322   0.712  0.8932 -0.4675  0.4265
 2253TIP3    H128250   1.898   5.301   0.642  0.6316 -0.5010  0.2019
 2253TIP3    H228251   1.888   5.317   0.792  1.2821 -0.0556  0.2014
 2254TIP3   OH228252   6.532   1.290   5.409  0.2080  0.3554 -0.0073
 2254TIP3    H128253   6.480   1.369   5.396  0.3926  0.5087  0.1888
 2254TIP3    H228254   6.603   1.317   5.468  0.8431  0.2857 -0.7348
 2255TIP3   OH228255   4.984   0.129  12.341  0.2476 -0.0431 -0.0202
 2255TIP3    H128256   4.918   0.064  12.364 -0.3733  0.5781 -0.0649
 2255TIP3    H228257   4.941   0.213  12.354  0.6865  0.3500 -1.0782
 2256TIP3   OH228258   3.754   5.448   1.566  0.5597  0.3853 -0.3887
 2256TIP3    H128259   3.724   5.527   1.610 -0.7857 -1.6862  2.5728
 2256TIP3    H228260   3.707   5.447   1.483 -3.7668 -0.1134  1.9223
 2257TIP3   OH228261   0.004   0.883   3.819  0.3506 -0.2330 -0.2678
 2257TIP3    H128262  -0.024   0.962   3.865  1.0560  1.7155 -3.0641
 2257TIP3    H228263   0.078   0.850   3.870  0.3657  1.1768  0.6517
 2258TIP3   OH228264   3.843   5.339  13.706  0.2381  0.5222 -0.5534
 2258TIP3    H128265   3.761   5.335  13.657  0.4751 -0.6176 -0.8699
 2258TIP3    H228266   3.908   5.302  13.647  0.9627  1.2726 -0.2375
 2259TIP3   OH228267   5.471   3.644   5.275 -0.0072  0.0602  0.4915
 2259TIP3    H128268   5.452   3.620   5.184 -2.8997  1.1859  0.7367
 2259TIP3    H228269   5.564   3.625   5.286  0.8123  1.4764 -3.2031
 2260TIP3   OH228270   2.440   4.032  12.368 -0.1441 -0.5736 -0.3526
 2260TIP3    H128271   2.481   4.092  12.430 -1.0500  0.2632 -0.5404
 2260TIP3    H228272   2.358   4.006  12.411 -0.2440 -0.8554 -0.7149
 2261TIP3   OH228273   5.478   2.530  15.922 -0.6367 -0.1733 -0.4760
 2261TIP3    H128274   5.456   2.437  15.931 -0.9965 -0.0246  0.3182
 2261TIP3    H228275   5.573   2.532  15.917 -0.5780 -0.5418  0.2791
 2262TIP3   OH228276   1.750   6.297  11.532  0.0635  0.2658  0.1078
 2262TIP3    H128277   1.728   6.318  11.441  0.7572  1.2987  0.1656
 2262TIP3    H228278   1.795   6.213  11.527 -0.6364 -0.0940 -0.4026
 2263TIP3   OH228279   2.503   5.354   3.447 -0.6443 -0.1148 -0.0345
 2263TIP3    H128280   2.432   5.290   3.450  0.3041 -1.2225 -0.7633
 2263TIP3    H228281   2.481   5.410   3.373 -2.2092  1.3015  1.4567
 2264TIP3   OH228282   3.079   5.818  10.327  0.1673 -0.0933  0.7300
 2264TIP3    H128283   3.137   5.866  10.386 -0.1398  0.3268  0.6883
 2264TIP3    H228284   3.118   5.731  10.322  1.1568  0.3785  0.1964
 2265TIP3   OH228285   2.152   5.717  10.222  0.1287  0.1878  0.0765
 2265TIP3    H128286   2.143   5.796  10.169 -1.7888  0.1171  0.2639
 2265TIP3    H228287   2.242   5.720  10.255  0.1332  2.1889 -0.0770
 2266TIP3   OH228288   4.503   4.500   5.424  0.1885  0.7904  0.3471
 2266TIP3    H128289   4.440   4.476   5.492 -0.5754  0.3590 -0.5164
 2266TIP3    H228290   4.509   4.596   5.431  0.3781  0.7236  1.2476
 2267TIP3   OH228291   2.775   5.240   0.237  0.2161 -0.0794  1.2354
 2267TIP3    H128292   2.806   5.163   0.190  0.9007 -0.9452  3.0740
 2267TIP3    H228293   2.701   5.209   0.288 -2.0946  1.4046 -1.1022
 2268TIP3   OH228294   0.121   5.712   0.054  0.3553 -0.3380  0.5005
 2268TIP3    H128295   0.073   5.794   0.063 -1.1095 -1.0889 -0.2667
 2268TIP3    H228296   0.058   5.644   0.077  1.0680 -1.3477 -0.4460
 2269TIP3   OH228297   6.199   0.432  14.150  0.5612  0.0748  0.1447
 2269TIP3    H128298   6.124   0.492  14.159 -0.5251 -1.0824 -1.0281
 2269TIP3    H228299   6.225   0.413  14.240 -1.2206 -0.3255  0.5917
 2270TIP3   OH228300   4.984   0.869  14.237  0.8697  0.2749 -0.1649
 2270TIP3    H128301   4.931   0.915  14.303  1.4678  1.8361 -0.7612
 2270TIP3    H228302   4.934   0.878  14.156  2.1150  1.9122 -0.7641
 2271TIP3   OH228303   6.777   3.752  16.024  0.1929  0.7929  0.5654
 2271TIP3    H128304   6.843   3.701  16.071  0.0059 -0.2419 -0.2667
 2271TIP3    H228305   6.699   3.746  16.079  0.4072  0.8556  0.8729
 2272TIP3   OH228306   1.207   1.791  11.321 -0.1944  0.7073 -0.6024
 2272TIP3    H128307   1.247   1.796  11.408  2.8098  3.9771 -2.0502
 2272TIP3    H228308   1.130   1.847  11.327  0.9354  2.2822 -0.4577
 2273TIP3   OH228309   6.308   2.166   0.379  0.1029  0.5523  0.2239
 2273TIP3    H128310   6.358   2.119   0.446  0.8957 -0.3816 -0.9984
 2273TIP3    H228311   6.227   2.116   0.369  0.6364 -0.1566 -0.5710
 2274TIP3   OH228312   1.896   4.113  11.282 -0.2774  0.1443 -0.1875
 2274TIP3    H128313   1.837   4.058  11.230  1.2839 -0.3761 -1.4498
 2274TIP3    H228314   1.967   4.055  11.307 -0.2419  0.7925  1.2526
 2275TIP3   OH228315   3.947   0.905  14.212  0.9491 -0.1667  0.1651
 2275TIP3    H128316   3.930   0.956  14.290 -1.4686 -1.8756  0.7932
 2275TIP3    H228317   3.956   0.970  14.142 -0.2830  1.1967  1.2522
 2276TIP3   OH228318   4.641   0.351  12.790  0.2456  0.7870  0.0554
 2276TIP3    H128319   4.566   0.383  12.841  0.5346 -0.2209  1.1218
 2276TIP3    H228320   4.706   0.328  12.856  0.5998 -0.5989 -0.7762
 2277TIP3   OH228321   6.054   2.050  13.440 -0.0615  0.0245  0.2333
 2277TIP3    H128322   6.034   1.975  13.496 -1.2532  0.8588  0.9651
 2277TIP3    H228323   6.116   2.102  13.491  0.7792 -0.4736 -0.2829
 2278TIP3   OH228324   4.698   6.018   0.247 -0.1365  0.6920  0.3707
 2278TIP3    H128325   4.688   5.928   0.280  0.0945  0.7005  0.4685
 2278TIP3    H228326   4.634   6.025   0.176 -1.6290  1.1178  1.7393
 2279TIP3   OH228327   3.656   3.656   3.799  0.2334  0.7701 -0.9854
 2279TIP3    H128328   3.566   3.686   3.788 -0.5760 -0.6040  1.3409
 2279TIP3    H228329   3.685   3.698   3.880  1.8748  1.6100 -2.0014
 2280TIP3   OH228330   0.652   6.429  17.015  0.1344  0.3627  0.4577
 2280TIP3    H128331   0.724   6.366  17.010  0.7616  1.0152  1.2852
 2280TIP3    H228332   0.626   6.442  16.923 -1.0310 -2.2574  0.3701
 2281TIP3   OH228333   1.168   5.440   3.119  0.1524 -0.6666 -0.0991
 2281TIP3    H128334   1.255   5.425   3.157 -0.5041 -1.2387  1.2064
 2281TIP3    H228335   1.149   5.359   3.071 -0.1337 -1.0001  0.5660
 2282TIP3   OH228336   2.874   1.069   2.767 -0.5750 -0.3457  0.2588
 2282TIP3    H128337   2.958   1.061   2.811 -1.1919 -1.0920  1.3174
 2282TIP3    H228338   2.878   1.154   2.723  1.1153 -0.8031 -0.5280
 2283TIP3   OH228339   1.971   0.558   5.209  0.3393 -0.5910 -0.5281
 2283TIP3    H128340   1.880   0.531   5.197  0.0877 -0.6722  1.3664
 2283TIP3    H228341   2.022   0.492   5.163 -0.5321 -0.9297 -1.0151
 2284TIP3   OH228342   5.386   5.042   3.183  0.5359  1.0578  0.6048
 2284TIP3    H128343   5.429   5.005   3.260  0.7472  1.3880  0.6464
 2284TIP3    H228344   5.305   4.991   3.174  0.0710  1.6123  1.5776
 2285TIP3   OH228345   5.849   5.474  15.315  0.4258  0.5643 -0.7045
 2285TIP3    H128346   5.796   5.552  15.329  1.8102  1.6963 -1.6012
 2285TIP3    H228347   5.797   5.419  15.257 -0.8689  0.4870  0.5152
 2286TIP3   OH228348   6.686   5.594  15.865 -0.0432 -0.6437  0.0843
 2286TIP3    H128349   6.694   5.502  15.843  0.9762 -1.0870  2.1638
 2286TIP3    H228350   6.761   5.612  15.921  0.3585  1.7161 -1.0926
 2287TIP3   OH228351   2.583   0.733   0.122  0.8674 -0.2484  0.3667
 2287TIP3    H128352   2.522   0.793   0.165 -2.3343 -1.0027 -2.8217
 2287TIP3    H228353   2.551   0.646   0.145  1.6042 -0.6749 -0.1795
 2288TIP3   OH228354   3.505   1.401  13.871  0.0227  0.1505  0.2444
 2288TIP3    H128355   3.522   1.366  13.958 -0.4568  1.2637  0.7921
 2288TIP3    H228356   3.558   1.346  13.813 -0.3773 -1.1883  1.1189
 2289TIP3   OH228357   0.706   5.232   3.603 -0.0996 -0.2801  0.2108
 2289TIP3    H128358   0.636   5.296   3.616  0.2497  0.1610 -0.0858
 2289TIP3    H228359   0.669   5.169   3.542  0.3098  0.8012 -1.1632
 2290TIP3   OH228360   1.225   5.321   1.110  0.3077 -0.7065  0.3336
 2290TIP3    H128361   1.313   5.306   1.077  0.2219 -0.3060 -0.0720
 2290TIP3    H228362   1.191   5.233   1.129  1.1113 -0.8170  1.3314
 2291TIP3   OH228363   5.399   5.394  15.470  0.5344  0.5217  1.0149
 2291TIP3    H128364   5.392   5.471  15.525 -0.4975  1.0855  0.1024
 2291TIP3    H228365   5.443   5.425  15.391 -2.8421  0.9492 -0.7681
 2292TIP3   OH228366   1.711   4.778  13.381  0.0359  0.3170  0.2148
 2292TIP3    H128367   1.720   4.698  13.330  0.0036  0.0008  0.7064
 2292TIP3    H228368   1.616   4.789  13.392  0.0556  0.1715  0.5407
 2293TIP3   OH228369   1.001   2.119   2.993  0.1279  0.9654  0.4783
 2293TIP3    H128370   1.028   2.154   3.078 -0.2175 -1.9713  1.8352
 2293TIP3    H228371   0.912   2.087   3.007  0.2585 -0.0416 -0.8423
 2294TIP3   OH228372   4.840   5.721  13.943 -0.4101 -0.0870  0.2781
 2294TIP3    H128373   4.826   5.719  14.038  0.6079 -1.5076  0.4112
 2294TIP3    H228374   4.933   5.700  13.932 -0.9428 -1.7924 -1.1164
 2295TIP3   OH228375   5.658   1.438   0.741  0.0702  0.0054 -0.4912
 2295TIP3    H128376   5.593   1.487   0.790  1.9386  2.3514 -0.2894
 2295TIP3    H228377   5.663   1.482   0.656 -1.9911 -3.0629 -2.3424
 2296TIP3   OH228378   4.380   3.922   1.269  0.7949  0.5497  0.6821
 2296TIP3    H128379   4.433   3.962   1.200  0.4888  1.0152  0.7084
 2296TIP3    H228380   4.303   3.888   1.224  0.7064  0.6449  0.7615
 2297TIP3   OH228381   4.372   3.474  13.353 -0.6790  0.1884  0.5767
 2297TIP3    H128382   4.342   3.412  13.419  0.7437  0.2955  1.3482
 2297TIP3    H228383   4.295   3.525  13.331 -1.2735 -0.1368  1.8489
 2298TIP3   OH228384   6.215   0.276   2.527  0.3087  0.0798  0.0362
 2298TIP3    H128385   6.139   0.251   2.474 -1.4105 -0.6037  2.7178
 2298TIP3    H228386   6.249   0.355   2.485 -2.1961  0.6753 -0.9339
 2299TIP3   OH228387   5.063   2.254   0.791 -0.0170  0.2463  0.2263
 2299TIP3    H128388   5.107   2.191   0.848  0.3307  1.8978  1.8197
 2299TIP3    H228389   5.132   2.315   0.765  0.0369 -0.9697 -2.7303
 2300TIP3   OH228390   1.763   1.478  10.975  0.0523 -0.0996  0.6804
 2300TIP3    H128391   1.701   1.409  10.956  0.6148 -0.2524 -0.6870
 2300TIP3    H228392   1.762   1.533  10.897  2.1654 -0.5292  0.3158
 2301TIP3   OH228393   3.793   1.173   4.172  0.0932 -0.8776  0.4639
 2301TIP3    H128394   3.832   1.252   4.134 -1.7918 -0.6288 -1.0505
 2301TIP3    H228395   3.839   1.100   4.130  1.4727 -0.6241  1.4770
 2302TIP3   OH228396   6.127   1.771   5.807  0.0681  0.0755 -0.1206
 2302TIP3    H128397   6.063   1.720   5.857  1.2019  0.0472  1.3502
 2302TIP3    H228398   6.079   1.847   5.775 -1.3036 -1.2061 -1.1742
 2303TIP3   OH228399   0.141   6.772  13.262 -0.4904  0.2080 -0.2361
 2303TIP3    H128400   0.083   6.714  13.312  0.2176 -1.2660 -1.0724
 2303TIP3    H228401   0.083   6.837  13.223 -1.6769 -1.5766 -1.5371
 2304TIP3   OH228402   3.342   2.300   4.745  0.1845  0.0048 -0.2480
 2304TIP3    H128403   3.428   2.260   4.758 -0.0503 -1.0361 -1.8227
 2304TIP3    H228404   3.357   2.367   4.678 -0.1288  0.1819 -0.1400
 2305TIP3   OH228405   2.017   6.178   2.056  0.3918 -0.9264  0.1842
 2305TIP3    H128406   1.964   6.257   2.068  1.4516 -0.1944  0.0604
 2305TIP3    H228407   2.040   6.151   2.145  1.9136  0.2025  0.1592
 2306TIP3   OH228408   4.592   0.631   1.978  0.3330 -0.0914 -0.1873
 2306TIP3    H128409   4.513   0.630   1.925 -0.3438 -0.1409  0.8198
 2306TIP3    H228410   4.622   0.722   1.976 -0.1702  0.0778  0.0626
 2307TIP3   OH228411   4.316   3.824   2.775  0.3269 -0.0878 -0.1789
 2307TIP3    H128412   4.362   3.906   2.795 -0.6703  1.0335 -2.3598
 2307TIP3    H228413   4.229   3.835   2.814  0.8974 -1.0099  1.3941
 2308TIP3   OH228414   1.272   1.715   4.612  0.3892 -0.1273 -0.3618
 2308TIP3    H128415   1.295   1.750   4.526 -0.4439  0.5162 -0.3305
 2308TIP3    H228416   1.214   1.781   4.650 -1.6468 -1.7592 -0.5214
 2309TIP3   OH228417   4.668   2.372   5.940 -0.4799  0.0238 -0.2662
 2309TIP3    H128418   4.758   2.384   5.971 -0.8492 -0.3736  1.0106
 2309TIP3    H228419   4.646   2.455   5.898 -0.1237  0.7976  1.0224
 2310TIP3   OH228420   0.446   5.170   3.309  0.0697 -0.0430 -0.2192
 2310TIP3    H128421   0.466   5.198   3.220  0.2124 -2.5234 -0.9907
 2310TIP3    H228422   0.523   5.121   3.337 -1.3824 -2.3555 -0.0948
 2311TIP3   OH228423   2.482   1.774   1.033  0.0418  0.4777  0.3671
 2311TIP3    H128424   2.506   1.825   1.110  0.1317 -0.7172  1.1491
 2311TIP3    H228425   2.399   1.733   1.057  0.8432 -1.1476  0.4489
 2312TIP3   OH228426   1.296   0.261  15.877 -0.2326  0.4536  0.2243
 2312TIP3    H128427   1.212   0.271  15.832 -1.0722  1.2479  1.9339
 2312TIP3    H228428   1.359   0.301  15.817 -0.8627 -1.2498 -1.6376
 2313TIP3   OH228429   3.967   5.416  11.920 -0.1889  0.8660 -0.2938
 2313TIP3    H128430   3.884   5.414  11.872  0.7817 -0.4253 -1.9515
 2313TIP3    H228431   3.944   5.454  12.005 -2.4224  0.7689 -0.8209
 2314TIP3   OH228432   6.204   2.114   2.970  0.6246 -0.0142 -0.3570
 2314TIP3    H128433   6.278   2.100   3.028 -0.6470  0.5925  1.4850
 2314TIP3    H228434   6.221   2.198   2.927  0.0917  1.0905  1.5481
 2315TIP3   OH228435   1.546   3.358  13.628  0.2440  0.0180  0.4360
 2315TIP3    H128436   1.492   3.327  13.555  0.5342  0.3667  0.0737
 2315TIP3    H228437   1.587   3.279  13.663 -2.1384 -0.5885  2.0758
 2316TIP3   OH228438   6.679   6.073  16.081 -0.1794  0.0682  0.0219
 2316TIP3    H128439   6.660   5.981  16.065 -2.2422  0.5128 -0.3119
 2316TIP3    H228440   6.612   6.100  16.145  1.1622  1.0232  1.0467
 2317TIP3   OH228441   2.192   4.150  10.928  0.2094 -0.2834 -0.0726
 2317TIP3    H128442   2.192   4.097  11.008 -0.6047  0.7834  0.6479
 2317TIP3    H228443   2.212   4.239  10.958 -3.2526  0.7645 -0.5877
 2318TIP3   OH228444   2.798   5.858  14.013  0.4788  0.5532  0.2398
 2318TIP3    H128445   2.739   5.930  13.991  0.0752  0.1734  0.0798
 2318TIP3    H228446   2.871   5.868  13.952  0.5089  0.9317  0.3369
 2319TIP3   OH228447   5.355   4.764  11.864 -0.3916 -0.0651 -0.5736
 2319TIP3    H128448   5.284   4.733  11.920 -0.2524  0.8183  0.0850
 2319TIP3    H228449   5.331   4.733  11.776 -1.1631 -0.4898 -0.2147
 2320TIP3   OH228450   1.690   0.041  15.452  0.3607  0.0265 -0.0929
 2320TIP3    H128451   1.655   0.030  15.540 -0.9417  2.2989 -0.2753
 2320TIP3    H228452   1.641  -0.020  15.397 -0.5112  0.3383  0.3425
 2321TIP3   OH228453   4.805   1.468   0.313  0.6334 -0.3670 -0.2710
 2321TIP3    H128454   4.877   1.512   0.359  0.3336  0.5336 -0.6672
 2321TIP3    H228455   4.736   1.534   0.307  0.2609 -0.8258 -1.0445
 2322TIP3   OH228456   3.338   2.525   4.590  0.3856 -0.0794 -0.0543
 2322TIP3    H128457   3.284   2.603   4.573  1.1984  0.5476  0.1876
 2322TIP3    H228458   3.399   2.522   4.516 -1.1974 -1.8750 -1.3156
 2323TIP3   OH228459   5.357   1.457   0.680 -0.3528 -0.3419  0.3108
 2323TIP3    H128460   5.275   1.430   0.639  0.3384 -0.4537 -1.0143
 2323TIP3    H228461   5.361   1.552   0.666  1.1644 -0.7463 -2.2786
 2324TIP3   OH228462   5.286   4.554  13.561  0.1247  0.7329 -0.0296
 2324TIP3    H128463   5.335   4.626  13.520  0.1343  0.4118 -0.5852
 2324TIP3    H228464   5.197   4.564  13.528  0.6796 -1.0615 -2.1975
 2325TIP3   OH228465   2.572   3.861  15.291  0.2274  0.7042  0.0223
 2325TIP3    H128466   2.526   3.882  15.210 -0.2063  0.5548  0.2263
 2325TIP3    H228467   2.599   3.946  15.326  1.8720  0.6810 -1.1076
 2326TIP3   OH228468   0.510   2.294   2.923  0.1165  0.4022 -0.2326
 2326TIP3    H128469   0.455   2.218   2.902  1.8629 -1.0208  0.2221
 2326TIP3    H228470   0.534   2.330   2.838 -0.1550  0.0338 -0.4685
 2327TIP3   OH228471   3.491   5.470  10.844 -0.2056 -0.2445 -0.2203
 2327TIP3    H128472   3.520   5.409  10.776 -2.0310  0.5561 -1.7732
 2327TIP3    H228473   3.412   5.430  10.880  0.1791 -0.1653  0.7105
 2328TIP3   OH228474   5.440   6.647   0.249  0.1924  0.1308  0.0167
 2328TIP3    H128475   5.354   6.687   0.262 -0.6547 -1.3990 -0.7015
 2328TIP3    H228476   5.499   6.698   0.305 -0.7298  2.6798 -1.2520
 2329TIP3   OH228477   3.413   5.083  10.722 -0.1539  0.2532  0.0300
 2329TIP3    H128478   3.435   4.998  10.683 -0.8332  0.0886 -0.0026
 2329TIP3    H228479   3.328   5.105  10.684 -0.3320  0.5909  0.6285
 2330TIP3   OH228480   2.909   2.194   3.164 -0.3465 -0.5403  0.1638
 2330TIP3    H128481   2.830   2.246   3.151 -0.5487 -0.8923 -0.0022
 2330TIP3    H228482   2.880   2.117   3.214 -0.1267 -0.7098  0.0324
 2331TIP3   OH228483   1.423   1.025  15.382 -0.4972  0.7909  0.1480
 2331TIP3    H128484   1.420   0.967  15.305  0.7464  0.5310  0.2890
 2331TIP3    H228485   1.488   0.985  15.440 -1.8248  0.6828  1.5914
 2332TIP3   OH228486   1.395   4.489  15.411  0.5993  0.2392  0.5382
 2332TIP3    H128487   1.408   4.484  15.506  2.9588  1.2061  0.3001
 2332TIP3    H228488   1.320   4.548  15.401 -0.0718 -0.3698  1.8118
 2333TIP3   OH228489   0.262   6.155   5.984 -0.4005 -0.4682  0.2434
 2333TIP3    H128490   0.221   6.152   6.071 -0.8567  0.4281  0.0595
 2333TIP3    H228491   0.354   6.138   6.001 -0.5821 -0.9066  0.8337
 2334TIP3   OH228492   0.564   5.651  12.801 -0.1100  0.1885 -0.2034
 2334TIP3    H128493   0.570   5.746  12.798  0.6864  0.0990 -1.5900
 2334TIP3    H228494   0.653   5.622  12.822 -0.5598 -0.2159  1.2002
 2335TIP3   OH228495   2.371   3.830   5.207 -0.0952  0.1159 -0.5761
 2335TIP3    H128496   2.381   3.826   5.302 -0.7529 -1.2796 -0.5576
 2335TIP3    H228497   2.461   3.825   5.174  0.1624  0.9764 -0.0247
 2336TIP3   OH228498   6.264   0.850  16.375 -0.5502  0.6116 -0.0973
 2336TIP3    H128499   6.326   0.841  16.447 -1.0320 -2.0462  0.0559
 2336TIP3    H228500   6.312   0.819  16.298 -1.5716 -1.2839 -0.0109
 2337TIP3   OH228501   3.685   0.082   6.475  0.0473  0.2979  0.3567
 2337TIP3    H128502   3.705   0.167   6.513 -0.9484 -0.0617  1.7401
 2337TIP3    H228503   3.770   0.043   6.456  0.5698  0.5827  2.0643
 2338TIP3   OH228504   1.516   1.613  16.918  0.8032 -0.4038  0.4913
 2338TIP3    H128505   1.451   1.547  16.895 -1.3722  2.7526 -2.9386
 2338TIP3    H228506   1.487   1.648  17.002 -0.6074 -0.6514  0.1097
 2339TIP3   OH228507   0.718   6.669   4.969 -0.5278 -0.1831 -0.3634
 2339TIP3    H128508   0.690   6.752   4.931 -0.2340  0.1759  0.2006
 2339TIP3    H228509   0.643   6.640   5.022 -0.2114  0.2867  0.3498
 2340TIP3   OH228510   3.268   0.572  12.328 -0.3949 -0.3361 -0.0202
 2340TIP3    H128511   3.315   0.645  12.367 -0.9815  0.4353 -0.7303
 2340TIP3    H228512   3.327   0.497  12.337 -0.2559 -0.0289  1.7223
 2341TIP3   OH228513   5.796   1.406  13.490 -0.3568 -0.0412  0.1411
 2341TIP3    H128514   5.873   1.456  13.462 -0.5259 -0.8337 -1.7980
 2341TIP3    H228515   5.832   1.334  13.543  0.0082  1.0969  1.4867
 2342TIP3   OH228516   3.813   2.918  15.371  0.4412 -0.1522  0.5183
 2342TIP3    H128517   3.720   2.923  15.350  0.1952 -0.2171  1.5701
 2342TIP3    H228518   3.855   2.974  15.306 -0.2725 -0.5246 -0.2830
 2343TIP3   OH228519   4.579   0.465  16.365  0.8255  0.3452  0.2457
 2343TIP3    H128520   4.533   0.391  16.324  1.3208  1.8448 -3.1845
 2343TIP3    H228521   4.669   0.457  16.334  0.7904  2.6022 -0.5201
 2344TIP3   OH228522   0.151   6.271  13.023 -0.1585  0.2980 -0.0069
 2344TIP3    H128523   0.075   6.322  13.051 -0.2172  0.4031 -0.3498
 2344TIP3    H228524   0.147   6.272  12.927  0.3190  0.3776 -0.0325
 2345TIP3   OH228525   2.775   5.833   3.607  0.4453 -0.0250 -0.2715
 2345TIP3    H128526   2.737   5.841   3.695 -1.4570 -1.1912 -0.9675
 2345TIP3    H228527   2.868   5.817   3.623 -0.3640 -3.1542  1.6331
 2346TIP3   OH228528   3.866   4.656  15.200  0.0661 -0.6726  0.2285
 2346TIP3    H128529   3.940   4.595  15.204  0.8200  0.3238  3.0257
 2346TIP3    H228530   3.855   4.686  15.291 -1.8458  1.4918 -0.6666
 2347TIP3   OH228531   1.037   0.852   2.220  0.2083 -0.3294  0.4357
 2347TIP3    H128532   1.107   0.792   2.196 -0.5894 -0.0492 -2.8055
 2347TIP3    H228533   0.957   0.805   2.198 -0.4971  0.9301  0.2839
 2348TIP3   OH228534   3.468   5.864   1.815  0.3092  0.7549 -0.7332
 2348TIP3    H128535   3.550   5.914   1.812 -0.3090  1.7654 -0.8629
 2348TIP3    H228536   3.484   5.798   1.882  0.3217  2.5751  1.1107
 2349TIP3   OH228537   6.384   0.017  14.070 -0.2029 -0.3386  0.7170
 2349TIP3    H128538   6.368  -0.026  13.986 -1.3887  0.5371  0.4832
 2349TIP3    H228539   6.298   0.048  14.098  0.2380 -0.3114  2.0960
 2350TIP3   OH228540   1.398   0.572   0.808 -0.1396  0.1236  0.1722
 2350TIP3    H128541   1.415   0.586   0.901 -0.1132 -0.5884  0.2778
 2350TIP3    H228542   1.345   0.492   0.805 -0.8412  0.5939 -0.3692
 2351TIP3   OH228543   0.940   2.469   1.285 -0.3452 -0.1889  0.0848
 2351TIP3    H128544   0.847   2.448   1.286 -0.5468  0.7329  0.8218
 2351TIP3    H228545   0.954   2.517   1.204 -0.7272  0.6372  0.5070
 2352TIP3   OH228546   0.883   3.079   0.835  0.4020 -0.7160 -0.4474
 2352TIP3    H128547   0.788   3.087   0.825  0.1467 -0.1473  2.2170
 2352TIP3    H228548   0.919   3.141   0.772 -0.9605 -1.0990 -1.6424
 2353TIP3   OH228549   1.781   1.244  10.642  0.6909 -0.1425 -0.1259
 2353TIP3    H128550   1.770   1.149  10.646  0.0569  0.0059  2.6027
 2353TIP3    H228551   1.692   1.279  10.649  0.8340  0.6690 -2.0122
 2354TIP3   OH228552   1.760   5.592  13.146  0.3862  0.2465 -0.8793
 2354TIP3    H128553   1.813   5.622  13.220  0.7980 -0.3115 -0.9432
 2354TIP3    H228554   1.818   5.598  13.070  0.5099 -0.7717 -0.8788
 2355TIP3   OH228555   6.781   1.846   2.940 -0.3118  0.1391 -0.6920
 2355TIP3    H128556   6.866   1.841   2.984 -0.7156  0.4017  0.1284
 2355TIP3    H228557   6.775   1.765   2.890  0.7495  0.4599 -1.3591
 2356TIP3   OH228558   1.744   2.580  11.712  0.0677 -0.4406 -0.6226
 2356TIP3    H128559   1.796   2.569  11.633  0.2547 -2.1611 -0.2952
 2356TIP3    H228560   1.719   2.491  11.736 -2.5622  0.3006 -0.4618
 2357TIP3   OH228561   1.453   6.718   2.758  0.5637 -0.2189 -0.1305
 2357TIP3    H128562   1.541   6.736   2.725  0.6131 -0.6357 -0.2296
 2357TIP3    H228563   1.451   6.759   2.844  0.8502 -0.1982 -0.1332
 2358TIP3   OH228564   4.750   1.999   0.812 -0.0244 -0.0586  0.5251
 2358TIP3    H128565   4.707   1.959   0.888 -1.2009 -1.6335 -0.9132
 2358TIP3    H228566   4.840   1.967   0.815  0.2787  0.9184  1.9599
 2359TIP3   OH228567   5.301   5.538   0.468 -0.3942 -0.7525 -0.4587
 2359TIP3    H128568   5.290   5.486   0.388 -0.9132  0.9356 -1.5091
 2359TIP3    H228569   5.393   5.525   0.493 -0.5196 -2.1617 -0.7092
 2360TIP3   OH228570   2.830   6.677   0.610  0.4241 -0.1769 -0.0095
 2360TIP3    H128571   2.873   6.617   0.670  0.2017 -0.0881  0.2411
 2360TIP3    H228572   2.747   6.634   0.588  0.4766 -0.1807 -0.2068
 2361TIP3   OH228573   2.585   3.214   5.070 -0.3566 -0.4197  0.0018
 2361TIP3    H128574   2.555   3.282   5.011 -0.6406  0.2111  0.8542
 2361TIP3    H228575   2.659   3.253   5.116 -1.6521 -0.0220  1.7970
 2362TIP3   OH228576   1.492   4.458   2.814  0.2761  0.1071 -0.1059
 2362TIP3    H128577   1.406   4.472   2.854 -0.8599 -3.0598 -1.2615
 2362TIP3    H228578   1.506   4.364   2.820  3.8753  0.5935  0.3785
 2363TIP3   OH228579   3.870   5.475  11.588  0.2592  0.3826  0.1880
 2363TIP3    H128580   3.897   5.559  11.624  1.2527  0.8323 -1.5630
 2363TIP3    H228581   3.775   5.480  11.585  0.2551  1.0273  1.0463
 2364TIP3   OH228582   1.528   6.466  13.500 -0.5530 -0.0771  0.4917
 2364TIP3    H128583   1.459   6.455  13.436  0.2446  2.0722 -0.7781
 2364TIP3    H228584   1.489   6.518  13.570 -1.0008 -1.1926  1.0799
 2365TIP3   OH228585   1.103   0.807  12.158 -0.2380 -0.3174  0.0275
 2365TIP3    H128586   1.094   0.754  12.079 -0.4022  0.3408 -0.3986
 2365TIP3    H228587   1.031   0.870  12.153 -1.7958 -1.8756  1.9725
 2366TIP3   OH228588   5.220   1.301  12.181  0.5973  0.3806  0.5089
 2366TIP3    H128589   5.273   1.245  12.124  1.2418  2.0034 -0.5222
 2366TIP3    H228590   5.251   1.282  12.269  0.7857 -0.8849  0.1812
 2367TIP3   OH228591   6.574   2.260   5.019  0.8217 -0.2936  0.1235
 2367TIP3    H128592   6.579   2.187   5.080  2.6187 -0.9454 -0.7493
 2367TIP3    H228593   6.599   2.337   5.071 -1.3726 -0.2205  1.1139
 2368TIP3   OH228594   3.518   4.687  14.788  0.5839  0.2425  0.9121
 2368TIP3    H128595   3.530   4.647  14.703 -0.2992  0.2744  0.7685
 2368TIP3    H228596   3.526   4.615  14.851  0.6772  0.1285  0.7674
 2369TIP3   OH228597   3.226   6.474  16.656  0.1358 -0.5533  0.1960
 2369TIP3    H128598   3.269   6.558  16.641 -1.2394  0.2047  0.4146
 2369TIP3    H228599   3.147   6.478  16.603  0.2049 -1.8348 -0.0149
 2370TIP3   OH228600   6.807   4.915   4.800 -0.0783 -0.6371 -0.2136
 2370TIP3    H128601   6.798   5.000   4.757 -2.1055 -0.9873 -0.5563
 2370TIP3    H228602   6.797   4.851   4.730  1.6885 -1.1601  0.0029
 2371TIP3   OH228603   1.220   1.627  14.426 -0.1942 -0.1832  0.3790
 2371TIP3    H128604   1.197   1.717  14.449 -0.8624 -0.3178  0.2449
 2371TIP3    H228605   1.138   1.578  14.432  0.0781 -0.6992  0.0328
 2372TIP3   OH228606   4.643   3.128   1.647  0.5031  0.2004  0.2748
 2372TIP3    H128607   4.702   3.197   1.617  0.6202 -0.4574 -1.0972
 2372TIP3    H228608   4.556   3.167   1.646  0.6857  0.6104  0.4483
 2373TIP3   OH228609   4.656   1.603  12.646 -0.0302  0.7823  0.0484
 2373TIP3    H128610   4.701   1.687  12.644  1.4155  0.0346  0.8553
 2373TIP3    H228611   4.699   1.551  12.578  0.2364  0.1165  0.7172
 2374TIP3   OH228612   4.442   4.064   2.924 -0.4072  0.6040 -0.1071
 2374TIP3    H128613   4.474   4.146   2.961  0.1462  1.2940 -2.0167
 2374TIP3    H228614   4.393   4.023   2.994  1.8873  1.1029  1.8652
 2375TIP3   OH228615   4.928   5.842   1.057 -0.9033  0.1445 -0.2111
 2375TIP3    H128616   4.923   5.769   0.996 -1.0653  0.0217 -0.0525
 2375TIP3    H228617   4.974   5.911   1.009 -0.5934 -0.1231 -0.2968
 2376TIP3   OH228618   5.202   0.431   6.369  0.3623 -0.5547 -0.5613
 2376TIP3    H128619   5.246   0.385   6.297  1.8778 -0.2543  0.1629
 2376TIP3    H228620   5.185   0.518   6.334  0.7569 -0.5285 -0.6905
 2377TIP3   OH228621   4.910   3.758   0.479  0.0786 -0.1793 -0.9895
 2377TIP3    H128622   4.900   3.730   0.388 -0.8578 -1.2467 -0.5717
 2377TIP3    H228623   4.919   3.677   0.529 -1.2058  0.3139  0.0812
 2378TIP3   OH228624   4.417   6.315   4.838  0.1755 -0.2013  0.7446
 2378TIP3    H128625   4.374   6.273   4.763  0.4983  1.1568 -0.2294
 2378TIP3    H228626   4.439   6.243   4.897  0.7271 -1.3993 -0.8882
 2379TIP3   OH228627   1.056   6.413   4.133  0.0985 -0.4208  0.5420
 2379TIP3    H128628   1.015   6.496   4.109  0.9581  0.3740  1.7289
 2379TIP3    H228629   0.988   6.347   4.117  0.3253  0.1306 -3.1074
 2380TIP3   OH228630   0.854   1.393   4.543 -0.0958  0.7136 -0.2011
 2380TIP3    H128631   0.930   1.451   4.554  0.0694  0.4005  0.3465
 2380TIP3    H228632   0.810   1.395   4.627 -1.1065  1.4523 -0.7413
 2381TIP3   OH228633   1.646   0.622   3.490  0.1053  0.1386 -0.0055
 2381TIP3    H128634   1.664   0.683   3.562  0.6845  1.1324 -0.9688
 2381TIP3    H228635   1.706   0.549   3.504  1.8360  1.3865 -0.7410
 2382TIP3   OH228636   2.777   3.006  11.266 -0.2156  0.1555 -0.0325
 2382TIP3    H128637   2.791   3.093  11.229 -0.1619  0.1224 -0.0903
 2382TIP3    H228638   2.787   3.019  11.361 -1.3695  0.4334  0.0520
 2383TIP3   OH228639   1.497   4.709   6.625 -0.1807  0.2460  0.2560
 2383TIP3    H128640   1.469   4.787   6.671  0.1791  0.9049 -0.6315
 2383TIP3    H228641   1.566   4.739   6.566  0.3538 -0.8370  0.3164
 2384TIP3   OH228642   6.486   0.455   3.198  0.1175 -0.1005 -0.1294
 2384TIP3    H128643   6.432   0.527   3.232  0.1942 -0.6071  1.0842
 2384TIP3    H228644   6.429   0.379   3.201  1.5335 -1.1049  3.2342
 2385TIP3   OH228645   1.916   6.468  13.886 -0.0394  0.7908 -0.4958
 2385TIP3    H128646   1.929   6.402  13.817 -0.0924  0.5491 -0.2728
 2385TIP3    H228647   1.940   6.550  13.844 -1.7040  0.8775 -1.3285
 2386TIP3   OH228648   5.018   5.581   5.078  0.6525 -0.1477 -0.2583
 2386TIP3    H128649   5.111   5.594   5.061  0.4329  0.3085 -1.1153
 2386TIP3    H228650   4.975   5.605   4.997 -0.2795  0.4469  0.4047
 2387TIP3   OH228651   6.053   4.217  13.323  0.2979 -0.1925 -0.1035
 2387TIP3    H128652   5.972   4.260  13.353 -0.5296 -1.9157  0.2166
 2387TIP3    H228653   6.035   4.194  13.232  1.1232  1.0637 -0.5812
 2388TIP3   OH228654   2.661   2.041   4.585 -0.8545 -0.0424  0.3743
 2388TIP3    H128655   2.654   2.004   4.673  1.8360 -1.0345  0.2112
 2388TIP3    H228656   2.708   2.123   4.596  0.8437 -0.9058 -0.2958
 2389TIP3   OH228657   6.426   3.558  12.047  0.1484  0.1763  0.3515
 2389TIP3    H128658   6.430   3.648  12.015  0.4921 -0.2775 -0.8947
 2389TIP3    H228659   6.369   3.563  12.124  0.4246  1.5131  0.4842
 2390TIP3   OH228660   0.234   4.708  12.630 -0.6742 -0.0333  0.2606
 2390TIP3    H128661   0.184   4.632  12.601 -1.0356  1.0094 -1.9713
 2390TIP3    H228662   0.169   4.778  12.635  0.0383  0.6451  0.0979
 2391TIP3   OH228663   6.657   5.805  15.531 -0.0607 -0.1469 -0.3468
 2391TIP3    H128664   6.687   5.734  15.474  3.9388  0.7074  0.4832
 2391TIP3    H228665   6.692   5.885  15.490 -2.0502  1.0583  0.2482
 2392TIP3   OH228666   2.915   1.830  10.666  0.2835 -0.0313 -0.2015
 2392TIP3    H128667   2.901   1.923  10.645  1.6528  0.0498 -0.7675
 2392TIP3    H228668   3.009   1.817  10.657  0.3598 -1.0414  1.6901
 2393TIP3   OH228669   1.888   2.914   1.074 -0.0656  0.2341 -0.6713
 2393TIP3    H128670   1.906   3.008   1.073  0.0342  0.2282  0.1880
 2393TIP3    H228671   1.974   2.873   1.075 -0.1027  0.1571 -0.0012
 2394TIP3   OH228672   2.762   5.737   4.229  1.2449 -0.3573  0.4421
 2394TIP3    H128673   2.776   5.646   4.202  0.6226 -0.0710 -0.9060
 2394TIP3    H228674   2.850   5.775   4.231  1.1485  0.5121 -4.5786
 2395TIP3   OH228675   4.415   3.315   0.678  0.6937 -0.2739  0.1387
 2395TIP3    H128676   4.465   3.283   0.753  1.5775 -1.9130 -1.1152
 2395TIP3    H228677   4.386   3.236   0.633 -2.2775  0.6696  0.3223
 2396TIP3   OH228678   3.247   5.544  17.235  0.0481 -0.7293 -0.6060
 2396TIP3    H128679   3.245   5.546  17.330 -0.5680 -0.1824 -0.6247
 2396TIP3    H228680   3.334   5.512  17.213 -0.9478 -4.2648  0.1828
 2397TIP3   OH228681   3.710   4.351  16.322 -0.5436  0.3050 -0.5686
 2397TIP3    H128682   3.694   4.335  16.229  1.2774 -0.3130 -0.7814
 2397TIP3    H228683   3.778   4.418  16.324 -1.1428  0.9051  0.3325
 2398TIP3   OH228684   1.095   2.535   4.081 -0.2474  0.2005 -0.0462
 2398TIP3    H128685   1.003   2.512   4.071  0.4710 -2.6581 -0.7498
 2398TIP3    H228686   1.134   2.460   4.126  1.8427  1.0830 -0.3030
 2399TIP3   OH228687   6.529   1.508   1.346 -0.4996  0.3458  0.1065
 2399TIP3    H128688   6.624   1.499   1.350 -0.7628 -2.3337  0.7027
 2399TIP3    H228689   6.502   1.522   1.436 -0.9041 -1.6019  0.3058
 2400TIP3   OH228690   2.199   6.365  10.312 -0.0739  0.4627  0.5232
 2400TIP3    H128691   2.158   6.399  10.391 -1.3118  0.4311 -0.0954
 2400TIP3    H228692   2.247   6.440  10.275  2.5059 -0.1276  2.5568
 2401TIP3   OH228693   2.357   0.575   0.188 -0.0066 -0.0116 -0.3225
 2401TIP3    H128694   2.286   0.540   0.242  0.5083 -0.3572  0.1284
 2401TIP3    H228695   2.321   0.657   0.153 -1.5301 -1.3745 -2.0648
 2402TIP3   OH228696   5.716   5.704  11.318  0.0901  0.3661  0.1458
 2402TIP3    H128697   5.674   5.756  11.387 -1.0303  1.0653 -1.0342
 2402TIP3    H228698   5.657   5.629  11.305  0.8140 -0.2976  0.6359
 2403TIP3   OH228699   0.043   2.356  15.459 -0.4609 -0.0355 -0.3971
 2403TIP3    H128700  -0.046   2.355  15.496 -0.7362  0.5787 -1.0331
 2403TIP3    H228701   0.094   2.300  15.518 -0.7763  1.3358  1.2408
 2404TIP3   OH228702   5.752   6.502  12.709  0.6674 -0.5895 -0.0608
 2404TIP3    H128703   5.702   6.453  12.774  0.8359 -0.0714  0.4521
 2404TIP3    H228704   5.826   6.444  12.688  0.0561 -1.2038 -0.5636
 2405TIP3   OH228705   1.336   2.992  12.577  0.1108  0.7436 -0.0018
 2405TIP3    H128706   1.331   2.998  12.672  0.8708  0.4873  0.0493
 2405TIP3    H228707   1.282   2.916  12.555  2.5834 -1.2008  0.4805
 2406TIP3   OH228708   5.144   3.191   1.420 -0.2770  0.1766  0.0924
 2406TIP3    H128709   5.094   3.199   1.338  0.3701 -0.8552 -0.4132
 2406TIP3    H228710   5.185   3.105   1.414  1.8303  1.1379  0.3657
 2407TIP3   OH228711   2.954   2.895  14.649 -0.3134  0.1772 -0.3034
 2407TIP3    H128712   2.920   2.980  14.674  1.7056  1.9098 -3.1350
 2407TIP3    H228713   3.030   2.914  14.593 -1.0007 -3.4091 -2.7130
 2408TIP3   OH228714   0.186   2.129  16.921 -0.2773 -0.4252  0.1149
 2408TIP3    H128715   0.187   2.033  16.927 -0.5451 -0.4027  0.5319
 2408TIP3    H228716   0.278   2.155  16.929 -0.1200 -0.6933 -0.7653
 2409TIP3   OH228717   3.918   6.569  13.903 -0.0819 -0.4451 -0.0678
 2409TIP3    H128718   3.825   6.585  13.918 -1.0666 -2.1361 -3.7223
 2409TIP3    H228719   3.929   6.475  13.919  1.0212 -0.2467  0.4026
 2410TIP3   OH228720   3.554   2.246  14.749 -0.5998  0.0664  0.4097
 2410TIP3    H128721   3.633   2.196  14.730 -0.1157  0.4690  1.2825
 2410TIP3    H228722   3.586   2.336  14.759 -1.1257  0.1893  1.0049
 2411TIP3   OH228723   0.324   6.255   1.818  0.6354 -0.0540 -0.5959
 2411TIP3    H128724   0.407   6.253   1.770 -0.4704  3.0885 -2.8574
 2411TIP3    H228725   0.263   6.207   1.763  0.1436  0.6908 -0.7116
 2412TIP3   OH228726   6.778   5.294  14.850 -0.5038  0.4361  0.2572
 2412TIP3    H128727   6.836   5.237  14.798 -0.0073  0.7986  0.4137
 2412TIP3    H228728   6.696   5.245  14.855 -1.7574  1.8638 -3.8506
 2413TIP3   OH228729   6.598   2.272   5.681  0.2463 -0.0726 -0.3137
 2413TIP3    H128730   6.562   2.288   5.593  1.4902 -1.6210 -1.1313
 2413TIP3    H228731   6.644   2.353   5.703  1.3748 -0.2863 -1.8117
 2414TIP3   OH228732   2.623   5.810   2.350  0.1252  0.0993  0.3458
 2414TIP3    H128733   2.586   5.826   2.437 -1.8374 -0.9669 -0.2486
 2414TIP3    H228734   2.596   5.721   2.329  0.7791  0.2663 -1.2537
 2415TIP3   OH228735   4.160   4.016  15.520  0.0256 -0.3861  0.4289
 2415TIP3    H128736   4.189   4.099  15.557  0.8364 -1.0810  1.3913
 2415TIP3    H228737   4.153   3.957  15.595  0.5240 -1.4885 -0.3768
 2416TIP3   OH228738   2.129   1.717   3.647  0.4843 -0.5557  0.5343
 2416TIP3    H128739   2.068   1.655   3.606 -0.0921  0.2531  0.1452
 2416TIP3    H228740   2.073   1.788   3.679  1.0435 -0.7129  1.8550
 2417TIP3   OH228741   3.788   2.144  13.329 -0.5055  0.8459  0.3772
 2417TIP3    H128742   3.786   2.050  13.346 -1.1980  0.9575  0.8970
 2417TIP3    H228743   3.851   2.178  13.392  0.6596  0.5700 -0.6148
 2418TIP3   OH228744   2.193   4.867  11.635  0.3649  0.4385  0.1541
 2418TIP3    H128745   2.245   4.877  11.555  1.3792  0.3060  0.7774
 2418TIP3    H228746   2.124   4.932  11.627 -1.2298 -1.4545 -2.1296
 2419TIP3   OH228747   2.362   0.511  14.043  0.4357  0.0359  0.3912
 2419TIP3    H128748   2.303   0.531  14.116 -0.9638 -0.0495 -0.6773
 2419TIP3    H228749   2.309   0.456  13.984  1.6410 -0.1702 -0.5219
 2420TIP3   OH228750   0.661   1.455   4.312 -0.3197  0.2363 -0.1118
 2420TIP3    H128751   0.738   1.454   4.368 -0.2658 -0.0364 -0.1911
 2420TIP3    H228752   0.603   1.520   4.352 -0.2429  0.1091  0.2064
 2421TIP3   OH228753   4.256   1.065   1.763  0.6178 -0.0614  0.4540
 2421TIP3    H128754   4.218   1.077   1.850 -0.4280  0.3259 -0.0480
 2421TIP3    H228755   4.272   1.153   1.731 -0.5979 -0.1446 -0.4289
 2422TIP3   OH228756   5.153   4.660   5.205 -0.8537  0.2992 -0.1496
 2422TIP3    H128757   5.226   4.722   5.195 -1.7343  0.9731 -2.8806
 2422TIP3    H228758   5.105   4.692   5.281  0.9119  0.6478  0.8509
 2423TIP3   OH228759   6.061   0.560   2.701 -0.5611  0.7061 -0.1293
 2423TIP3    H128760   6.122   0.539   2.630 -1.5007  0.3706 -0.8350
 2423TIP3    H228761   6.110   0.622   2.756 -0.0501  1.4337 -1.3817
 2424TIP3   OH228762   2.438   6.695  13.189  0.3717 -0.3614 -0.5766
 2424TIP3    H128763   2.458   6.755  13.117 -0.8040 -0.4200 -0.9671
 2424TIP3    H228764   2.492   6.725  13.261 -1.1326  1.9781 -0.3584
 2425TIP3   OH228765   4.785   6.430  13.627  0.7801  0.4741 -0.0456
 2425TIP3    H128766   4.763   6.461  13.714  1.0719  1.1513 -0.2094
 2425TIP3    H228767   4.795   6.510  13.575  0.0754  0.0656 -0.8285
 2426TIP3   OH228768   2.935   1.621  14.217  0.7699 -0.1224 -0.2887
 2426TIP3    H128769   2.924   1.540  14.265 -0.5462  0.0390 -0.2976
 2426TIP3    H228770   2.913   1.690  14.280  2.3790  0.2763 -0.1205
 2427TIP3   OH228771   5.497   5.312   6.004 -0.1721 -0.4176  0.3318
 2427TIP3    H128772   5.494   5.407   5.995  0.4764 -0.5856 -1.7964
 2427TIP3    H228773   5.589   5.289   5.989 -0.4189 -1.4243  0.3153
 2428TIP3   OH228774   5.016   4.596  10.940 -0.5031  0.1987 -0.4721
 2428TIP3    H128775   5.015   4.657  10.866 -0.9521  0.3588 -0.3393
 2428TIP3    H228776   5.108   4.570  10.948  0.0130  2.2513  0.5992
 2429TIP3   OH228777   0.798   5.846  12.999 -0.5225 -0.3435 -0.1385
 2429TIP3    H128778   0.802   5.750  13.002 -0.6366 -0.3892 -1.0854
 2429TIP3    H228779   0.880   5.875  13.037 -1.0279 -0.7895  1.3241
 2430TIP3   OH228780   2.748   0.224   5.133 -0.8764 -0.2842 -0.0287
 2430TIP3    H128781   2.685   0.188   5.071 -2.7934  0.5864  1.3645
 2430TIP3    H228782   2.719   0.193   5.219  2.7616 -2.9868  0.3674
 2431TIP3   OH228783   3.968   3.323  15.787  0.1329  0.6599  0.4701
 2431TIP3    H128784   3.973   3.268  15.709  0.7729  1.4607 -0.0667
 2431TIP3    H228785   3.988   3.263  15.859 -1.6548 -0.3529  0.1567
 2432TIP3   OH228786   2.146   5.475   1.178  0.5061 -0.7504 -0.0058
 2432TIP3    H128787   2.176   5.391   1.212 -1.9329 -0.6561  2.5970
 2432TIP3    H228788   2.067   5.454   1.128  0.0069 -0.0425  0.4695
 2433TIP3   OH228789   6.287   1.454   0.977 -0.1048 -0.6423 -0.0641
 2433TIP3    H128790   6.208   1.508   0.981  0.1556 -0.2707  0.1227
 2433TIP3    H228791   6.259   1.374   0.933 -1.1808 -1.5428  2.1572
 2434TIP3   OH228792   6.388   1.749   5.776 -0.4296 -0.1580 -0.0349
 2434TIP3    H128793   6.295   1.738   5.793 -0.4706 -1.4538 -1.0095
 2434TIP3    H228794   6.393   1.779   5.686  0.0952 -0.0603  0.0206
 2435TIP3   OH228795   2.717   5.268  16.883 -0.0222 -0.5755  0.3340
 2435TIP3    H128796   2.788   5.244  16.944 -1.7603 -2.2229  1.7665
 2435TIP3    H228797   2.745   5.232  16.799  0.4994 -1.8752  1.0514
 2436TIP3   OH228798   5.122   5.039  14.482  0.3659 -0.0465 -0.8621
 2436TIP3    H128799   5.205   5.078  14.510 -0.5093  1.4790 -0.3039
 2436TIP3    H228800   5.139   5.007  14.394  1.7206 -0.3204 -0.5210
 2437TIP3   OH228801   0.212   4.199   2.415 -0.3556  0.2905  0.4075
 2437TIP3    H128802   0.208   4.293   2.395 -0.3084  0.6088  1.8610
 2437TIP3    H228803   0.273   4.163   2.351 -1.2624  1.0532 -0.9053
 2438TIP3   OH228804   1.756   5.940   4.327 -0.3160 -0.2516 -0.2245
 2438TIP3    H128805   1.802   6.023   4.345  0.3022 -0.2003 -1.9315
 2438TIP3    H228806   1.759   5.932   4.232  2.5764 -3.8907  0.0780
 2439TIP3   OH228807   0.411   3.803  13.843 -0.3221  0.0755 -0.3961
 2439TIP3    H128808   0.443   3.726  13.795 -0.7867 -0.4121  0.0745
 2439TIP3    H228809   0.482   3.867  13.834 -0.4336  0.0161 -1.7891
 2440TIP3   OH228810   3.059   1.556  11.793 -0.3801 -0.1309 -0.4366
 2440TIP3    H128811   3.046   1.507  11.874  0.1483 -0.1301 -0.3521
 2440TIP3    H228812   3.146   1.596  11.802 -0.7086  0.6352 -0.6030
 2441TIP3   OH228813   4.310   1.155  15.462 -0.2865 -0.2750 -0.2819
 2441TIP3    H128814   4.236   1.099  15.438 -1.6862  0.0758  2.9459
 2441TIP3    H228815   4.362   1.101  15.522 -0.7590  1.2598  1.5634
 2442TIP3   OH228816   0.556   5.597   2.647 -0.0257  0.2270 -0.5193
 2442TIP3    H128817   0.480   5.538   2.649  0.2599 -0.1307 -0.2262
 2442TIP3    H228818   0.567   5.618   2.554  0.7119 -1.2847 -0.7912
 2443TIP3   OH228819   2.510   4.267   3.811  0.0664  0.3868  0.5015
 2443TIP3    H128820   2.458   4.256   3.890  2.5988 -2.3803  1.8902
 2443TIP3    H228821   2.492   4.188   3.759  0.9618  0.5958 -0.1396
 2444TIP3   OH228822   1.813   1.466   1.035 -0.2343  0.2495  0.1899
 2444TIP3    H128823   1.875   1.538   1.022 -0.2151  0.2872  0.5074
 2444TIP3    H228824   1.769   1.458   0.950  0.5332 -0.0808 -0.1872
 2445TIP3   OH228825   0.067   3.007  16.784 -0.3462  0.0769 -0.6153
 2445TIP3    H128826   0.136   3.056  16.739 -0.4610  0.5452 -0.2851
 2445TIP3    H228827   0.114   2.946  16.840 -0.2026 -0.3542 -1.2070
 2446TIP3   OH228828   0.117   2.126  12.824  0.0330  0.1875  0.1962
 2446TIP3    H128829   0.094   2.196  12.762  0.3044  0.4086  0.3425
 2446TIP3    H228830   0.101   2.045  12.775  0.1907  0.3607 -0.1488
 2447TIP3   OH228831   1.689   4.077  14.969  0.3014  0.0166 -0.3769
 2447TIP3    H128832   1.598   4.074  14.998  0.5222 -1.1922  0.2174
 2447TIP3    H228833   1.701   3.997  14.918  0.7822  0.6241 -1.2272
 2448TIP3   OH228834   2.080   1.193  16.440  0.6557 -0.4014  0.2566
 2448TIP3    H128835   2.106   1.117  16.493 -1.4750  0.3564  2.4957
 2448TIP3    H228836   2.064   1.262  16.505 -0.0288  1.1765 -1.5497
 2449TIP3   OH228837   2.586   5.752   1.278  0.0897  0.4229  0.3102
 2449TIP3    H128838   2.593   5.677   1.218  0.3749 -0.3396  1.2684
 2449TIP3    H228839   2.539   5.717   1.353 -1.2593  1.6711  0.0569
 2450TIP3   OH228840   1.716   0.345   1.868 -0.4768  0.5990 -0.1092
 2450TIP3    H128841   1.627   0.335   1.834 -0.7194 -2.1243  1.1905
 2450TIP3    H228842   1.772   0.322   1.794 -0.9692 -2.7540  0.4796
 2451TIP3   OH228843   4.254   2.829  14.406 -0.5087  0.0604  0.2167
 2451TIP3    H128844   4.202   2.781  14.342 -0.7308 -1.9462  1.8644
 2451TIP3    H228845   4.325   2.769  14.429 -0.4024  0.7734  1.7998
 2452TIP3   OH228846   5.494   4.911  13.777 -0.3667 -0.0166  0.0683
 2452TIP3    H128847   5.500   4.889  13.684  0.5160 -1.8128  0.5210
 2452TIP3    H228848   5.579   4.950  13.798  0.0105 -1.0389  0.4637
 2453TIP3   OH228849   5.760   1.685   5.397 -0.1231  0.0425  0.0304
 2453TIP3    H128850   5.814   1.763   5.397 -1.2215  0.8256  1.2066
 2453TIP3    H228851   5.798   1.629   5.465 -1.7243  1.2973  2.0291
 2454TIP3   OH228852   1.217   5.643  14.919 -0.5589  0.1835  0.1332
 2454TIP3    H128853   1.122   5.641  14.930 -0.5933 -0.1337 -0.1920
 2454TIP3    H228854   1.252   5.653  15.007 -0.8471 -1.3989  0.4422
 2455TIP3   OH228855   2.481   5.390   0.039  0.5414  0.1510  0.7436
 2455TIP3    H128856   2.476   5.333  -0.038  0.9590 -0.9220  1.4900
 2455TIP3    H228857   2.570   5.379   0.071  0.8410  1.7931  0.4820
 2456TIP3   OH228858   3.508   4.828  15.346  0.0237 -0.0232 -0.0862
 2456TIP3    H128859   3.498   4.743  15.304 -0.6143 -1.1561  2.3036
 2456TIP3    H228860   3.459   4.888  15.290  0.3284 -1.2415 -1.6953
 2457TIP3   OH228861   1.761   2.364  12.347  0.6923 -0.3608 -0.2966
 2457TIP3    H128862   1.850   2.334  12.369  0.9047  0.1071 -0.5198
 2457TIP3    H228863   1.742   2.430  12.413  0.4872 -0.4942 -0.2219
 2458TIP3   OH228864   5.152   2.395   3.525  0.2352 -0.8037  0.1638
 2458TIP3    H128865   5.196   2.475   3.497  0.7528 -1.6583 -1.5175
 2458TIP3    H228866   5.110   2.419   3.608  0.3043  1.2262 -0.3524
 2459TIP3   OH228867   5.707   0.230  12.464  0.6215  0.0219 -0.4109
 2459TIP3    H128868   5.791   0.188  12.481  1.6285  1.2089 -2.2411
 2459TIP3    H228869   5.707   0.308  12.518  1.2560  0.6758 -1.3368
 2460TIP3   OH228870   0.002   0.283   5.834 -0.0611 -0.0768  0.0176
 2460TIP3    H128871  -0.015   0.307   5.925  2.9957 -0.3513  0.7219
 2460TIP3    H228872   0.034   0.193   5.838 -0.1530 -0.1801 -1.3496
 2461TIP3   OH228873   6.177   3.369  11.898 -0.7807  0.1977  0.1552
 2461TIP3    H128874   6.225   3.319  11.833  0.3876  0.3500  0.8748
 2461TIP3    H228875   6.168   3.310  11.973 -0.6439  0.5677  0.4717
 2462TIP3   OH228876   5.393   3.616   3.143  0.0835 -0.5058  0.2641
 2462TIP3    H128877   5.466   3.674   3.123  0.2558 -0.1591  1.8483
 2462TIP3    H228878   5.318   3.675   3.154  0.6128 -0.3795  3.6064
 2463TIP3   OH228879   0.522   3.500  12.848  0.2129  0.0607 -0.3163
 2463TIP3    H128880   0.578   3.481  12.774 -1.0389 -1.5430 -0.8706
 2463TIP3    H228881   0.448   3.440  12.839 -0.4314  0.5039  1.6902
 2464TIP3   OH228882   5.840   5.452  14.558 -0.2262  0.3317 -0.6255
 2464TIP3    H128883   5.891   5.371  14.558  0.0216  0.4671  0.8078
 2464TIP3    H228884   5.898   5.517  14.598 -0.6169  1.0933 -1.2771
 2465TIP3   OH228885   5.017   5.403  15.052 -0.2224  0.1514  0.1547
 2465TIP3    H128886   4.940   5.444  15.013 -0.2032 -0.0576 -0.1091
 2465TIP3    H228887   5.082   5.473  15.056  0.7905 -0.5082 -2.9969
 2466TIP3   OH228888   1.310   4.625  14.410 -0.1043  0.6407 -0.0626
 2466TIP3    H128889   1.318   4.695  14.475  1.0060 -0.5062  1.0667
 2466TIP3    H228890   1.366   4.555  14.444 -0.2574 -0.3303 -1.7922
 2467TIP3   OH228891   3.704   4.945  14.802 -0.4651  0.4274 -0.0178
 2467TIP3    H128892   3.767   4.874  14.820 -1.7430 -0.6692  0.2117
 2467TIP3    H228893   3.619   4.901  14.798 -1.3452  2.0327  0.6335
 2468TIP3   OH228894   2.954   3.549   4.673  0.5442  0.8877 -0.1197
 2468TIP3    H128895   2.942   3.475   4.614  0.7185  0.9842 -0.2739
 2468TIP3    H228896   2.943   3.512   4.761 -0.4670  0.8885 -0.2406
 2469TIP3   OH228897   2.194   2.400   2.464  0.1584  0.4745  0.6879
 2469TIP3    H128898   2.182   2.427   2.555  3.5908 -0.3045  1.4202
 2469TIP3    H228899   2.245   2.471   2.424 -1.3902  0.8526 -0.6920
 2470TIP3   OH228900   3.908   5.922   5.545  0.2448  0.1061 -0.3868
 2470TIP3    H128901   3.855   5.958   5.617 -0.1413 -0.1172 -0.5561
 2470TIP3    H228902   3.870   5.836   5.528  0.3643  0.1379 -0.8229
 2471TIP3   OH228903   0.714   6.783  12.860  0.0870 -0.1240  0.1230
 2471TIP3    H128904   0.759   6.711  12.904  0.0176 -0.0063  0.3874
 2471TIP3    H228905   0.671   6.831  12.931 -0.3073 -0.1334 -0.1113
 2472TIP3   OH228906   0.643   5.472  14.410 -0.0613 -0.3322  0.2322
 2472TIP3    H128907   0.673   5.381  14.409 -1.3043 -0.7765  1.1766
 2472TIP3    H228908   0.547   5.465  14.404 -0.0928  0.9802 -1.3181
 2473TIP3   OH228909   6.312   0.474   3.689 -0.2910 -0.5657 -0.0668
 2473TIP3    H128910   6.344   0.403   3.745  1.0528 -1.0428 -1.4129
 2473TIP3    H228911   6.384   0.491   3.628 -0.4959  2.1113  0.3699
 2474TIP3   OH228912   3.009   2.784   2.527 -0.7033 -0.2592 -0.8540
 2474TIP3    H128913   2.998   2.749   2.439  0.1153  1.5707 -1.7001
 2474TIP3    H228914   3.103   2.804   2.533 -0.8155 -0.0289  0.3126
 2475TIP3   OH228915   4.702   4.995  14.035  0.1843  0.3396 -0.0205
 2475TIP3    H128916   4.609   5.015  14.044  0.3267 -0.0389  2.4986
 2475TIP3    H228917   4.705   4.903  14.009 -0.1269  0.1665  0.5576
 2476TIP3   OH228918   4.659   3.561  13.334  0.2023  0.0525  0.4645
 2476TIP3    H128919   4.676   3.655  13.334 -0.7450  0.2707 -1.6716
 2476TIP3    H228920   4.570   3.552  13.367 -0.8419  0.2074 -2.1870
 2477TIP3   OH228921   6.556   4.852   3.727 -0.1779  0.0850 -0.1391
 2477TIP3    H128922   6.573   4.833   3.634 -1.2017 -2.5532  0.1660
 2477TIP3    H228923   6.494   4.784   3.754 -0.4773  1.2867  2.2922
 2478TIP3   OH228924   4.954   2.395   4.009  0.0687 -0.3086  0.2129
 2478TIP3    H128925   4.938   2.448   3.931  0.0975  1.7791  1.5767
 2478TIP3    H228926   4.923   2.308   3.986 -0.1598  0.3378 -2.0330
 2479TIP3   OH228927   6.796   4.699  12.229  0.0761 -1.0655  0.1109
 2479TIP3    H128928   6.795   4.674  12.321  0.6886 -2.9795 -0.3859
 2479TIP3    H228929   6.704   4.692  12.201 -0.0028 -1.1539  0.3924
 2480TIP3   OH228930   3.693   2.998   5.553  0.0880 -0.1315 -0.0751
 2480TIP3    H128931   3.770   3.019   5.606  0.1022  1.0145 -0.5423
 2480TIP3    H228932   3.720   3.014   5.463 -0.9946  1.3258 -0.1731
 2481TIP3   OH228933   1.616   4.689  10.973  0.3203 -0.2138  0.2289
 2481TIP3    H128934   1.570   4.632  10.911 -1.4098  0.6470  0.7159
 2481TIP3    H228935   1.662   4.752  10.917  0.2843 -0.5872 -0.2304
 2482TIP3   OH228936   3.793   4.742   2.156 -0.1134  0.0397  0.2881
 2482TIP3    H128937   3.744   4.661   2.171 -2.4252  1.1028 -1.1776
 2482TIP3    H228938   3.750   4.782   2.080  2.6359  1.3830 -0.6165
 2483TIP3   OH228939   0.962   1.408   3.082 -0.0286 -0.0000  0.6511
 2483TIP3    H128940   0.881   1.357   3.073 -0.4730  0.8036  0.0508
 2483TIP3    H228941   1.022   1.367   3.019 -0.5630  0.5424 -0.2314
 2484TIP3   OH228942   4.102   2.559   5.237 -0.0599 -0.4600  0.3067
 2484TIP3    H128943   4.102   2.541   5.331  0.5443  2.6950  0.9800
 2484TIP3    H228944   4.061   2.645   5.229 -1.9154 -1.5453 -2.5382
 2485TIP3   OH228945   3.237   1.747  16.048 -0.3035  0.1064 -0.0955
 2485TIP3    H128946   3.323   1.785  16.028 -0.0526 -0.1776  0.4134
 2485TIP3    H228947   3.252   1.697  16.129 -0.4860 -1.6017 -1.0943
 2486TIP3   OH228948   3.723   3.999   0.027 -0.1324 -0.3058 -0.1332
 2486TIP3    H128949   3.640   4.024   0.067 -0.8634 -0.0597 -1.7969
 2486TIP3    H228950   3.699   3.943  -0.046  1.1759 -0.3555 -0.5354
 2487TIP3   OH228951   6.196   3.664  12.604  0.0504 -0.0443  0.0558
 2487TIP3    H128952   6.224   3.632  12.518  0.3403 -2.2361  0.9418
 2487TIP3    H228953   6.264   3.727  12.629 -0.2390  0.9085 -1.4631
 2488TIP3   OH228954   5.855   4.779   1.273  0.1199 -0.1349  0.3645
 2488TIP3    H128955   5.931   4.820   1.232  0.9155  1.4755  3.2702
 2488TIP3    H228956   5.784   4.841   1.261  0.8664  1.3579  3.1062
 2489TIP3   OH228957   6.510   2.074  11.990  0.5412 -0.4210  0.3463
 2489TIP3    H128958   6.604   2.058  11.992  1.2345  3.2125 -0.3170
 2489TIP3    H228959   6.486   2.066  11.897  0.7991  1.6770  0.0828
 2490TIP3   OH228960   4.156   5.649  14.774  0.6756 -0.1728 -0.1122
 2490TIP3    H128961   4.081   5.658  14.716  0.9085 -1.0895 -0.5591
 2490TIP3    H228962   4.122   5.670  14.861  0.2026  0.6648 -0.4898
 2491TIP3   OH228963   1.088   4.723  14.248  0.7184  0.0825  0.4347
 2491TIP3    H128964   1.132   4.650  14.292  2.7431  0.4221 -0.9445
 2491TIP3    H228965   1.077   4.693  14.157  0.7611  1.1537  0.0715
 2492TIP3   OH228966   3.439   5.765  15.816 -0.2218 -0.3312 -0.0783
 2492TIP3    H128967   3.440   5.773  15.720  0.3241 -1.4981 -0.1789
 2492TIP3    H228968   3.522   5.722  15.837  0.6495  1.8495  1.0992
 2493TIP3   OH228969   2.473   1.203   3.215 -0.4458 -0.3188  0.3522
 2493TIP3    H128970   2.567   1.220   3.219  0.0322 -2.6451 -0.1765
 2493TIP3    H228971   2.450   1.170   3.302 -0.4574 -1.1925  0.0239
 2494TIP3   OH228972   4.386   1.669  14.480  0.1606 -0.9998 -0.3587
 2494TIP3    H128973   4.460   1.640  14.534  0.6453  0.5142 -0.1975
 2494TIP3    H228974   4.309   1.650  14.534  0.7745  2.9713  2.0837
 2495TIP3   OH228975   5.772   4.490  13.778  0.3308  0.0693  0.1655
 2495TIP3    H128976   5.744   4.560  13.837  1.1306  1.9190 -1.5707
 2495TIP3    H228977   5.701   4.484  13.713 -0.0759 -1.2551  0.7168
 2496TIP3   OH228978   2.061   2.698  12.654  0.1629 -0.5848 -0.0061
 2496TIP3    H128979   2.003   2.763  12.615 -1.1123 -0.6845  1.6557
 2496TIP3    H228980   2.149   2.733  12.643 -0.1727 -0.3876 -2.5045
 2497TIP3   OH228981   5.766   1.628  11.736  0.2929 -0.4367  0.8181
 2497TIP3    H128982   5.817   1.553  11.705  0.7995 -0.1617  0.9804
 2497TIP3    H228983   5.765   1.689  11.662  0.9270 -0.0728  1.1079
 2498TIP3   OH228984   4.224   6.196  16.811 -0.1232 -0.4771  0.8296
 2498TIP3    H128985   4.208   6.160  16.899  1.2097  0.0212  1.2841
 2498TIP3    H228986   4.182   6.282  16.813 -1.0693 -0.9239  0.5994
 2499TIP3   OH228987   0.089   3.237   4.785  0.0286 -0.2349 -0.4646
 2499TIP3    H128988   0.139   3.317   4.797 -0.1267 -0.2579  0.3986
 2499TIP3    H228989   0.005   3.266   4.750  0.7592 -0.2285 -2.2644
 2500TIP3   OH228990   0.898   3.629   5.677  0.4745  0.0630 -0.2605
 2500TIP3    H128991   0.851   3.561   5.726  1.1530 -0.1219  0.1335
 2500TIP3    H228992   0.840   3.649   5.603 -0.1177 -0.3324  0.0924
 2501TIP3   OH228993   5.883   6.633   0.386 -0.0959  0.4040 -0.4396
 2501TIP3    H128994   5.877   6.588   0.302 -0.2816  0.5654 -0.5141
 2501TIP3    H228995   5.925   6.570   0.444  0.0433  0.2979 -0.6567
 2502TIP3   OH228996   1.423   6.463  16.282  0.2866  0.3331 -0.1570
 2502TIP3    H128997   1.330   6.440  16.290  1.0102 -2.4832  0.6224
 2502TIP3    H228998   1.465   6.384  16.249  2.3146  1.8648 -1.3849
 2503TIP3   OH228999   6.639   1.697  14.321  0.2349  0.0541  0.0011
 2503TIP3    H129000   6.696   1.624  14.295  0.9730  0.5739  0.1324
 2503TIP3    H229001   6.604   1.731  14.238 -1.7771 -1.7522  0.0606
 2504TIP3   OH229002   5.427   6.210  15.362 -0.9067  0.3457 -0.6185
 2504TIP3    H129003   5.434   6.262  15.441 -1.2978  0.1413 -0.4467
 2504TIP3    H229004   5.518   6.191  15.337 -0.7618  1.2658 -0.7876
 2505TIP3   OH229005   6.663   5.819   2.431  0.1682  0.3783 -0.6582
 2505TIP3    H129006   6.587   5.762   2.416  0.4523 -1.7091  4.6443
 2505TIP3    H229007   6.729   5.787   2.369 -1.1306 -2.2820 -0.7589
 2506TIP3   OH229008   5.680   3.633  11.361  0.2305  0.1981  0.3772
 2506TIP3    H129009   5.700   3.586  11.280 -0.8029 -1.2726  0.9592
 2506TIP3    H229010   5.628   3.708  11.332 -1.1535 -0.9598 -0.2420
 2507TIP3   OH229011   4.147   0.684  16.538  0.2786  0.1652  0.0252
 2507TIP3    H129012   4.090   0.629  16.484  0.9058 -1.9312  1.4595
 2507TIP3    H229013   4.086   0.735  16.592 -0.2986  0.7033 -1.1140
 2508TIP3   OH229014   3.840   6.724  11.641  0.7956  0.1091  0.2271
 2508TIP3    H129015   3.777   6.654  11.657  0.5446  0.1763 -0.4315
 2508TIP3    H229016   3.886   6.735  11.724  1.7011 -1.6746 -0.0019
 2509TIP3   OH229017   3.568   5.205   1.535 -0.1046  0.1275 -0.3027
 2509TIP3    H129018   3.609   5.137   1.482 -1.8951 -0.0403 -1.4735
 2509TIP3    H229019   3.618   5.284   1.515  0.9346 -0.4888 -0.1810
 2510TIP3   OH229020   1.192   5.371  11.712 -0.2796  0.5323  0.7395
 2510TIP3    H129021   1.273   5.330  11.743  1.3100  1.3510 -2.1632
 2510TIP3    H229022   1.207   5.465  11.726  0.1161  0.8471 -1.5977
 2511TIP3   OH229023   1.748   2.648   1.859  0.0070 -0.2564  0.2230
 2511TIP3    H129024   1.754   2.690   1.945  0.7238  1.1268 -0.4872
 2511TIP3    H229025   1.655   2.630   1.848 -0.1578  0.0445  1.0664
 2512TIP3   OH229026   3.611   0.267  14.586 -0.2880 -0.3726 -0.0086
 2512TIP3    H129027   3.591   0.344  14.532  0.5906  0.4241  0.7647
 2512TIP3    H229028   3.683   0.224  14.542  0.6654  0.4761  0.6952
 2513TIP3   OH229029   0.801   0.947   1.202 -0.0399  0.0629  0.3233
 2513TIP3    H129030   0.713   0.982   1.187 -0.3202 -0.7409  0.0737
 2513TIP3    H229031   0.850   1.020   1.240 -1.0513  0.2494  1.2661
 2514TIP3   OH229032   3.149   6.762  15.706  0.4813  0.1247 -0.2607
 2514TIP3    H129033   3.092   6.688  15.724  1.9752 -1.3143 -1.2349
 2514TIP3    H229034   3.110   6.804  15.629 -0.2699  0.2514  0.1840
 2515TIP3   OH229035   2.544   0.446  13.324 -0.1731  0.6471  0.3673
 2515TIP3    H129036   2.450   0.467  13.317 -0.8126 -2.3830 -1.1537
 2515TIP3    H229037   2.547   0.372  13.385  1.1191  0.1160 -0.3234
 2516TIP3   OH229038   5.693   0.335  11.912  0.8150 -0.4389 -0.2727
 2516TIP3    H129039   5.657   0.359  11.997  0.7697 -0.6200 -0.2413
 2516TIP3    H229040   5.635   0.266  11.880  1.6238 -1.3341  0.1583
 2517TIP3   OH229041   0.952   4.513   6.673 -0.6026 -0.4133 -0.1137
 2517TIP3    H129042   1.038   4.470   6.671 -0.3285  0.1579 -0.7971
 2517TIP3    H229043   0.895   4.450   6.718  0.1875 -0.7696  0.4022
 2518TIP3   OH229044   4.447   5.877   2.276  0.3095 -0.1457  0.1155
 2518TIP3    H129045   4.405   5.947   2.327  2.3455  0.8599  0.4660
 2518TIP3    H229046   4.444   5.800   2.332 -2.9668 -0.6953 -0.7097
 2519TIP3   OH229047   3.614   3.949   1.646 -0.8918 -0.3665 -0.4131
 2519TIP3    H129048   3.534   3.978   1.690 -1.2844  0.2772 -1.5289
 2519TIP3    H229049   3.647   4.027   1.602  0.6670 -0.4962  0.5015
 2520TIP3   OH229050   3.964   5.386   1.408 -0.1189  0.4008 -0.1289
 2520TIP3    H129051   3.970   5.481   1.399  0.5529  0.4840  1.1463
 2520TIP3    H229052   3.888   5.371   1.463 -1.1332  0.1202 -1.5838
 2521TIP3   OH229053   4.480   1.974  15.232  0.0758 -0.5969 -0.1150
 2521TIP3    H129054   4.446   1.907  15.291 -2.8341 -1.6199 -2.8258
 2521TIP3    H229055   4.499   1.927  15.151 -0.9430  1.6436 -1.7014
 2522TIP3   OH229056   4.718   0.327  15.831  0.2304  0.5043 -0.3888
 2522TIP3    H129057   4.667   0.314  15.751  0.8474 -0.0621 -0.6938
 2522TIP3    H229058   4.809   0.325  15.802  0.4397  2.1141  0.0548
 2523TIP3   OH229059   0.836   3.739  16.157 -0.1831 -0.1241  0.0300
 2523TIP3    H129060   0.794   3.824  16.175  2.9597  1.6619 -0.6296
 2523TIP3    H229061   0.895   3.757  16.085  0.4214 -2.9718 -0.2318
 2524TIP3   OH229062   5.781   1.776  11.471  0.4385 -0.1495  0.2148
 2524TIP3    H129063   5.876   1.784  11.478  0.3794  1.9998 -0.9775
 2524TIP3    H229064   5.751   1.865  11.449 -2.0039 -0.4242  2.2490
 2525TIP3   OH229065   1.601   6.794  13.067  0.6864 -0.4702  0.5210
 2525TIP3    H129066   1.570   6.884  13.072 -0.9582 -0.9616 -0.5151
 2525TIP3    H229067   1.618   6.769  13.157  1.2004  0.8802  0.8142
 2526TIP3   OH229068   0.648   0.288   2.695 -0.4955  0.1187  0.2016
 2526TIP3    H129069   0.564   0.273   2.737 -0.5723 -0.9374 -0.2969
 2526TIP3    H229070   0.633   0.363   2.637 -1.3135 -0.5258 -0.4442
 2527TIP3   OH229071   6.282   5.768   4.103 -0.3739  0.0959 -0.5810
 2527TIP3    H129072   6.190   5.791   4.109  0.0330  1.0728  2.6129
 2527TIP3    H229073   6.324   5.846   4.068 -0.4906  0.3794 -0.0941
 2528TIP3   OH229074   2.274   2.505  15.645 -0.0764  0.4327 -0.3616
 2528TIP3    H129075   2.259   2.429  15.588 -0.5102  0.7092 -0.6238
 2528TIP3    H229076   2.355   2.544  15.613 -0.6608  0.9669 -1.2225
 2529TIP3   OH229077   3.477   5.095   4.429 -0.1891 -0.1416  0.1007
 2529TIP3    H129078   3.472   5.140   4.513  0.6236  0.6138 -0.2497
 2529TIP3    H229079   3.397   5.123   4.383 -0.0772  0.3248  0.1885
 2530TIP3   OH229080   6.238   3.519   1.053 -0.2846  0.1203  0.5103
 2530TIP3    H129081   6.164   3.580   1.053 -2.6928 -2.6727  0.1114
 2530TIP3    H229082   6.264   3.513   0.961  1.3622  2.1269  0.8209
 2531TIP3   OH229083   5.288   0.451   2.854 -0.2245 -0.4132  0.4500
 2531TIP3    H129084   5.290   0.542   2.885 -0.8003 -0.7480  1.4913
 2531TIP3    H229085   5.259   0.401   2.930  0.4697 -1.5216 -0.0095
 2532TIP3   OH229086   0.129   5.979   3.845 -0.4444  0.0499 -0.3051
 2532TIP3    H129087   0.075   5.953   3.920 -1.7374  1.0982 -0.8477
 2532TIP3    H229088   0.219   5.965   3.875 -0.9245  0.6664  1.5381
 2533TIP3   OH229089   2.499   4.039   0.926 -0.9496 -0.5036 -0.2846
 2533TIP3    H129090   2.519   4.064   0.835 -1.5098 -0.3775 -0.3767
 2533TIP3    H229091   2.450   4.114   0.961 -2.4228 -1.3488 -0.4878
 2534TIP3   OH229092   3.965   0.027   5.801  0.4332 -0.7097  0.8710
 2534TIP3    H129093   4.059   0.010   5.788  0.3576 -0.9771  0.6897
 2534TIP3    H229094   3.959   0.123   5.804  0.5790 -0.6661 -0.0477
 2535TIP3   OH229095   4.080   5.792   5.030 -0.2263 -0.2767 -0.5368
 2535TIP3    H129096   4.080   5.717   5.089  1.1472 -0.1049 -0.2851
 2535TIP3    H229097   4.165   5.834   5.045 -1.2660  1.7524 -0.1436
 2536TIP3   OH229098   3.342   3.883  11.696 -0.3348  0.9101 -0.0187
 2536TIP3    H129099   3.375   3.933  11.621 -0.7010  0.4446 -0.4892
 2536TIP3    H229100   3.419   3.835  11.728 -0.4005  0.3413 -0.7065
 2537TIP3   OH229101   5.455   4.298   1.553 -0.4312  0.5408 -0.5256
 2537TIP3    H129102   5.425   4.303   1.644 -1.7143  0.3987 -0.9237
 2537TIP3    H229103   5.413   4.218   1.519  1.5521 -0.4535 -0.7056
 2538TIP3   OH229104   4.360   0.919   2.469  0.9552 -0.1151 -0.1440
 2538TIP3    H129105   4.359   0.828   2.497 -0.2609 -0.0348  0.1055
 2538TIP3    H229106   4.352   0.969   2.551 -2.4665  0.1239 -0.5659
 2539TIP3   OH229107   3.284   1.963  15.522  0.1222 -0.0398 -0.7162
 2539TIP3    H129108   3.242   1.984  15.605  0.2315  0.3113 -0.7468
 2539TIP3    H229109   3.309   1.871  15.530  1.8965  0.5187  0.3916
 2540TIP3   OH229110   2.739   5.492   3.433 -0.7216  0.5488 -0.5187
 2540TIP3    H129111   2.661   5.444   3.458 -0.8966  0.7415 -0.6901
 2540TIP3    H229112   2.796   5.426   3.393 -1.7148  0.8059 -2.4342
 2541TIP3   OH229113   3.634   0.244  13.767 -0.5489  0.6904 -0.1452
 2541TIP3    H129114   3.616   0.301  13.692 -2.5017  0.6418  0.2506
 2541TIP3    H229115   3.579   0.279  13.837 -1.8281 -1.7032  0.1010
 2542TIP3   OH229116   0.610   0.024  13.111  0.0740 -0.1642  0.1964
 2542TIP3    H129117   0.625   0.074  13.192  0.1742 -0.8091  0.5757
 2542TIP3    H229118   0.520  -0.007  13.119  0.3114 -0.8180  0.3876
 2543TIP3   OH229119   2.930   2.023   3.761  0.5207  0.5474 -0.2459
 2543TIP3    H129120   2.852   2.054   3.808  0.6795 -0.1609  0.4759
 2543TIP3    H229121   2.907   2.035   3.668 -0.1035  1.1738 -0.0217
 2544TIP3   OH229122   2.826   1.481  13.681 -0.5277 -0.2938 -0.3169
 2544TIP3    H129123   2.851   1.438  13.600 -1.1258 -0.7140 -0.2841
 2544TIP3    H229124   2.903   1.475  13.737 -0.8923 -2.1142  0.0180
 2545TIP3   OH229125   1.654   4.507   5.850  0.3198  0.4098  0.4897
 2545TIP3    H129126   1.612   4.535   5.769 -1.1805 -0.4349  0.9618
 2545TIP3    H229127   1.747   4.523   5.835  0.0064  0.7712 -1.1865
 2546TIP3   OH229128   3.040   6.070   1.230 -0.6457 -0.3625  0.0697
 2546TIP3    H129129   3.099   6.025   1.290  0.8210 -1.2753 -1.9615
 2546TIP3    H229130   2.982   6.122   1.286 -0.2003 -2.1945  2.2952
 2547TIP3   OH229131   0.880   4.338  11.012 -0.2646 -0.0165  0.0811
 2547TIP3    H129132   0.796   4.375  11.038 -0.4101 -2.0507  2.5901
 2547TIP3    H229133   0.864   4.245  11.001  2.1329 -0.7959  2.7292
 2548TIP3   OH229134   6.068   0.478   3.816  0.0538 -0.3704 -0.3118
 2548TIP3    H129135   6.150   0.461   3.769 -0.5641 -1.7252 -0.9221
 2548TIP3    H229136   6.050   0.571   3.799  2.3197  0.3898  1.2273
 2549TIP3   OH229137   1.093   4.029  11.343 -0.4644  0.2737 -0.7034
 2549TIP3    H129138   1.101   4.100  11.406 -0.3191  0.4359 -0.9033
 2549TIP3    H229139   1.024   4.057  11.283  0.1802  0.6328 -1.2884
 2550TIP3   OH229140   4.709   3.584   2.339  0.1825  0.0958 -0.2032
 2550TIP3    H129141   4.791   3.607   2.295  0.4507  1.2642  0.8593
 2550TIP3    H229142   4.696   3.491   2.320  1.3053  0.1159 -1.1012
 2551TIP3   OH229143   3.382   2.735   4.806 -0.3304 -0.5706 -0.2269
 2551TIP3    H129144   3.456   2.789   4.779  0.0704  0.4195  2.6448
 2551TIP3    H229145   3.323   2.735   4.731  0.5983  2.2185 -1.0038
 2552TIP3   OH229146   1.698   6.802  11.522  0.3615 -0.4906 -0.1937
 2552TIP3    H129147   1.662   6.723  11.483  2.2886 -1.6724  0.3231
 2552TIP3    H229148   1.793   6.787  11.524  0.6196  1.0939  1.5013
 2553TIP3   OH229149   1.468   5.431   1.692 -0.1084  0.2890 -0.3248
 2553TIP3    H129150   1.445   5.397   1.778  2.0096 -0.5278 -0.0623
 2553TIP3    H229151   1.406   5.502   1.677 -1.6198 -0.6981  1.1057
 2554TIP3   OH229152   3.243   0.866   3.859 -0.3449  0.1528 -0.3489
 2554TIP3    H129153   3.213   0.892   3.772 -0.4937  1.9999  0.2361
 2554TIP3    H229154   3.337   0.885   3.859 -0.3268  0.0703 -0.1452
 2555TIP3   OH229155   1.180   2.606  13.508  0.0043 -0.2037  0.5049
 2555TIP3    H129156   1.183   2.541  13.438 -1.4978 -0.7699  0.9454
 2555TIP3    H229157   1.260   2.658  13.496  0.6718 -1.4363 -0.5087
 2556TIP3   OH229158   6.089   4.459  11.860 -0.4323 -0.6724 -0.6918
 2556TIP3    H129159   6.013   4.507  11.828  0.7705  1.0085 -1.0926
 2556TIP3    H229160   6.142   4.525  11.904  0.4521 -1.9671  0.2343
 2557TIP3   OH229161   0.358   4.492  13.011  0.5829  0.2940  0.4688
 2557TIP3    H129162   0.383   4.408  12.970  0.5950  0.9712 -0.9304
 2557TIP3    H229163   0.262   4.491  13.012  0.5713  0.5910 -0.2397
 2558TIP3   OH229164   1.802   3.812  11.549  0.2950 -0.2583  0.5614
 2558TIP3    H129165   1.869   3.875  11.525  0.4291 -0.6759 -0.1464
 2558TIP3    H229166   1.721   3.864  11.554  0.0182 -0.3863 -2.0418
 2559TIP3   OH229167   1.189   0.550  14.083 -0.6036  0.2623  0.2402
 2559TIP3    H129168   1.134   0.542  14.161  0.0626 -1.0985  0.5890
 2559TIP3    H229169   1.246   0.473  14.086  0.1247  0.7376 -1.0484
 2560TIP3   OH229170   1.763   2.551  16.119 -0.0149 -0.1114 -0.1334
 2560TIP3    H129171   1.735   2.461  16.134  0.9941 -0.5242 -0.6298
 2560TIP3    H229172   1.811   2.574  16.198  1.2986 -0.6589 -0.7573
 2561TIP3   OH229173   4.483   4.832  16.770  0.0172 -0.1574 -0.5384
 2561TIP3    H129174   4.419   4.855  16.702  1.6049 -2.6020 -2.9379
 2561TIP3    H229175   4.563   4.877  16.744  0.9368 -1.9618 -0.9043
 2562TIP3   OH229176   4.684   0.139   0.365 -0.1708  0.3268  0.1115
 2562TIP3    H129177   4.621   0.123   0.295  1.7158  0.0601 -1.5510
 2562TIP3    H229178   4.661   0.075   0.433 -1.8650  0.4418 -0.3273
 2563TIP3   OH229179   0.556   4.018  15.678 -0.0592  0.5333 -0.0192
 2563TIP3    H129180   0.521   4.036  15.591  0.3294  1.9436  0.1043
 2563TIP3    H229181   0.489   3.965  15.721 -0.1093 -0.4620 -1.2776
 2564TIP3   OH229182   3.437   1.091   5.396  0.8241 -0.2468 -0.0411
 2564TIP3    H129183   3.529   1.067   5.388  0.4798 -2.4942  2.0848
 2564TIP3    H229184   3.423   1.103   5.490 -1.4304 -1.6767 -0.1407
 2565TIP3   OH229185   6.090   4.016   4.529 -0.4323 -0.4678  0.2125
 2565TIP3    H129186   6.088   4.080   4.600  1.9715 -1.5391  1.3013
 2565TIP3    H229187   6.030   3.947   4.558  0.4892 -0.8724  1.2027
 2566TIP3   OH229188   6.273   4.268   1.414 -0.5251  0.1512 -0.1164
 2566TIP3    H129189   6.179   4.281   1.404 -0.3315  0.5232 -1.4285
 2566TIP3    H229190   6.282   4.175   1.437 -1.3223  0.5015  1.6902
 2567TIP3   OH229191   4.676   4.413   0.865 -0.2676  0.4958 -0.2186
 2567TIP3    H129192   4.712   4.324   0.873  1.1768  0.7799 -3.0563
 2567TIP3    H229193   4.586   4.400   0.837  0.2738 -0.0757 -1.7370
 2568TIP3   OH229194   1.862   2.624  14.867 -0.2393  0.4219  0.2815
 2568TIP3    H129195   1.895   2.676  14.794 -1.6688 -0.5554 -1.0893
 2568TIP3    H229196   1.925   2.552  14.875 -0.0877  0.5246  0.0154
 2569TIP3   OH229197   1.419   5.562   2.118  0.3969 -0.3045  0.3325
 2569TIP3    H129198   1.493   5.538   2.062  1.4766  0.7993  1.2523
 2569TIP3    H229199   1.446   5.536   2.206 -0.6439 -0.6068  0.5614
 2570TIP3   OH229200   3.917   6.256  13.911  0.1104 -0.2785 -0.4732
 2570TIP3    H129201   3.982   6.237  13.844 -0.0101  1.8896 -1.2678
 2570TIP3    H229202   3.852   6.186  13.904  0.9526 -0.9567 -1.5126
 2571TIP3   OH229203   1.376   6.007  13.883  0.5251  0.3572  0.1168
 2571TIP3    H129204   1.460   5.963  13.868  1.0318  1.4880 -0.4312
 2571TIP3    H229205   1.333   5.955  13.951 -0.0020 -2.4900 -2.2406
 2572TIP3   OH229206   5.979   1.445   6.586 -0.2357  0.2211  0.6188
 2572TIP3    H129207   5.974   1.478   6.675  0.7924 -0.0958  0.7991
 2572TIP3    H229208   6.062   1.397   6.582 -1.0237 -1.1429 -0.0379
 2573TIP3   OH229209   2.718   0.493  14.537  0.2650  0.2701  0.8084
 2573TIP3    H129210   2.764   0.511  14.619  1.2154  1.0464  0.1118
 2573TIP3    H229211   2.625   0.501  14.559  0.5272  0.9300  1.7076
 2574TIP3   OH229212   0.960   5.373  13.189  0.0417  0.3343  0.0785
 2574TIP3    H129213   0.940   5.282  13.213 -0.0412  0.4009  0.2571
 2574TIP3    H229214   0.985   5.415  13.272  0.9504  0.2407 -0.1378
 2575TIP3   OH229215   3.696   1.688   0.292  0.5244 -0.0453  0.3910
 2575TIP3    H129216   3.777   1.647   0.263  1.1875  0.7326  1.1181
 2575TIP3    H229217   3.661   1.628   0.358  1.0016  0.0880  0.7667
 2576TIP3   OH229218   1.694   0.702  11.362 -0.2576  0.2302 -0.4168
 2576TIP3    H129219   1.601   0.715  11.383  0.0088  0.0366  0.9147
 2576TIP3    H229220   1.694   0.628  11.301 -0.9812  0.2962 -0.5033
 2577TIP3   OH229221   5.270   2.546   2.769  0.2040  0.1820 -0.3537
 2577TIP3    H129222   5.208   2.482   2.805  1.6450 -1.5627 -0.9529
 2577TIP3    H229223   5.269   2.531   2.675  0.2130  1.3628 -0.5494
 2578TIP3   OH229224   6.557   1.003  11.657  0.4323  0.3912  0.0546
 2578TIP3    H129225   6.545   1.097  11.647 -1.6923  0.1738  0.2386
 2578TIP3    H229226   6.469   0.966  11.645  0.9533 -1.4251  1.5103
 2579TIP3   OH229227   6.364   1.189  13.976 -0.8706 -0.8489  0.9333
 2579TIP3    H129228   6.381   1.095  13.983 -0.4851 -0.8736 -0.2970
 2579TIP3    H229229   6.274   1.194  13.943 -0.2781 -0.8196 -0.7255
 2580TIP3   OH229230   6.586   3.934  15.909  0.3915 -0.4323 -0.3288
 2580TIP3    H129231   6.517   3.871  15.929  0.1693 -0.8198 -2.2251
 2580TIP3    H229232   6.667   3.892  15.940 -0.2455  0.2828  2.4424
 2581TIP3   OH229233   6.296   4.439   5.226 -0.5838  0.9106  0.0697
 2581TIP3    H129234   6.231   4.478   5.167 -0.6377 -3.0214 -2.7060
 2581TIP3    H229235   6.245   4.381   5.283  0.1023  0.0965 -0.1258
 2582TIP3   OH229236   3.174   4.035   2.596 -0.5253  0.1122  1.1320
 2582TIP3    H129237   3.156   4.053   2.504  0.2866 -1.2050  0.7030
 2582TIP3    H229238   3.107   3.973   2.623 -0.8521  0.6099  1.4758
 2583TIP3   OH229239   1.624   4.759   1.922 -0.5303 -0.4282 -0.1694
 2583TIP3    H129240   1.703   4.808   1.898 -1.7460  1.5209 -0.2984
 2583TIP3    H229241   1.641   4.728   2.011  0.0882  0.6148  0.0908
 2584TIP3   OH229242   1.243   2.608   0.079 -0.2398 -0.0656  0.4772
 2584TIP3    H129243   1.249   2.640  -0.012 -1.6750  1.0871  0.7692
 2584TIP3    H229244   1.174   2.662   0.118 -0.7296 -1.6431  1.8059
 2585TIP3   OH229245   1.574   0.570   6.355  0.2293  0.1421  0.2326
 2585TIP3    H129246   1.648   0.581   6.415  0.0501  0.0248  0.4752
 2585TIP3    H229247   1.544   0.480   6.370 -0.4917  0.4573  0.7409
 2586TIP3   OH229248   4.007   2.706  13.718 -0.0325  0.5282  0.0070
 2586TIP3    H129249   4.055   2.772  13.767 -1.2071  1.4052 -0.0195
 2586TIP3    H229250   4.009   2.629  13.775  0.5443  0.8489  0.4366
 2587TIP3   OH229251   1.801   1.534   3.093  0.3412  0.1352  0.5185
 2587TIP3    H129252   1.740   1.543   3.020 -2.0027 -0.0613  2.4117
 2587TIP3    H229253   1.830   1.443   3.089 -0.2555 -0.0443  0.2128
 2588TIP3   OH229254   5.395   3.093   5.987  0.1209  0.3627 -0.0822
 2588TIP3    H129255   5.478   3.076   6.033  0.6278 -0.2659 -1.2061
 2588TIP3    H229256   5.328   3.058   6.044  0.5892  1.3410  1.0905
 2589TIP3   OH229257   4.597   1.692  13.518 -0.0457  0.2582  0.1590
 2589TIP3    H129258   4.562   1.603  13.527 -1.7459  0.9898  1.0035
 2589TIP3    H229259   4.535   1.747  13.565  1.2484  1.8521  0.0496
 2590TIP3   OH229260   3.706   1.028  13.892 -0.1881  0.0343  0.2790
 2590TIP3    H129261   3.711   1.069  13.806  0.7158 -1.3938 -0.3794
 2590TIP3    H229262   3.796   1.028  13.924 -0.2332 -1.0160  0.4434
 2591TIP3   OH229263   6.239   4.535   0.460 -0.1924  0.4662  0.1307
 2591TIP3    H129264   6.248   4.447   0.424 -1.0870  0.7596 -0.8261
 2591TIP3    H229265   6.249   4.593   0.385 -0.3941  1.1496  0.6259
 2592TIP3   OH229266   1.114   4.094  13.561  0.3709  0.0201  0.6904
 2592TIP3    H129267   1.187   4.140  13.518  0.0241  0.3692  0.4715
 2592TIP3    H229268   1.124   4.115  13.654 -0.7524  1.9229  0.4042
 2593TIP3   OH229269   2.025   2.085   6.457  0.4717 -0.6049 -0.5776
 2593TIP3    H129270   1.999   2.046   6.541  0.3060 -0.9057 -0.7688
 2593TIP3    H229271   1.988   2.174   6.460  1.1386 -0.3458 -0.0018
 2594TIP3   OH229272   3.951   1.241   5.823  0.2127 -0.0798  0.4434
 2594TIP3    H129273   4.022   1.253   5.886 -1.6584  0.2083  2.5723
 2594TIP3    H229274   3.871   1.261   5.873 -1.3532 -0.2701 -1.9126
 2595TIP3   OH229275   2.831   2.161  16.012 -0.0342 -0.0631 -0.9147
 2595TIP3    H129276   2.794   2.122  16.091 -0.7551  2.5135  0.0643
 2595TIP3    H229277   2.843   2.087  15.952 -0.9691 -1.8201  1.0189
 2596TIP3   OH229278   6.698   6.504   2.795  0.3575  0.1605 -0.2976
 2596TIP3    H129279   6.710   6.470   2.884 -1.2981 -1.1404 -0.5533
 2596TIP3    H229280   6.764   6.457   2.743  0.8060  0.3491  0.0963
 2597TIP3   OH229281   3.164   5.494   4.078 -0.5442  0.4586  0.2815
 2597TIP3    H129282   3.135   5.494   3.986 -1.9135 -0.2747  0.6965
 2597TIP3    H229283   3.226   5.421   4.083 -1.4647 -0.3439  0.2253
 2598TIP3   OH229284   6.731   1.064  10.817 -0.3402 -0.5343 -0.7685
 2598TIP3    H129285   6.713   1.090  10.907  0.8784  0.9771 -0.9225
 2598TIP3    H229286   6.695   1.136  10.764  3.5195  1.2292 -1.1891
 2599TIP3   OH229287   0.022   3.283  14.269 -0.0181 -0.1892 -0.3858
 2599TIP3    H129288   0.097   3.333  14.236  1.9560 -1.6336  1.7833
 2599TIP3    H229289   0.055   3.194  14.281 -2.6101 -1.3185 -1.1559
 2600TIP3   OH229290   0.396   1.474  15.856 -0.3193 -0.1029 -0.5122
 2600TIP3    H129291   0.402   1.537  15.785 -1.1218  0.3079 -0.2269
 2600TIP3    H229292   0.401   1.527  15.936 -1.6025 -0.3241 -0.2694
 2601TIP3   OH229293   1.997   6.606   0.482  0.4260  0.4689  0.1003
 2601TIP3    H129294   1.937   6.560   0.424  0.5496  0.2726  0.1247
 2601TIP3    H229295   2.012   6.691   0.441 -1.7247  1.4558  1.2892
 2602TIP3   OH229296   0.943   0.085  17.199 -0.2848 -0.5135  0.3563
 2602TIP3    H129297   0.848   0.095  17.199 -0.2810 -0.3197  1.7703
 2602TIP3    H229298   0.968   0.100  17.290  1.2500  0.7967 -0.2723
 2603TIP3   OH229299   2.367   6.643  14.948 -0.1556  0.1086  0.0001
 2603TIP3    H129300   2.348   6.552  14.969 -1.1193  0.1276 -0.7660
 2603TIP3    H229301   2.418   6.639  14.867  1.3510  0.1699  0.9224
 2604TIP3   OH229302   4.227   0.280   4.478  0.6128  0.3183  0.1055
 2604TIP3    H129303   4.320   0.279   4.498 -0.0145  2.0991  3.4410
 2604TIP3    H229304   4.204   0.372   4.471 -1.4138  0.0200  2.1693
 2605TIP3   OH229305   2.595   4.121   6.228 -0.0221 -0.3561  0.5620
 2605TIP3    H129306   2.597   4.214   6.207  1.8369 -1.2228 -3.6532
 2605TIP3    H229307   2.686   4.098   6.244 -0.0839 -1.9226 -1.0920
 2606TIP3   OH229308   2.070   1.168  15.217  0.0235 -0.6776 -0.1010
 2606TIP3    H129309   1.985   1.186  15.178  0.4600  0.0612 -0.7050
 2606TIP3    H229310   2.065   1.207  15.305 -0.2927 -0.7197 -0.1002
 2607TIP3   OH229311   3.102   4.105  13.778  0.3481 -0.4792  0.3677
 2607TIP3    H129312   3.069   4.024  13.738  1.1899 -0.0516 -1.2265
 2607TIP3    H229313   3.023   4.156  13.797 -0.0427 -0.3407 -1.5307
 2608TIP3   OH229314   6.492   2.394   0.849 -0.0179 -0.0623  0.6474
 2608TIP3    H129315   6.555   2.452   0.893 -0.3846 -0.0664  1.1921
 2608TIP3    H229316   6.452   2.448   0.781 -0.4918  0.3817  1.2761
 2609TIP3   OH229317   3.137   1.856  14.518 -0.3094  0.5250 -0.6907
 2609TIP3    H129318   3.232   1.860  14.510 -0.3244  0.6764 -0.7993
 2609TIP3    H229319   3.105   1.914  14.448 -0.4498  1.9839  0.5579
 2610TIP3   OH229320   1.967   2.011   6.720  0.1462  0.0025  0.2929
 2610TIP3    H129321   2.058   2.015   6.749  0.7784 -0.5845 -1.5002
 2610TIP3    H229322   1.919   1.975   6.794  0.5685  4.6561  3.0121
 2611TIP3   OH229323   6.574   5.253  15.960  0.1391  0.3676 -0.1065
 2611TIP3    H129324   6.539   5.278  15.874 -1.1829 -1.0005  0.0152
 2611TIP3    H229325   6.511   5.189  15.993  1.8428 -0.8080  0.9164
 2612TIP3   OH229326   4.853   2.421  16.947 -0.2234  0.0161 -0.3599
 2612TIP3    H129327   4.776   2.477  16.942  0.0121  0.3461 -0.2889
 2612TIP3    H229328   4.891   2.439  17.033  1.8705  2.4014 -1.7259
 2613TIP3   OH229329   3.901   3.043   4.382  0.8433 -0.1677  0.5293
 2613TIP3    H129330   3.812   3.008   4.377  0.5952  0.4938  0.2728
 2613TIP3    H229331   3.931   3.045   4.291  1.9816 -2.5577  0.7959
 2614TIP3   OH229332   1.230   6.717  13.521 -0.6211 -0.2783 -1.0495
 2614TIP3    H129333   1.273   6.792  13.480 -0.4402  1.8164  2.7481
 2614TIP3    H229334   1.141   6.746  13.538 -1.1810 -1.7056 -1.4906
 2615TIP3   OH229335   3.396   5.373   2.669  0.7432  0.4960  0.0227
 2615TIP3    H129336   3.489   5.363   2.692  1.0768 -1.0953 -1.8833
 2615TIP3    H229337   3.385   5.467   2.656  1.4990  0.9779  2.6022
 2616TIP3   OH229338   2.326   3.310  13.570 -0.3211 -0.0537 -0.1083
 2616TIP3    H129339   2.312   3.235  13.513  1.4409 -0.1718 -0.3937
 2616TIP3    H229340   2.260   3.374  13.542 -0.9752 -0.9786 -0.7208
 2617TIP3   OH229341   5.717   1.953  13.109 -0.5854  0.0845 -0.7807
 2617TIP3    H129342   5.810   1.934  13.123 -0.7143 -0.1105 -0.1745
 2617TIP3    H229343   5.688   1.993  13.191 -1.2411 -0.6396 -0.6548
 2618TIP3   OH229344   6.661   6.691   0.716 -0.3243  0.5684  0.5425
 2618TIP3    H129345   6.644   6.758   0.783  1.2342  2.3920 -0.8254
 2618TIP3    H229346   6.613   6.722   0.639  0.8561  0.3941 -0.2656
 2619TIP3   OH229347   6.090   5.512  12.993 -0.2241 -0.6352  0.0570
 2619TIP3    H129348   6.168   5.509  13.048 -0.5447  1.3892  0.6626
 2619TIP3    H229349   6.082   5.604  12.968 -2.6709 -0.7537  0.3591
 2620TIP3   OH229350   2.060   2.273   5.642  0.0574  0.2285  0.0998
 2620TIP3    H129351   2.012   2.350   5.671 -2.3149 -1.9317  2.1638
 2620TIP3    H229352   2.089   2.231   5.723  0.3915 -1.5919 -0.9391
 2621TIP3   OH229353   4.005   2.369   6.153 -0.3612  0.1172 -0.2484
 2621TIP3    H129354   4.005   2.307   6.226  0.1527  1.9714  1.3741
 2621TIP3    H229355   3.994   2.455   6.195 -0.5276  1.1731 -2.3995
 2622TIP3   OH229356   3.409   3.687   0.757  0.0135 -0.0871  0.4860
 2622TIP3    H129357   3.336   3.627   0.774 -0.8438  0.8212  0.0808
 2622TIP3    H229358   3.466   3.638   0.698 -0.7077 -0.4891  0.1099
 2623TIP3   OH229359   0.375   0.204  13.609 -0.7974  0.2876  0.2881
 2623TIP3    H129360   0.451   0.260  13.622  0.2778 -0.6580 -1.6010
 2623TIP3    H229361   0.315   0.228  13.679  3.0753 -2.0878  4.7174
 2624TIP3   OH229362   3.103   0.004  14.992  0.3048  0.5089 -0.1124
 2624TIP3    H129363   3.071   0.045  14.911 -0.1619 -1.5587 -1.0093
 2624TIP3    H229364   3.155  -0.071  14.961  0.4624 -0.0536  1.4966
 2625TIP3   OH229365   1.317   0.114  14.532 -0.9851  0.0103  0.0459
 2625TIP3    H129366   1.285   0.024  14.537 -1.6443  0.2328 -0.1333
 2625TIP3    H229367   1.408   0.108  14.561 -0.8725 -0.7866 -0.4429
 2626TIP3   OH229368   3.655   2.678  13.027  0.3884 -0.0722  0.5127
 2626TIP3    H129369   3.661   2.740  12.955  0.0684  0.3902  0.8789
 2626TIP3    H229370   3.718   2.710  13.092 -0.0197  0.0601  0.8455
 2627TIP3   OH229371   0.444   2.204  17.008 -0.3054  0.0782 -0.3041
 2627TIP3    H129372   0.475   2.289  16.975  0.5209 -0.0732  0.0735
 2627TIP3    H229373   0.521   2.165  17.051 -1.0492 -0.2439  0.7595
 2628TIP3   OH229374   5.086   1.725  15.367 -0.4522 -0.2574  0.1302
 2628TIP3    H129375   5.005   1.688  15.330 -0.3762 -0.0203 -0.2805
 2628TIP3    H229376   5.057   1.775  15.442 -0.8363  0.8133 -0.7179
 2629TIP3   OH229377   4.831   3.613   5.122  0.3954 -0.0313  0.4075
 2629TIP3    H129378   4.764   3.653   5.178  0.7634  0.7871  0.2686
 2629TIP3    H229379   4.914   3.640   5.161  0.6816  1.6812 -1.2860
 2630TIP3   OH229380   3.688   1.761  13.542  0.4684  0.5911 -0.0518
 2630TIP3    H129381   3.747   1.836  13.531 -0.3740  1.3731  0.6534
 2630TIP3    H229382   3.613   1.781  13.485  1.1554 -0.6918 -1.4210
 2631TIP3   OH229383   1.302   0.386   2.478  0.4856  0.1673  0.1318
 2631TIP3    H129384   1.249   0.334   2.538  0.8539 -0.7329 -0.3090
 2631TIP3    H229385   1.240   0.445   2.435 -0.3467 -1.6053 -1.1704
 2632TIP3   OH229386   2.172   4.870   2.022 -0.1090  0.2455 -0.2715
 2632TIP3    H129387   2.152   4.818   1.944  1.7186 -0.1575 -0.4777
 2632TIP3    H229388   2.212   4.950   1.988  2.3177 -0.6771  0.2953
 2633TIP3   OH229389   3.695   1.757  15.267 -0.5030  0.0394 -0.1773
 2633TIP3    H129390   3.740   1.812  15.203  0.1283 -0.3061 -0.0386
 2633TIP3    H229391   3.760   1.691  15.292 -0.7102  0.2296  0.8881
 2634TIP3   OH229392   3.381   1.416  12.546 -0.1095 -0.2236  0.0502
 2634TIP3    H129393   3.476   1.428  12.557 -0.2453  2.3901 -1.1494
 2634TIP3    H229394   3.345   1.438  12.632  0.2546  0.7464 -0.0308
 2635TIP3   OH229395   1.152   0.407  13.496 -0.0042  0.1546  0.0777
 2635TIP3    H129396   1.137   0.353  13.573 -2.0678 -1.4294 -1.3712
 2635TIP3    H229397   1.241   0.441  13.506  0.5751 -1.8937  2.0010
 2636TIP3   OH229398   5.410   3.065  12.040  0.6484  0.1910 -0.1259
 2636TIP3    H129399   5.495   3.081  12.082  1.5628 -0.6557 -1.5892
 2636TIP3    H229400   5.348   3.057  12.112  1.6796  1.5302  0.9492
 2637TIP3   OH229401   0.326   2.024  12.233 -0.1209  0.0354  0.5174
 2637TIP3    H129402   0.334   2.078  12.155 -0.4501  0.5215  0.8192
 2637TIP3    H229403   0.404   1.968  12.232  0.8019  1.2961  0.7952
 2638TIP3   OH229404   4.336   5.287   3.035 -0.2319 -0.1550  0.1523
 2638TIP3    H129405   4.407   5.293   2.971  1.3073 -0.5848  1.7593
 2638TIP3    H229406   4.296   5.201   3.019  0.9275 -0.7785  0.5510
 2639TIP3   OH229407   3.511   6.798   2.148  0.2451  0.2195 -1.0240
 2639TIP3    H129408   3.415   6.799   2.156  0.2297  2.2239 -1.2761
 2639TIP3    H229409   3.527   6.783   2.055  0.2101 -1.0652 -0.8399
 2640TIP3   OH229410   3.115   4.402  17.143 -0.1825 -0.6375 -0.9199
 2640TIP3    H129411   3.121   4.470  17.076  1.9430  1.4000  1.2470
 2640TIP3    H229412   3.053   4.436  17.207 -0.2567 -1.4243 -0.5627
 2641TIP3   OH229413   2.238   5.853   0.234 -0.2781 -0.2757  0.2417
 2641TIP3    H129414   2.212   5.859   0.326 -1.6454 -1.5114 -0.0405
 2641TIP3    H229415   2.227   5.760   0.213 -0.3755  0.0745 -1.2841
 2642TIP3   OH229416   1.097   3.643   2.253  0.1610  0.1588 -0.3302
 2642TIP3    H129417   1.182   3.686   2.260  0.4615 -0.4005 -0.4445
 2642TIP3    H229418   1.109   3.578   2.183 -0.6666  0.7751 -1.0404
 2643TIP3   OH229419   0.293   4.617   5.338  0.1481  0.3536  0.7276
 2643TIP3    H129420   0.221   4.576   5.386  1.3017 -2.2702  0.2545
 2643TIP3    H229421   0.336   4.546   5.292  1.5030  2.2685 -1.0727
 2644TIP3   OH229422   4.935   3.497   6.708 -0.4169 -0.1344  0.4658
 2644TIP3    H129423   4.953   3.424   6.649 -0.9040 -1.6864  2.2069
 2644TIP3    H229424   4.902   3.456   6.788 -1.4562  2.0359  1.1815
 2645TIP3   OH229425   5.376   2.203  14.823 -0.7215 -0.3832 -0.4015
 2645TIP3    H129426   5.408   2.259  14.752 -1.7104  0.6258 -0.0767
 2645TIP3    H229427   5.445   2.207  14.889  0.5880 -2.0150 -1.6475
 2646TIP3   OH229428   5.610   6.127   0.116 -0.5572  0.4204  0.0595
 2646TIP3    H129429   5.618   6.222   0.124  1.6209  0.3519 -0.7418
 2646TIP3    H229430   5.542   6.103   0.178 -0.0786  2.3488  1.3812
 2647TIP3   OH229431   0.614   0.384   3.024 -0.1253  0.1260 -0.1681
 2647TIP3    H129432   0.520   0.402   3.027  0.0975  1.5005 -1.1504
 2647TIP3    H229433   0.639   0.373   3.115 -1.3724 -0.9782  0.0581
 2648TIP3   OH229434   4.645   5.163   1.151 -0.5991 -0.3579 -0.0605
 2648TIP3    H129435   4.727   5.121   1.179 -1.7784 -1.9597  1.1202
 2648TIP3    H229436   4.669   5.254   1.135  1.3226 -0.6942  0.7109
 2649TIP3   OH229437   2.262   0.397  14.659 -0.6403  0.3922  0.4651
 2649TIP3    H129438   2.212   0.396  14.577 -2.4926  0.7253  1.5730
 2649TIP3    H229439   2.282   0.305  14.676  0.5083  0.3879 -0.7935
 2650TIP3   OH229440   4.415   1.133   3.340  0.2936 -0.3462  0.4791
 2650TIP3    H129441   4.421   1.070   3.412 -0.7821 -0.2769  0.6397
 2650TIP3    H229442   4.367   1.086   3.271 -0.1134  0.1378  0.4286
 2651TIP3   OH229443   2.187   3.771  14.864  0.0210 -0.1598 -0.4392
 2651TIP3    H129444   2.275   3.733  14.860  0.2901  0.1935  1.8474
 2651TIP3    H229445   2.133   3.704  14.904 -0.1137  0.7524  0.9219
 2652TIP3   OH229446   1.356   6.112  11.052  0.1698 -0.1229 -0.7957
 2652TIP3    H129447   1.262   6.106  11.040  0.0702 -0.3440  0.0763
 2652TIP3    H229448   1.385   6.022  11.064  1.1767 -0.6308 -5.8074
 2653TIP3   OH229449   3.755   2.455  14.344 -0.1368  0.2620  0.3298
 2653TIP3    H129450   3.736   2.367  14.309 -0.8420  0.6343 -0.2368
 2653TIP3    H229451   3.842   2.447  14.381 -0.4870 -0.8807  0.9348
 2654TIP3   OH229452   4.470   3.064   4.061 -0.6490 -0.1396  0.2123
 2654TIP3    H129453   4.544   3.024   4.106  0.8160  2.6363  0.3945
 2654TIP3    H229454   4.403   3.074   4.128  0.3313  1.0155  1.0450
 2655TIP3   OH229455   4.248   2.650  16.120 -0.5697  0.3981 -0.0047
 2655TIP3    H129456   4.202   2.614  16.044  0.0213  0.2276 -0.2786
 2655TIP3    H229457   4.336   2.670  16.088 -0.5947  1.1662  0.4012
 2656TIP3   OH229458   6.636   4.019  11.726  0.1435  0.0206  0.5943
 2656TIP3    H129459   6.616   3.947  11.666  3.7037 -0.0722 -0.6626
 2656TIP3    H229460   6.583   4.003  11.803 -1.0953 -2.4630 -0.7293
 2657TIP3   OH229461   5.846   5.250   1.258  0.3010 -0.9897  0.7962
 2657TIP3    H129462   5.856   5.333   1.303  0.5731 -1.5750  1.8437
 2657TIP3    H229463   5.775   5.264   1.195  1.1448  0.3637  0.1500
 2658TIP3   OH229464   1.179   3.326  13.661  0.2551  0.2227 -0.0582
 2658TIP3    H129465   1.215   3.300  13.745 -0.3794  2.5568  0.9683
 2658TIP3    H229466   1.151   3.244  13.621  1.2991 -0.9964  1.6424
 2659TIP3   OH229467   6.692   3.439  14.685  0.2268 -0.0638  0.0501
 2659TIP3    H129468   6.611   3.427  14.635 -0.3962  1.5906  0.6388
 2659TIP3    H229469   6.761   3.407  14.626 -0.6884  0.0030 -1.0816
 2660TIP3   OH229470   3.792   2.245  16.341  0.0715  0.1461  0.1573
 2660TIP3    H129471   3.783   2.339  16.356 -2.0181 -0.3683  2.6364
 2660TIP3    H229472   3.742   2.228  16.261  1.3012  1.2755 -0.8581
 2661TIP3   OH229473   3.904   6.069  14.409  0.0990  0.7338  0.1051
 2661TIP3    H129474   3.975   6.131  14.392  0.1825 -0.2910 -3.7540
 2661TIP3    H229475   3.947   5.984  14.413 -0.4396  0.5117  2.1436
 2662TIP3   OH229476   5.116   0.022  17.039  0.4592  0.5240  0.5672
 2662TIP3    H129477   5.084  -0.001  17.126  0.6162  0.6243  0.6524
 2662TIP3    H229478   5.211   0.008  17.044  0.1880 -1.6543 -0.2919
 2663TIP3   OH229479   4.762   2.781  15.011  0.3979  0.5539  0.3032
 2663TIP3    H129480   4.750   2.692  14.978 -1.3286  1.3329 -1.2386
 2663TIP3    H229481   4.673   2.813  15.026  1.0209  1.9502  1.0927
 2664TIP3   OH229482   6.371   5.388  12.747 -0.5051 -0.0086  0.0460
 2664TIP3    H129483   6.303   5.379  12.814  0.6181 -1.7379  0.9999
 2664TIP3    H229484   6.323   5.404  12.666 -1.8801  2.9965  1.3369
 2665TIP3   OH229485   2.151   0.962   4.096 -0.2108  0.2730 -0.6385
 2665TIP3    H129486   2.120   1.015   4.024  1.3296  0.5895 -1.0807
 2665TIP3    H229487   2.246   0.954   4.082 -0.1387 -1.0521  0.4151
 2666TIP3   OH229488   2.021   3.140   1.098 -0.5694  0.4482  0.1835
 2666TIP3    H129489   1.983   3.193   1.169  1.5978  1.0313  0.9687
 2666TIP3    H229490   2.034   3.203   1.027 -0.6963  0.3406  0.0659
 2667TIP3   OH229491   2.552   3.850   4.881 -0.5624 -0.0550  0.5513
 2667TIP3    H129492   2.557   3.755   4.880  1.4930  0.0211 -1.5745
 2667TIP3    H229493   2.475   3.870   4.827 -0.3314 -0.4930  0.0585
 2668TIP3   OH229494   2.011   1.477  15.234 -0.5594 -0.5930  0.1840
 2668TIP3    H129495   1.961   1.433  15.303 -1.4527  1.2292  0.7221
 2668TIP3    H229496   2.018   1.568  15.264 -0.7494  0.1694 -2.0184
 2669TIP3   OH229497   1.898   0.051  15.167  0.3077 -0.6189  0.9187
 2669TIP3    H129498   1.896   0.109  15.244 -0.2505 -0.6350  0.9145
 2669TIP3    H229499   1.843  -0.023  15.192 -0.7050 -0.1456  0.1199
 2670TIP3   OH229500   0.023   3.978  11.302  0.0921 -0.7480 -0.4024
 2670TIP3    H129501   0.011   4.071  11.322 -0.2057 -1.2788  2.0156
 2670TIP3    H229502  -0.063   3.949  11.271  0.2235 -0.1916 -1.2996
 2671TIP3   OH229503   5.415   0.310   2.651  0.1369 -0.1267  0.2464
 2671TIP3    H129504   5.365   0.298   2.570  0.3788  1.4498 -0.1584
 2671TIP3    H229505   5.361   0.370   2.704  1.0780  0.7251  0.2528
 2672TIP3   OH229506   6.111   4.112  15.459 -0.0758  0.7713 -0.1166
 2672TIP3    H129507   6.093   4.056  15.534 -3.7682 -0.1725 -1.5841
 2672TIP3    H229508   6.124   4.199  15.497  0.6537 -0.1335  1.7754
 2673TIP3   OH229509   6.138   3.106  14.461  0.1913  0.0458 -0.9769
 2673TIP3    H129510   6.043   3.104  14.465  0.1846 -2.1853 -1.6605
 2673TIP3    H229511   6.162   3.027  14.413  2.4470 -0.1972  0.4754
 2674TIP3   OH229512   6.063   0.440  13.066  0.0237 -0.1706 -0.1836
 2674TIP3    H129513   6.029   0.515  13.115 -0.6766 -0.5509 -0.0789
 2674TIP3    H229514   6.113   0.479  12.994 -1.1987  0.4180 -0.7405
 2675TIP3   OH229515   3.532   4.777  12.441 -0.0965 -0.1116 -0.6069
 2675TIP3    H129516   3.545   4.683  12.451  0.9813  0.2642  1.8136
 2675TIP3    H229517   3.557   4.814  12.526 -4.4733  1.9920 -0.1206
 2676TIP3   OH229518   5.121   1.607   1.115  0.1366 -0.3573  0.0193
 2676TIP3    H129519   5.178   1.534   1.090 -0.9643 -1.1595 -0.1782
 2676TIP3    H229520   5.071   1.627   1.036 -0.0338  0.1870  0.2602
 2677TIP3   OH229521   3.286   2.725   3.561 -0.5205  0.8454  0.2298
 2677TIP3    H129522   3.357   2.731   3.625  0.1200 -1.1637 -0.2555
 2677TIP3    H229523   3.243   2.641   3.580  0.3811 -0.3121 -2.6487
 2678TIP3   OH229524   5.413   2.091   4.002 -0.6891  0.0129 -0.1521
 2678TIP3    H129525   5.477   2.161   4.014 -1.8854  1.5568 -2.4903
 2678TIP3    H229526   5.453   2.032   3.939 -0.3749 -0.5780  0.5858
 2679TIP3   OH229527   2.167   1.458  15.677 -1.1227 -0.0773  0.3878
 2679TIP3    H129528   2.173   1.419  15.764  0.4817  2.9185  1.6948
 2679TIP3    H229529   2.242   1.517  15.672 -0.5299 -1.0800 -3.5120
 2680TIP3   OH229530   3.343   5.162   0.782  0.6509  0.0805  0.0160
 2680TIP3    H129531   3.272   5.218   0.750  0.1111 -0.4068  0.3618
 2680TIP3    H229532   3.299   5.085   0.818  1.4674 -1.6225 -2.4587
 2681TIP3   OH229533   6.550   2.908  14.640  0.7281 -0.1002 -0.6370
 2681TIP3    H129534   6.586   2.977  14.695 -1.3235  0.3658  0.1814
 2681TIP3    H229535   6.563   2.939  14.550  2.3711  0.0162 -0.3788
 2682TIP3   OH229536   1.245   0.179  13.909  0.0927  0.2156  0.2153
 2682TIP3    H129537   1.329   0.209  13.874  0.7837 -0.8801  0.8796
 2682TIP3    H229538   1.267   0.143  13.995 -1.1746  0.5341  0.6835
 2683TIP3   OH229539   5.482   0.821  11.445 -0.2368  0.2565 -0.3405
 2683TIP3    H129540   5.494   0.726  11.439  1.0342  0.3849 -0.1749
 2683TIP3    H229541   5.410   0.833  11.507 -0.0176 -0.5940  0.0889
 2684TIP3   OH229542   4.167   1.693  16.851  0.2156  0.1795 -0.0949
 2684TIP3    H129543   4.101   1.643  16.804 -1.3822  2.2270 -0.1069
 2684TIP3    H229544   4.238   1.706  16.788  1.2019 -3.0243  0.2712
 2685TIP3   OH229545   4.317   2.584   3.543 -0.4399 -0.7128  0.4376
 2685TIP3    H129546   4.285   2.670   3.570  2.9054  1.1485 -1.0852
 2685TIP3    H229547   4.283   2.572   3.455 -0.7153 -0.8061  0.5591
 2686TIP3   OH229548   2.787   3.007  13.370 -0.0990  0.0112  0.2756
 2686TIP3    H129549   2.826   2.997  13.283 -0.1625  0.6808  0.1620
 2686TIP3    H229550   2.702   3.047  13.352  0.2820  1.0234  0.7149
 2687TIP3   OH229551   6.671   4.537   5.454  0.0158  0.2212 -0.0808
 2687TIP3    H129552   6.620   4.590   5.515 -1.3931 -0.3597 -0.7150
 2687TIP3    H229553   6.620   4.456   5.445  1.3887 -0.6485 -0.2371
 2688TIP3   OH229554   3.493   2.967   2.295  0.1638  0.3975 -0.2988
 2688TIP3    H129555   3.401   2.990   2.282 -0.2227 -0.8785  0.0974
 2688TIP3    H229556   3.499   2.875   2.269  1.5394  0.7253 -1.2416
 2689TIP3   OH229557   1.749   6.119   5.293 -0.3284 -0.1786  0.3774
 2689TIP3    H129558   1.762   6.056   5.221  0.0900  2.0674 -1.5569
 2689TIP3    H229559   1.824   6.178   5.287 -2.2410  2.2857  0.2771
 2690TIP3   OH229560   0.072   2.372   4.031  0.0700 -0.8026  0.1853
 2690TIP3    H129561   0.102   2.370   3.940  1.4774 -1.4014  0.6494
 2690TIP3    H229562  -0.019   2.342   4.027 -0.3612  0.6392 -1.2022
 2691TIP3   OH229563   4.187   4.134  13.295  0.2010 -0.3215  0.2809
 2691TIP3    H129564   4.227   4.047  13.289 -0.8990 -0.6836 -2.4973
 2691TIP3    H229565   4.103   4.126  13.250 -0.8977  1.6573  1.8759
 2692TIP3   OH229566   1.239   4.985   1.657 -0.1868 -0.0640  0.2303
 2692TIP3    H129567   1.251   5.075   1.627 -0.0740 -0.7146 -1.7367
 2692TIP3    H229568   1.160   4.988   1.710 -0.8078  1.0036 -0.7285
 2693TIP3   OH229569   4.797   1.585   3.580 -0.1545  0.2051  0.3231
 2693TIP3    H129570   4.730   1.574   3.647 -1.9200  0.1864 -1.4215
 2693TIP3    H229571   4.756   1.556   3.498  1.0418  2.7811 -1.2531
 2694TIP3   OH229572   4.423   6.204  17.083  0.0783 -0.2050  0.2175
 2694TIP3    H129573   4.462   6.263  17.019  0.4022 -1.2298 -0.5406
 2694TIP3    H229574   4.428   6.118  17.043  0.1011 -0.8329  1.5385
 2695TIP3   OH229575   3.241   2.432  13.743 -0.1306  0.1817 -0.3002
 2695TIP3    H129576   3.254   2.341  13.771  2.6459 -0.1155 -2.3357
 2695TIP3    H229577   3.263   2.485  13.819 -0.1786 -0.7796  0.3936
 2696TIP3   OH229578   0.667   4.631   2.443  0.0460 -0.6521  0.3444
 2696TIP3    H129579   0.571   4.638   2.438  0.2329  1.3547 -1.0030
 2696TIP3    H229580   0.688   4.550   2.396 -0.8439  0.0131 -1.2263
 2697TIP3   OH229581   1.361   2.183   3.337 -0.5359  0.1241 -0.3839
 2697TIP3    H129582   1.410   2.101   3.347 -1.1168 -0.0526  1.0761
 2697TIP3    H229583   1.429   2.250   3.328  0.0001 -0.1618  1.3478
 2698TIP3   OH229584   1.888   2.344   6.447  0.0540  0.3631 -0.1158
 2698TIP3    H129585   1.947   2.415   6.421  0.2554  0.4776  0.6382
 2698TIP3    H229586   1.810   2.389   6.480 -0.9051  0.2001 -2.1259
 2699TIP3   OH229587   5.595   4.045  14.685 -0.4115 -0.0083  0.2148
 2699TIP3    H129588   5.504   4.022  14.667 -0.9644 -0.1311  2.9131
 2699TIP3    H229589   5.621   3.986  14.755  1.3924  0.8041  0.2582
 2700TIP3   OH229590   3.815   3.749   0.603  0.1784 -0.5252 -0.4087
 2700TIP3    H129591   3.822   3.698   0.683  0.1508 -1.4107 -0.9551
 2700TIP3    H229592   3.874   3.823   0.615  1.0443 -1.2702 -0.0263
 2701TIP3   OH229593   1.134   4.692   0.705  0.5200 -0.7447 -0.4843
 2701TIP3    H129594   1.222   4.720   0.681  0.0543  1.0182 -0.2262
 2701TIP3    H229595   1.078   4.728   0.636  0.0167 -2.1549 -0.8411
 2702TIP3   OH229596   3.346   5.651   3.108  0.5119 -0.0163  0.4149
 2702TIP3    H129597   3.345   5.605   3.023  1.5401  0.4540  0.1399
 2702TIP3    H229598   3.434   5.689   3.113  0.9431 -1.2004  2.3209
 2703TIP3   OH229599   5.007   1.619   5.187 -0.2035 -0.2439  0.1676
 2703TIP3    H129600   5.083   1.637   5.242 -2.2238  1.0022  2.7057
 2703TIP3    H229601   5.030   1.540   5.138  1.6548 -1.4975  2.9409
 2704TIP3   OH229602   3.115   1.498  12.069  0.3397 -0.1345 -0.6956
 2704TIP3    H129603   3.188   1.505  12.130  0.0203  1.8023 -0.5312
 2704TIP3    H229604   3.041   1.538  12.114 -0.3068 -0.1801 -1.6906
 2705TIP3   OH229605   6.629   3.203   4.708  0.7796  0.2474 -0.2016
 2705TIP3    H129606   6.546   3.236   4.673  0.0803 -0.8847  0.3395
 2705TIP3    H229607   6.639   3.117   4.668  1.2497  0.0229  0.3941
 2706TIP3   OH229608   2.542   4.582  13.618  0.0232 -0.0145  0.1197
 2706TIP3    H129609   2.525   4.644  13.548 -0.3178  0.5857  0.7324
 2706TIP3    H229610   2.547   4.635  13.697 -1.2249 -0.8621  0.7890
 2707TIP3   OH229611   3.677   5.649  12.194  0.3892  0.2648 -0.0812
 2707TIP3    H129612   3.614   5.721  12.194  1.1552  0.9655  1.5375
 2707TIP3    H229613   3.628   5.575  12.159 -0.5763  1.4222 -1.2498
 2708TIP3   OH229614   4.960   4.920  11.637 -0.2801 -0.1105  0.4088
 2708TIP3    H129615   4.998   5.007  11.647 -0.1417  0.0122 -1.0548
 2708TIP3    H229616   4.944   4.911  11.543  2.4900 -2.8136  0.1191
 2709TIP3   OH229617   1.353   1.842   0.130  0.3339 -0.1524 -0.3353
 2709TIP3    H129618   1.410   1.844   0.207 -0.9841  2.2004  0.6106
 2709TIP3    H229619   1.309   1.757   0.135  2.0109 -1.0098  0.1939
 2710TIP3   OH229620   6.184   1.656   6.251  0.5457  0.3643 -0.6430
 2710TIP3    H129621   6.235   1.702   6.318 -2.3548  1.2248  1.0307
 2710TIP3    H229622   6.196   1.707   6.172  0.9760  1.4485  0.1162
 2711TIP3   OH229623   5.370   4.178   5.782  0.7291  0.2756 -0.0537
 2711TIP3    H129624   5.319   4.221   5.851  0.8317  0.9438 -0.3889
 2711TIP3    H229625   5.374   4.243   5.712  0.5523 -0.4357 -0.7235
 2712TIP3   OH229626   2.546   4.501   1.912  0.1242  0.4586  0.3886
 2712TIP3    H129627   2.627   4.507   1.862  0.5168  0.2917  1.0081
 2712TIP3    H229628   2.520   4.409   1.905  0.1697  0.4393  0.4818
 2713TIP3   OH229629   4.159   3.293  13.848  0.0256 -0.2140  0.3719
 2713TIP3    H129630   4.241   3.323  13.809  0.1558  2.1718  2.3676
 2713TIP3    H229631   4.186   3.241  13.924 -0.3023 -1.3176 -0.2511
 2714TIP3   OH229632   2.662   0.837  16.534  0.7599  0.0114 -0.3411
 2714TIP3    H129633   2.671   0.747  16.567 -0.9962 -0.4210 -0.9903
 2714TIP3    H229634   2.752   0.865  16.518  1.3292 -1.6595 -0.1903
 2715TIP3   OH229635   2.536   4.256   6.694 -0.0294  0.0741  0.3665
 2715TIP3    H129636   2.493   4.170   6.691 -0.2209  0.2118 -1.0567
 2715TIP3    H229637   2.508   4.300   6.614  2.3607  0.3572 -0.3668
 2716TIP3   OH229638   5.683   1.526  11.395  0.4400  0.3121  0.5187
 2716TIP3    H129639   5.747   1.513  11.325 -1.0382 -0.0284 -0.7968
 2716TIP3    H229640   5.693   1.618  11.419  0.5190  0.6194 -0.6182
 2717TIP3   OH229641   4.023   3.467   0.432 -0.2973 -0.2440 -0.3909
 2717TIP3    H129642   3.956   3.466   0.500  0.1187  0.6562  0.0486
 2717TIP3    H229643   4.075   3.546   0.451 -0.6817  0.4765 -2.2235
 2718TIP3   OH229644   4.533   3.129  15.291 -0.1598  0.8255  0.1272
 2718TIP3    H129645   4.570   3.174  15.367 -0.4225  0.7697  0.2906
 2718TIP3    H229646   4.468   3.189  15.256 -0.9763  0.3112  0.7376
 2719TIP3   OH229647   2.753   6.691   5.386  0.0819 -0.0052 -0.0220
 2719TIP3    H129648   2.847   6.704   5.393  0.3959 -1.0853 -1.9735
 2719TIP3    H229649   2.730   6.640   5.464  1.0376  0.5593  0.6367
 2720TIP3   OH229650   2.832   6.238  12.557  0.0504  0.4295 -0.0352
 2720TIP3    H129651   2.761   6.197  12.507 -0.8675  1.3467  0.4887
 2720TIP3    H229652   2.878   6.165  12.598 -0.0585 -0.2335 -1.0850
 2721TIP3   OH229653   1.504   0.941   2.289 -0.0300  0.5361  0.4308
 2721TIP3    H129654   1.563   0.873   2.256 -0.3754  0.8925 -0.9322
 2721TIP3    H229655   1.550   0.978   2.364  0.5247 -0.6438  0.6859
 2722TIP3   OH229656   4.745   5.437  13.375  0.0929  0.0488 -0.4770
 2722TIP3    H129657   4.752   5.344  13.395 -2.6880 -0.0593  0.2191
 2722TIP3    H229658   4.813   5.478  13.429 -0.9684 -1.2422  1.8966
 2723TIP3   OH229659   6.370   6.366   4.276  0.0133 -1.0545 -0.3098
 2723TIP3    H129660   6.400   6.279   4.301 -0.5202 -1.0943  0.2139
 2723TIP3    H229661   6.421   6.426   4.330  0.9779 -0.9976 -1.2714
 2724TIP3   OH229662   1.273   0.791  15.501 -0.1769 -0.7009 -0.1799
 2724TIP3    H129663   1.224   0.827  15.575  2.1831 -2.1449  2.2026
 2724TIP3    H229664   1.291   0.866  15.445 -1.1403  0.6177  1.2231
 2725TIP3   OH229665   2.107   0.353   4.274 -0.4520  0.1805  0.9361
 2725TIP3    H129666   2.061   0.357   4.358 -2.6714  3.8563 -0.3215
 2725TIP3    H229667   2.177   0.418   4.282 -1.7816  1.8692 -0.5926
 2726TIP3   OH229668   4.129   5.590  13.798 -0.0258  0.3965  0.0081
 2726TIP3    H129669   4.190   5.650  13.840 -0.5091  1.0708 -0.2439
 2726TIP3    H229670   4.093   5.538  13.871  0.7537  0.0789  0.1669
 2727TIP3   OH229671   1.767   5.842  11.245 -0.0885  0.3586 -0.8167
 2727TIP3    H129672   1.691   5.786  11.231 -1.2652  2.3867 -2.8031
 2727TIP3    H229673   1.731   5.931  11.249  1.4465  0.9331  4.4890
 2728TIP3   OH229674   3.184   2.816  15.282  0.0767 -0.4889  0.2105
 2728TIP3    H129675   3.113   2.873  15.310  1.6259  0.8366  1.5238
 2728TIP3    H229676   3.226   2.863  15.210  0.5626 -0.5674  0.4429
 2729TIP3   OH229677   6.704   4.130   4.234  0.1415 -0.0310  0.5393
 2729TIP3    H129678   6.693   4.036   4.247 -1.1447  0.1279  0.6423
 2729TIP3    H229679   6.645   4.170   4.299  2.5601  0.8804  2.2570
 2730TIP3   OH229680   2.973   4.089   5.267  0.6803 -0.1989 -0.3169
 2730TIP3    H129681   2.969   4.111   5.174 -0.5480 -0.2179 -0.2706
 2730TIP3    H229682   2.952   4.171   5.312 -0.6267 -0.6610 -0.0861
 2731TIP3   OH229683   0.679   3.984  16.216 -0.1351 -0.5051  0.3300
 2731TIP3    H129684   0.623   4.029  16.153 -0.9240  0.4285  1.6733
 2731TIP3    H229685   0.618   3.935  16.271  0.6584 -2.7015 -0.6801
 2732TIP3   OH229686   3.475   0.667   5.796  0.0472  0.3920  0.3108
 2732TIP3    H129687   3.521   0.588   5.768 -0.9636 -0.3866  0.8139
 2732TIP3    H229688   3.544   0.723   5.831  0.8723  0.0341 -0.7110
 2733TIP3   OH229689   0.476   4.796   1.944 -0.0996  0.4061 -0.1197
 2733TIP3    H129690   0.539   4.835   1.882  0.3660 -0.8209 -0.4441
 2733TIP3    H229691   0.498   4.703   1.944 -0.8211  0.2310  1.0735
 2734TIP3   OH229692   5.280   0.457   1.454  0.4912  0.1731  0.2127
 2734TIP3    H129693   5.277   0.451   1.359 -0.2888  0.9665  0.1807
 2734TIP3    H229694   5.244   0.374   1.485  0.8607 -0.1362 -0.1831
 2735TIP3   OH229695   0.020   0.711   4.737 -0.0012 -0.2701 -0.0118
 2735TIP3    H129696   0.021   0.796   4.694  0.4329 -1.4785 -2.4823
 2735TIP3    H229697   0.103   0.708   4.785  0.7361  0.0730 -1.2272
 2736TIP3   OH229698   4.634   5.166  17.093 -0.6584  0.2865 -0.4848
 2736TIP3    H129699   4.625   5.091  17.152  1.4152 -0.0950 -0.6198
 2736TIP3    H229700   4.726   5.164  17.066 -1.3908  0.9007 -3.1329
 2737TIP3   OH229701   6.683   5.550  14.590  0.1905  0.4146  0.3733
 2737TIP3    H129702   6.712   5.555  14.681 -0.5734  0.3843  0.6218
 2737TIP3    H229703   6.762   5.530  14.541  0.8103  1.4541  0.9165
 2738TIP3   OH229704   1.522   1.758  13.203  0.7945  0.4373 -0.4402
 2738TIP3    H129705   1.490   1.844  13.230  1.2270  1.1139 -2.0158
 2738TIP3    H229706   1.467   1.734  13.128  1.5200 -0.0727 -0.8190
 2739TIP3   OH229707   6.166   0.170  16.290 -0.1253 -0.3316  0.0500
 2739TIP3    H129708   6.204   0.084  16.307  2.2736  0.2139 -2.2331
 2739TIP3    H229709   6.080   0.151  16.250  0.7974 -1.7085 -1.3472
 2740TIP3   OH229710   3.781   4.090  14.883  0.3437 -0.9455 -0.2181
 2740TIP3    H129711   3.726   4.036  14.826 -1.2048  1.0622 -0.6788
 2740TIP3    H229712   3.721   4.124  14.949  1.2060  0.5541 -0.1837
 2741TIP3   OH229713   1.406   1.616  11.940 -0.6424 -0.4268 -0.4730
 2741TIP3    H129714   1.331   1.629  11.882 -1.4160 -0.7219  0.4546
 2741TIP3    H229715   1.447   1.536  11.909 -0.4421 -0.0283 -1.2609
 2742TIP3   OH229716   0.902   3.413   4.890  0.4473  0.4621 -0.8464
 2742TIP3    H129717   0.936   3.434   4.976 -0.5688  0.5182 -0.4458
 2742TIP3    H229718   0.873   3.497   4.855  3.6425  0.9466 -2.5206
 2743TIP3   OH229719   6.374   5.135   4.390 -0.1187  0.7191 -0.2296
 2743TIP3    H129720   6.421   5.197   4.335  1.9953  1.6378  2.4859
 2743TIP3    H229721   6.428   5.055   4.388 -1.6015 -0.2874 -1.8249
 2744TIP3   OH229722   6.443   5.004   2.024 -0.2263  0.2361 -0.6367
 2744TIP3    H129723   6.392   5.081   1.999  0.2227  0.7857  0.1316
 2744TIP3    H229724   6.471   5.021   2.114 -0.5709 -1.0650 -0.2701
 2745TIP3   OH229725   0.025   1.511   5.095 -0.3771  0.1787  0.0347
 2745TIP3    H129726   0.057   1.583   5.040 -1.2863 -0.0789 -0.8304
 2745TIP3    H229727   0.070   1.433   5.062  1.2122  0.4361  1.4774
 2746TIP3   OH229728   0.496   5.133  12.697  0.0800  0.1472 -0.7683
 2746TIP3    H129729   0.441   5.084  12.758  2.6755  0.1898  1.6776
 2746TIP3    H229730   0.548   5.066  12.653  0.6203  0.3761 -0.4803
 2747TIP3   OH229731   4.450   4.550   0.335  0.0161 -0.1873 -0.1060
 2747TIP3    H129732   4.364   4.519   0.365  0.2188  0.2315  0.9556
 2747TIP3    H229733   4.510   4.526   0.406  0.2883  1.9757  0.4282
 2748TIP3   OH229734   2.334   4.835  11.854 -0.0744 -0.1473  0.6354
 2748TIP3    H129735   2.273   4.871  11.788 -1.4311  0.3508  2.1262
 2748TIP3    H229736   2.421   4.848  11.815 -0.8533 -0.0616 -1.1593
 2749TIP3   OH229737   2.673   0.530   4.566 -0.2088  0.1627  0.2462
 2749TIP3    H129738   2.651   0.440   4.593  0.3931 -0.7683 -2.2334
 2749TIP3    H229739   2.715   0.568   4.643 -0.8677 -1.5374  1.4923
 2750TIP3   OH229740   1.865   1.884   4.074 -0.0284  0.3235 -0.2147
 2750TIP3    H129741   1.929   1.849   4.012  0.9659  1.4206  0.1582
 2750TIP3    H229742   1.909   1.960   4.113 -0.8523 -0.0171  1.4183
 2751TIP3   OH229743   3.901   3.610  11.385 -0.0291  0.5263  0.3256
 2751TIP3    H129744   3.807   3.596  11.382  0.1566 -0.6091 -0.3076
 2751TIP3    H229745   3.919   3.669  11.312  0.0053 -0.7971 -0.7460
 2752TIP3   OH229746   1.374   5.256   1.510 -0.1701 -0.4475 -0.0717
 2752TIP3    H129747   1.395   5.319   1.579 -1.0970  1.1759 -1.2133
 2752TIP3    H229748   1.434   5.279   1.439 -0.7296 -0.6437 -0.6092
 2753TIP3   OH229749   2.701   0.380   1.600 -0.9882  0.4839  0.3031
 2753TIP3    H129750   2.618   0.340   1.575 -0.1271 -0.2094 -1.6514
 2753TIP3    H229751   2.758   0.305   1.621 -0.6902  0.9131  1.0219
 2754TIP3   OH229752   0.167   1.723   4.623 -0.1227 -0.0471 -0.0928
 2754TIP3    H129753   0.152   1.813   4.592  0.8499  0.5095  1.0066
 2754TIP3    H229754   0.170   1.671   4.543 -1.8479  0.7187 -0.6863
 2755TIP3   OH229755   4.286   4.988  10.286  0.0524 -0.0596  0.3966
 2755TIP3    H129756   4.265   4.918  10.348 -1.1854 -1.9838 -2.1153
 2755TIP3    H229757   4.380   4.981  10.274 -0.1469 -1.7448 -0.3276
 2756TIP3   OH229758   0.224   3.907   5.359  0.4813  0.4013  0.5624
 2756TIP3    H129759   0.221   3.934   5.267  0.2464  2.2702  1.1071
 2756TIP3    H229760   0.223   3.989   5.408  1.1722 -0.5695  2.2249
 2757TIP3   OH229761   2.235   2.276  16.218 -0.9054 -0.2616  0.0760
 2757TIP3    H129762   2.278   2.350  16.175  0.2894 -0.4478  0.9454
 2757TIP3    H229763   2.280   2.267  16.302 -1.4743 -1.5698  0.2513
 2758TIP3   OH229764   6.718   5.008   5.645 -0.8943 -0.0023 -0.7720
 2758TIP3    H129765   6.783   5.053   5.699  1.0074 -2.0295 -1.3271
 2758TIP3    H229766   6.762   4.994   5.561 -1.8523 -1.9044 -0.9697
 2759TIP3   OH229767   4.207   1.816   5.704 -0.4053  0.1911  0.0181
 2759TIP3    H129768   4.121   1.784   5.729 -0.7620  0.2429 -1.1258
 2759TIP3    H229769   4.193   1.906   5.677 -0.4357 -0.5172 -2.4955
 2760TIP3   OH229770   4.728   5.566   4.505 -0.0923 -0.2058  0.1866
 2760TIP3    H129771   4.751   5.493   4.562 -0.2401  0.6153  1.3204
 2760TIP3    H229772   4.636   5.583   4.525 -0.6141 -0.9592 -1.4882
 2761TIP3   OH229773   1.535   0.780  16.600  0.6137 -0.5953  0.0152
 2761TIP3    H129774   1.606   0.815  16.654  0.0249 -1.0408  1.0768
 2761TIP3    H229775   1.534   0.686  16.620  0.7643 -0.8678 -1.1999
 2762TIP3   OH229776   6.522   3.816   1.949  0.0389 -0.3690  0.2590
 2762TIP3    H129777   6.521   3.740   1.890  0.4083 -0.6375  0.5947
 2762TIP3    H229778   6.454   3.874   1.915 -2.1207 -2.0494  1.5438
 2763TIP3   OH229779   3.995   3.905   4.696  0.2543 -0.3077 -0.5893
 2763TIP3    H129780   3.973   3.831   4.639 -2.0438 -0.7310  0.7611
 2763TIP3    H229781   3.980   3.871   4.785 -1.1059  1.8287  0.0321
 2764TIP3   OH229782   1.009   4.157   4.093 -0.4720  0.0723 -0.3248
 2764TIP3    H129783   1.084   4.177   4.037 -2.2461  1.8613 -2.2045
 2764TIP3    H229784   1.016   4.219   4.165 -0.6196  0.9080 -1.0083
 2765TIP3   OH229785   6.570   1.120   1.190 -0.0552 -0.3380 -0.0301
 2765TIP3    H129786   6.502   1.185   1.206 -0.4006 -1.0358  1.4256
 2765TIP3    H229787   6.631   1.129   1.264 -0.3198 -1.9173  0.4014
 2766TIP3   OH229788   1.366   6.815   6.649 -0.2454 -0.0537  0.3475
 2766TIP3    H129789   1.412   6.813   6.565 -0.3384 -0.5030  0.3040
 2766TIP3    H229790   1.304   6.742   6.644 -1.1188  0.6925  0.3225
 2767TIP3   OH229791   6.042   0.805   5.568 -0.7364 -0.1640 -0.2378
 2767TIP3    H129792   6.132   0.835   5.578 -0.6901 -0.0097 -1.0491
 2767TIP3    H229793   6.010   0.794   5.657 -0.2754  0.8750  0.0635
 2768TIP3   OH229794   0.144   6.698  14.671 -0.2850 -0.0083  0.5104
 2768TIP3    H129795   0.063   6.748  14.662 -1.1506 -1.2111  1.4304
 2768TIP3    H229796   0.182   6.728  14.754  0.4750  0.9208 -0.1719
 2769TIP3   OH229797   4.730   3.480  14.362 -0.3157 -0.2049  0.3451
 2769TIP3    H129798   4.811   3.492  14.411  0.7663  1.4540 -1.7735
 2769TIP3    H229799   4.690   3.567  14.360 -1.2002 -0.6190 -0.2796
 2770TIP3   OH229800   0.322   0.218   0.703 -0.2014  0.6086 -0.4334
 2770TIP3    H129801   0.381   0.198   0.776  0.3168  0.5095 -0.8812
 2770TIP3    H229802   0.329   0.313   0.693  0.4610  0.5050 -0.9788
 2771TIP3   OH229803   1.942   4.004   5.233 -0.4572 -0.3095 -0.3527
 2771TIP3    H129804   1.884   3.928   5.224 -0.2528 -0.5482  0.3473
 2771TIP3    H229805   2.001   3.982   5.305 -0.1348  0.3435 -0.4092
 2772TIP3   OH229806   0.253   0.280  17.201  0.0621  0.6022 -0.6419
 2772TIP3    H129807   0.243   0.194  17.241 -1.3786  0.7680 -0.6085
 2772TIP3    H229808   0.221   0.268  17.111 -0.0489  1.0719 -0.6653
 2773TIP3   OH229809   1.901   0.341  12.365 -0.3699  0.1697 -0.1048
 2773TIP3    H129810   1.949   0.299  12.293  0.1473  3.6457 -1.9112
 2773TIP3    H229811   1.959   0.333  12.440  0.2114 -1.3056 -0.6870
 2774TIP3   OH229812   1.187   5.495   6.097 -0.6200  0.5333  0.0588
 2774TIP3    H129813   1.185   5.503   6.192  0.7276  1.0147  0.0685
 2774TIP3    H229814   1.227   5.410   6.080 -1.8529 -0.0229 -0.0802
 2775TIP3   OH229815   4.819   2.541  14.548 -0.2973 -0.0346  0.1987
 2775TIP3    H129816   4.901   2.491  14.545 -1.0412 -1.2975  0.4444
 2775TIP3    H229817   4.847   2.632  14.552  1.1014 -0.4449  0.1912
 2776TIP3   OH229818   4.697   5.204   1.745  0.3455  0.2646  0.1160
 2776TIP3    H129819   4.644   5.264   1.798  2.5437  0.6543  1.9663
 2776TIP3    H229820   4.757   5.262   1.698  1.2582 -0.3700  0.5003
 2777TIP3   OH229821   5.202   4.741  11.209  0.4586  0.2881 -0.5324
 2777TIP3    H129822   5.246   4.663  11.175  0.0372  0.5459 -1.6802
 2777TIP3    H229823   5.274   4.796  11.242  0.7736 -0.4662  0.0820
 2778TIP3   OH229824   0.257   0.354   5.175  0.0736 -0.3276 -0.0489
 2778TIP3    H129825   0.206   0.274   5.189 -0.8329  0.6020  2.2645
 2778TIP3    H229826   0.223   0.391   5.094 -1.2334 -1.0282  0.1701
 2779TIP3   OH229827   0.044   4.857   0.904 -0.2581  0.3104 -0.4336
 2779TIP3    H129828   0.067   4.822   0.818 -1.1030 -2.7266  0.5289
 2779TIP3    H229829   0.108   4.817   0.963  0.3725  2.4455  0.3888
 2780TIP3   OH229830   2.683   3.854   0.403 -0.3477  0.2426 -0.5738
 2780TIP3    H129831   2.702   3.897   0.319  0.2020  0.0250 -0.5574
 2780TIP3    H229832   2.738   3.776   0.403 -1.3017 -0.4488 -0.5791
 2781TIP3   OH229833   4.999   1.391  12.349  0.6007  0.0702  0.5588
 2781TIP3    H129834   5.015   1.333  12.423 -0.1855 -2.8299 -1.4959
 2781TIP3    H229835   5.069   1.372  12.287  1.6309  2.9342  0.7474
 2782TIP3   OH229836   1.050   6.715   3.813  0.3445 -0.0160  0.4216
 2782TIP3    H129837   1.049   6.799   3.858  0.5632  0.3768 -0.3115
 2782TIP3    H229838   1.143   6.696   3.799  0.2707 -0.0486 -0.0366
 2783TIP3   OH229839   0.331   3.852   4.907 -0.0226 -0.8750  0.0556
 2783TIP3    H129840   0.336   3.822   4.816 -0.6125  1.0459 -0.6402
 2783TIP3    H229841   0.408   3.907   4.918 -1.1652  0.7736 -0.0118
 2784TIP3   OH229842   6.461   2.533  16.688 -0.6937  0.2365 -0.4310
 2784TIP3    H129843   6.479   2.518  16.781 -1.1903 -0.4896 -0.4417
 2784TIP3    H229844   6.513   2.610  16.665  1.2039 -0.9456 -0.1286
 2785TIP3   OH229845   2.447   5.976   5.593 -0.1597 -0.3230 -0.1460
 2785TIP3    H129846   2.486   5.963   5.507  1.3095  0.9189  0.3190
 2785TIP3    H229847   2.521   5.983   5.653 -1.1928 -2.5395  1.4438
 2786TIP3   OH229848   6.435   4.367   0.713 -0.1674  0.4677  0.2533
 2786TIP3    H129849   6.343   4.369   0.738  0.0722  1.2148  1.1088
 2786TIP3    H229850   6.434   4.366   0.617 -1.0895 -1.8417  0.2355
 2787TIP3   OH229851   1.363   5.633  13.898  0.1243  0.4125  0.1289
 2787TIP3    H129852   1.394   5.702  13.956 -1.2094 -0.1879  1.5949
 2787TIP3    H229853   1.434   5.620  13.836  1.0660  1.9469  0.8549
 2788TIP3   OH229854   5.983   3.520  16.146  1.0823  0.1364 -0.0287
 2788TIP3    H129855   5.893   3.500  16.174  0.4431 -0.4628 -2.3507
 2788TIP3    H229856   6.033   3.443  16.171  0.5651 -0.3053 -0.3237
 2789TIP3   OH229857   1.395   6.602  16.034  0.2606  0.0240  0.0945
 2789TIP3    H129858   1.425   6.573  16.120 -1.0256 -1.3199  0.1170
 2789TIP3    H229859   1.473   6.600  15.979  0.8795 -0.1122  0.9655
 2790TIP3   OH229860   3.316   5.640   3.596  0.3009  0.1389 -0.0703
 2790TIP3    H129861   3.342   5.684   3.677 -1.8809 -0.6998  1.1444
 2790TIP3    H229862   3.323   5.707   3.528  4.2852  0.2786  0.3652
 2791TIP3   OH229863   3.393   4.044  14.762 -0.0836  0.3880 -0.4729
 2791TIP3    H129864   3.401   3.951  14.782  2.0951  0.7074  0.3130
 2791TIP3    H229865   3.318   4.050  14.702 -0.5778 -1.7840 -0.1112
 2792TIP3   OH229866   3.918   3.582   5.358 -0.2331  0.4714  0.0639
 2792TIP3    H129867   3.934   3.675   5.378  0.5391  0.4145 -0.2596
 2792TIP3    H229868   3.856   3.583   5.286 -0.2033  0.7355  0.0413
 2793TIP3   OH229869   3.163   5.597  12.767  0.1655  0.4033  0.1346
 2793TIP3    H129870   3.147   5.505  12.746 -1.2767  0.9237 -1.1799
 2793TIP3    H229871   3.255   5.602  12.790  0.4651 -1.2051 -0.7053
 2794TIP3   OH229872   4.816   5.236  12.365 -0.3241 -0.3179 -0.2766
 2794TIP3    H129873   4.757   5.163  12.344 -1.6557 -0.0325  2.2884
 2794TIP3    H229874   4.764   5.314  12.346  0.1560 -0.0480 -0.4768
 2795TIP3   OH229875   0.808   2.181  12.398  0.0104  0.0293 -0.2149
 2795TIP3    H129876   0.780   2.239  12.327 -0.6601 -0.6689 -0.5323
 2795TIP3    H229877   0.899   2.205  12.414 -0.1144  0.8351 -0.6759
 2796TIP3   OH229878   1.069   1.385   3.538 -0.3728 -0.1115  0.1160
 2796TIP3    H129879   1.089   1.293   3.524 -1.5727 -0.5443  1.1694
 2796TIP3    H229880   0.982   1.396   3.498  0.3701  0.9039 -1.2694
 2797TIP3   OH229881   1.441   4.932  13.138 -0.0835 -0.3398 -0.9205
 2797TIP3    H129882   1.371   4.965  13.081 -1.3782 -2.1786 -0.4185
 2797TIP3    H229883   1.433   4.984  13.218  0.0415  0.4209 -1.3950
 2798TIP3   OH229884   1.798   4.282  15.987 -0.1257  0.3278 -0.8230
 2798TIP3    H129885   1.734   4.350  15.967  0.1665  0.2260 -2.1813
 2798TIP3    H229886   1.748   4.200  15.984 -0.3239  0.4081  0.0726
 2799TIP3   OH229887   0.831   0.629   3.310  0.2483  0.3325  0.5516
 2799TIP3    H129888   0.888   0.659   3.239  2.4617 -0.2501  2.0340
 2799TIP3    H229889   0.828   0.534   3.300  0.1856  0.2931  0.9456
 2800TIP3   OH229890   0.238   4.772  16.434  1.0390  0.6060  0.0659
 2800TIP3    H129891   0.299   4.826  16.382 -0.3960  1.9536 -0.2538
 2800TIP3    H229892   0.161   4.762  16.378  1.1119 -1.4651  0.2927
 2801TIP3   OH229893   3.876   6.032  13.068  0.9333  0.4066  0.1468
 2801TIP3    H129894   3.915   5.945  13.056  1.9693  0.7917  0.6514
 2801TIP3    H229895   3.896   6.080  12.988 -0.7409 -0.2096 -0.6746
 2802TIP3   OH229896   6.064   6.756   1.434 -0.0152 -0.2833 -0.1427
 2802TIP3    H129897   5.996   6.734   1.371  1.0372 -2.0053 -0.7203
 2802TIP3    H229898   6.061   6.685   1.498  0.2532  0.4069  0.6389
 2803TIP3   OH229899   4.459   1.908   2.903 -0.0552  0.7577 -0.0903
 2803TIP3    H129900   4.401   1.973   2.944 -1.7174 -0.7899  0.0701
 2803TIP3    H229901   4.424   1.898   2.815  1.2405  1.3173 -0.6802
 2804TIP3   OH229902   3.640   3.906  16.828  0.2429  0.2252  0.0223
 2804TIP3    H129903   3.631   3.995  16.793 -0.4590  0.0266 -0.2975
 2804TIP3    H229904   3.552   3.870  16.825  0.9985 -1.5401 -2.6601
 2805TIP3   OH229905   5.446   0.307  15.647  0.5225  0.8110 -0.1604
 2805TIP3    H129906   5.363   0.275  15.684  0.7056  1.1974  0.5930
 2805TIP3    H229907   5.420   0.381  15.592  0.5477  2.1596  1.5952
 2806TIP3   OH229908   1.294   0.057   2.126  0.0647  0.3312  0.3162
 2806TIP3    H129909   1.361   0.055   2.195 -0.5356 -2.5871  0.8805
 2806TIP3    H229910   1.215   0.085   2.172 -0.1488 -0.8179  0.6713
 2807TIP3   OH229911   2.833   1.031   5.512 -0.1880 -0.7740 -0.7816
 2807TIP3    H129912   2.882   1.039   5.430 -0.4850 -1.3776 -1.0184
 2807TIP3    H229913   2.747   0.998   5.486 -1.2567  1.7095 -0.5313
 2808TIP3   OH229914   2.400   1.997   3.649 -0.2979 -0.0227  0.0178
 2808TIP3    H129915   2.434   2.012   3.737  0.1023  3.0464 -0.6168
 2808TIP3    H229916   2.305   2.003   3.659 -0.2258  0.9779  0.1362
 2809TIP3   OH229917   1.972   6.461  11.677  0.7001  0.0817 -0.2932
 2809TIP3    H129918   1.898   6.444  11.620 -0.4773  1.6030  0.7298
 2809TIP3    H229919   2.003   6.374  11.704 -0.8532 -0.5511 -0.5253
 2810TIP3   OH229920   4.564   6.565  16.719  0.7528  0.0401 -0.1850
 2810TIP3    H129921   4.538   6.514  16.642  2.3272 -2.0188  0.6051
 2810TIP3    H229922   4.592   6.650  16.683  0.0333 -0.3563 -1.7161
 2811TIP3   OH229923   2.474   4.801   1.753  0.8438 -0.2158 -0.2241
 2811TIP3    H129924   2.546   4.780   1.813  0.7559 -0.9565 -0.3701
 2811TIP3    H229925   2.516   4.808   1.667  0.9166  0.5000 -0.1328
 2812TIP3   OH229926   0.232   2.259  14.382  0.2859  0.3680  0.2398
 2812TIP3    H129927   0.297   2.295  14.442 -1.6906  1.6468  1.6789
 2812TIP3    H229928   0.211   2.332  14.323 -0.3384  0.1726  0.2165
 2813TIP3   OH229929   6.718   1.773   1.405  0.2576 -0.3181  0.1352
 2813TIP3    H129930   6.773   1.758   1.481 -1.7817 -2.0838  1.3113
 2813TIP3    H229931   6.707   1.687   1.365 -1.2385  0.0700 -0.3554
 2814TIP3   OH229932   2.580   5.891  16.390 -0.0313  0.0328  0.2473
 2814TIP3    H129933   2.643   5.853  16.452  0.4166 -0.9739 -0.7946
 2814TIP3    H229934   2.617   5.977  16.368 -0.3081  0.4877  1.5366
 2815TIP3   OH229935   2.693   2.457   1.830  0.0279 -0.2193 -0.7483
 2815TIP3    H129936   2.645   2.441   1.912 -0.7996  0.9346 -0.9886
 2815TIP3    H229937   2.726   2.547   1.839  0.4605 -0.3066 -1.4302
 2816TIP3   OH229938   0.816   4.587   0.856 -0.2578  0.0724 -0.5546
 2816TIP3    H129939   0.783   4.638   0.782 -1.3238 -0.4388 -0.4375
 2816TIP3    H229940   0.857   4.511   0.816 -2.3537 -1.0802 -0.5715
 2817TIP3   OH229941   3.306   5.080  16.896 -0.4552 -0.1924  0.2669
 2817TIP3    H129942   3.368   5.152  16.909 -3.0123  1.9146  0.9645
 2817TIP3    H229943   3.333   5.041  16.813  2.5061 -0.0450  1.0982
 2818TIP3   OH229944   0.068   5.399   3.079  0.0289  0.0806  0.4145
 2818TIP3    H129945   0.125   5.389   3.155 -1.1974 -3.3755  0.9524
 2818TIP3    H229946  -0.014   5.434   3.115 -0.4302 -1.2201  0.6537
 2819TIP3   OH229947   4.136   3.596  16.307  0.6936  0.0111  0.4652
 2819TIP3    H129948   4.125   3.552  16.391  0.8577 -1.6518 -0.3722
 2819TIP3    H229949   4.101   3.534  16.242  0.7191  1.1971 -0.7161
 2820TIP3   OH229950   1.713   5.199   0.316 -0.2796  0.1433 -0.1554
 2820TIP3    H129951   1.796   5.152   0.316 -0.2526  0.1744  1.3009
 2820TIP3    H229952   1.667   5.167   0.393 -1.9341 -0.3911 -1.3398
 2821TIP3   OH229953   2.248   5.406  14.338  0.1566 -0.0499 -0.0559
 2821TIP3    H129954   2.297   5.484  14.363 -0.1418 -0.3595  1.5780
 2821TIP3    H229955   2.157   5.428  14.355  0.0290 -0.5748 -0.0455
 2822TIP3   OH229956   1.380   1.265   1.185  0.0171  0.6083  0.1354
 2822TIP3    H129957   1.358   1.353   1.155 -0.5343 -0.0874 -1.6099
 2822TIP3    H229958   1.475   1.261   1.181  0.0699  1.3211  0.7817
 2823TIP3   OH229959   1.661   1.959  12.229  0.1167 -0.2382 -0.0385
 2823TIP3    H129960   1.656   1.950  12.134 -0.8104  0.5005 -0.0617
 2823TIP3    H229961   1.754   1.975  12.247  0.2746 -0.2787 -0.8257
 2824TIP3   OH229962   2.556   2.910  17.195 -0.0177 -0.4797  0.2254
 2824TIP3    H129963   2.593   2.952  17.117 -0.7249 -0.9855 -0.3801
 2824TIP3    H229964   2.619   2.841  17.216  0.0276 -0.5306 -0.0668
 2825TIP3   OH229965   4.338   2.785  15.663  0.3140 -0.0861 -0.0219
 2825TIP3    H129966   4.361   2.696  15.688  0.2921 -0.4296 -1.1775
 2825TIP3    H229967   4.380   2.798  15.578 -2.5312 -0.2482 -1.5406
 2826TIP3   OH229968   6.593   1.853   3.757 -0.6260  0.3966  0.1971
 2826TIP3    H129969   6.588   1.912   3.832  0.3173  2.5564 -1.3681
 2826TIP3    H229970   6.633   1.906   3.688 -0.2526 -1.9348 -1.4364
 2827TIP3   OH229971   0.963   1.104  17.169 -0.1801  0.2852  0.8118
 2827TIP3    H129972   0.884   1.054  17.188 -0.0737 -0.0670  0.3145
 2827TIP3    H229973   1.035   1.042  17.182 -0.0751  0.1648 -0.2800
 2828TIP3   OH229974   2.303   3.236  12.087 -0.1312  0.1743 -0.3049
 2828TIP3    H129975   2.372   3.194  12.139  1.9685  1.7830 -1.7205
 2828TIP3    H229976   2.331   3.328  12.079 -3.1122  1.1988  0.2040
 2829TIP3   OH229977   5.084   5.848   4.033 -0.2805  0.4576  0.0684
 2829TIP3    H129978   5.145   5.819   4.100 -0.6740 -0.5980 -0.0244
 2829TIP3    H229979   5.011   5.787   4.038  0.2808 -0.4623 -2.1893
 2830TIP3   OH229980   2.803   3.809  12.442  0.0225 -0.0336  0.2986
 2830TIP3    H129981   2.808   3.904  12.437 -0.3975 -0.0751 -1.1777
 2830TIP3    H229982   2.885   3.782  12.483 -0.6512  1.0797  2.4247
 2831TIP3   OH229983   2.583   5.607   4.471 -0.6541 -0.3680 -0.6551
 2831TIP3    H129984   2.589   5.667   4.398 -2.1272 -0.2850 -0.7203
 2831TIP3    H229985   2.647   5.640   4.535 -1.1411  1.0043 -0.8670
 2832TIP3   OH229986   1.848   3.163  12.433  0.6454  0.5499 -0.4440
 2832TIP3    H129987   1.918   3.205  12.483  0.3696  0.1412  0.2965
 2832TIP3    H229988   1.769   3.208  12.460  0.5272  0.5237 -0.7432
 2833TIP3   OH229989   0.991   3.811  15.629  0.1378  0.1558 -0.3709
 2833TIP3    H129990   0.990   3.721  15.597  2.0536 -0.1220  0.2501
 2833TIP3    H229991   1.038   3.860  15.562  1.8502  0.0689  0.7170
 2834TIP3   OH229992   2.173   6.748  16.416 -0.1511 -0.6156 -0.4308
 2834TIP3    H129993   2.213   6.695  16.348 -1.3495 -0.0183 -1.6351
 2834TIP3    H229994   2.238   6.751  16.486  1.1902 -1.0750 -1.6263
 2835TIP3   OH229995   4.232   0.201   1.411  0.0585  0.0315 -0.9666
 2835TIP3    H129996   4.228   0.294   1.390  2.2521 -0.2383 -2.6933
 2835TIP3    H229997   4.186   0.157   1.339 -0.9027 -0.2421 -0.1992
 2836TIP3   OH229998   4.428   6.157  11.879  0.8052  0.4744  0.5317
 2836TIP3    H129999   4.431   6.240  11.830  0.9380  1.1532  1.6828
 2836TIP3    H230000   4.442   6.090  11.812 -2.5147  1.1698 -0.9511
 2837TIP3   OH230001   2.574   5.265   2.353  0.3969  0.5700  0.6012
 2837TIP3    H130002   2.590   5.175   2.381  0.8066  0.2928 -0.4928
 2837TIP3    H230003   2.481   5.267   2.333  0.2834  0.5295  1.1135
 2838TIP3   OH230004   6.049   4.125  12.202  0.1112  0.1818  0.6015
 2838TIP3    H130005   6.103   4.087  12.271  0.3837  1.1786  0.9453
 2838TIP3    H230006   6.109   4.181  12.152 -0.0914 -0.4865 -0.4161
 2839TIP3   OH230007   4.101   3.206   5.030  0.1918  0.6837  0.6609
 2839TIP3    H130008   4.069   3.285   5.073  0.1713  1.4806 -0.7609
 2839TIP3    H230009   4.152   3.239   4.955 -2.4391 -0.6185 -1.8002
 2840TIP3   OH230010   0.570   5.667  13.637 -0.0283  0.5623 -0.0919
 2840TIP3    H130011   0.647   5.666  13.580 -1.5099 -3.2168 -2.2285
 2840TIP3    H230012   0.588   5.600  13.703 -1.4900 -0.5116 -0.7394
 2841TIP3   OH230013   6.036   5.757  12.915  0.1823  0.8642  0.8730
 2841TIP3    H130014   6.029   5.797  13.002 -0.6561  1.5798  0.4859
 2841TIP3    H230015   5.958   5.787  12.868  1.0842  1.2496 -0.4275
 2842TIP3   OH230016   5.488   3.481  11.812  0.3281 -0.3089  0.1277
 2842TIP3    H130017   5.551   3.409  11.803  1.3504  0.6612 -0.5564
 2842TIP3    H230018   5.489   3.502  11.906  1.2264 -0.1212  0.0767
 2843TIP3   OH230019   5.489   2.498  11.864  0.1463 -0.1356 -0.3631
 2843TIP3    H130020   5.488   2.538  11.778 -0.5913  0.2894 -0.1666
 2843TIP3    H230021   5.574   2.455  11.871  0.1710 -0.2379 -1.3276
 2844TIP3   OH230022   5.069   5.765  14.382 -0.4911  0.5994 -0.2103
 2844TIP3    H130023   4.989   5.774  14.434 -0.9562 -1.2861 -0.5618
 2844TIP3    H230024   5.139   5.763  14.447 -0.7182  2.1187  0.1081
 2845TIP3   OH230025   1.571   3.245  12.526 -0.3014 -0.5977 -0.4049
 2845TIP3    H130026   1.527   3.274  12.606 -1.8096 -0.0411 -1.4114
 2845TIP3    H230027   1.507   3.189  12.482 -0.1871  0.5155 -2.0628
 2846TIP3   OH230028   6.302   0.268  11.574 -0.4077  0.1886 -0.0733
 2846TIP3    H130029   6.292   0.232  11.485 -0.7245 -2.3945  0.9714
 2846TIP3    H230030   6.213   0.288  11.602 -0.4671 -0.4800  0.2359
 2847TIP3   OH230031   3.246   4.286  14.189 -0.0184 -0.3783  0.3927
 2847TIP3    H130032   3.249   4.192  14.169  2.1932 -0.0489 -0.9310
 2847TIP3    H230033   3.330   4.305  14.230 -0.2604  1.1192  0.2196
 2848TIP3   OH230034   4.025   6.525   2.081  0.0126  0.0493  0.1907
 2848TIP3    H130035   3.979   6.447   2.049 -0.9924  0.8158 -0.2764
 2848TIP3    H230036   4.018   6.519   2.176  1.3840 -1.2753  0.2329
 2849TIP3   OH230037   0.195   1.001   5.358  0.1594 -0.5890  0.4186
 2849TIP3    H130038   0.102   1.022   5.347  0.7657  2.9783  1.4064
 2849TIP3    H230039   0.198   0.948   5.437 -1.2121 -2.3160 -0.6505
 2850TIP3   OH230040   2.361   3.163  15.493 -0.2197 -0.1934 -0.2066
 2850TIP3    H130041   2.307   3.085  15.496 -0.4280 -0.0911 -1.1876
 2850TIP3    H230042   2.337   3.206  15.411 -1.2792  1.7391  1.0873
 2851TIP3   OH230043   2.138   3.095   2.474  0.3394  0.0685  0.3094
 2851TIP3    H130044   2.123   3.006   2.441  1.8929 -0.2377  0.3903
 2851TIP3    H230045   2.191   3.082   2.553  0.2388  1.0508  0.5380
 2852TIP3   OH230046   0.474   6.562  13.707  0.5680 -0.0100  0.0802
 2852TIP3    H130047   0.447   6.646  13.742 -0.3221  0.0175 -0.6777
 2852TIP3    H230048   0.403   6.534  13.650  1.1301 -0.9804 -0.1750
 2853TIP3   OH230049   6.441   5.784  16.137 -0.1026 -0.4517 -0.1658
 2853TIP3    H130050   6.438   5.815  16.228  0.4553  0.1547 -0.3514
 2853TIP3    H230051   6.530   5.803  16.108 -0.2855 -0.6246 -0.8494
 2854TIP3   OH230052   3.016   6.560  10.567  0.6916  0.5264 -0.0870
 2854TIP3    H130053   2.940   6.573  10.510 -0.8074 -2.8378  1.0323
 2854TIP3    H230054   2.995   6.609  10.646 -1.2074 -1.8607  0.9378
 2855TIP3   OH230055   1.050   4.585  16.956  0.4155  0.1206 -0.8034
 2855TIP3    H130056   1.024   4.504  16.912  0.1328  0.0003 -0.4247
 2855TIP3    H230057   1.006   4.654  16.906  1.1349  0.0860 -1.4851
 2856TIP3   OH230058   5.240   3.070  11.588 -0.7772 -0.0520 -0.3621
 2856TIP3    H130059   5.164   3.051  11.533 -0.4242  1.6816 -1.4791
 2856TIP3    H230060   5.248   3.166  11.586  1.9168 -0.2540 -0.9229
 2857TIP3   OH230061   6.749   4.606   2.797 -0.1170  0.3164  0.3747
 2857TIP3    H130062   6.781   4.516   2.797  1.0404  0.7279  0.1386
 2857TIP3    H230063   6.816   4.656   2.842 -0.7593  1.0731  0.5117
 2858TIP3   OH230064   1.748   4.845  12.518 -0.2802  0.0894 -0.1135
 2858TIP3    H130065   1.766   4.756  12.549 -0.1811  0.2385  0.2621
 2858TIP3    H230066   1.822   4.865  12.460  0.6858  0.6283  1.2803
 2859TIP3   OH230067   2.803   4.803   2.351 -0.0202 -0.0281  0.4542
 2859TIP3    H130068   2.809   4.709   2.335 -1.3268 -0.6630  3.4308
 2859TIP3    H230069   2.893   4.830   2.370  0.1092 -0.9727  1.1905
 2860TIP3   OH230070   0.159   1.030  10.633 -0.2140  0.0243 -0.0172
 2860TIP3    H130071   0.157   0.935  10.645 -1.2534  0.2631  1.7995
 2860TIP3    H230072   0.092   1.063  10.692 -0.5563  1.8213 -1.3836
 2861TIP3   OH230073   2.347   0.969   1.036 -0.1706  0.0055  0.3904
 2861TIP3    H130074   2.385   1.053   1.062 -0.4398  0.3984 -0.4682
 2861TIP3    H230075   2.422   0.916   1.010 -0.3221  1.4370 -3.1729
 2862TIP3   OH230076   1.619   6.422   5.058 -0.7384  0.1063  0.5233
 2862TIP3    H130077   1.690   6.361   5.079  0.4482  1.1736 -0.2923
 2862TIP3    H230078   1.540   6.379   5.092 -0.1898 -2.6608 -1.4866
 2863TIP3   OH230079   2.077   0.641   1.815  0.3364  0.2136 -0.1694
 2863TIP3    H130080   1.988   0.647   1.848 -0.1644  0.3295 -1.5290
 2863TIP3    H230081   2.131   0.674   1.887 -0.7565  0.6833  0.4463
 2864TIP3   OH230082   5.696   1.414  11.972  0.0136  0.1270  0.0648
 2864TIP3    H130083   5.768   1.354  11.952 -1.0598 -0.6421 -1.6302
 2864TIP3    H230084   5.691   1.471  11.895 -2.6635 -1.3354 -0.8982
 2865TIP3   OH230085   4.846   2.727  15.313 -0.1984  0.1382 -0.2479
 2865TIP3    H130086   4.758   2.694  15.296 -0.6690  1.1756  0.0980
 2865TIP3    H230087   4.841   2.820  15.289  0.4776  0.4757  0.8860
 2866TIP3   OH230088   6.152   6.252   1.964  0.3620 -0.5598 -0.1556
 2866TIP3    H130089   6.086   6.219   1.903 -0.1134 -0.3986  0.2734
 2866TIP3    H230090   6.166   6.180   2.025 -1.4471  0.3887  1.4169
 2867TIP3   OH230091   3.770   6.340   3.202 -0.4196 -0.1360  0.0494
 2867TIP3    H130092   3.839   6.406   3.199  0.4058 -0.9968 -0.2726
 2867TIP3    H230093   3.702   6.378   3.257 -0.1570  1.1731 -0.5189
 2868TIP3   OH230094   4.656   2.342  11.758  0.4218  0.0896 -0.0627
 2868TIP3    H130095   4.642   2.278  11.689  0.8609  0.9567 -0.9837
 2868TIP3    H230096   4.751   2.342  11.772  0.1726 -1.2673  1.7174
 2869TIP3   OH230097   2.902   6.359   5.172 -0.6486  0.7264  0.4124
 2869TIP3    H130098   2.941   6.308   5.100 -2.2706  0.9047 -0.6180
 2869TIP3    H230099   2.977   6.385   5.225  0.8030  2.1942 -2.2407
 2870TIP3   OH230100   6.684   5.399   0.311  0.3923  0.2384  0.0408
 2870TIP3    H130101   6.704   5.321   0.362 -0.4971  1.2493  1.9568
 2870TIP3    H230102   6.609   5.373   0.256 -0.1826 -0.1310  0.9858
 2871TIP3   OH230103   2.820   4.424  12.645  0.5670 -0.5789  0.2214
 2871TIP3    H130104   2.751   4.405  12.709 -0.2184 -1.6967 -0.9179
 2871TIP3    H230105   2.861   4.339  12.628  2.6956  0.1894  1.4017
 2872TIP3   OH230106   1.013   0.060  10.431  0.4953  0.4301  0.3840
 2872TIP3    H130107   0.969   0.020  10.356 -2.0560  0.5043  1.7889
 2872TIP3    H230108   0.979   0.149  10.434  0.8008  0.5137  1.4633
 2873TIP3   OH230109   5.166   3.727  12.414  0.1626 -0.2206 -0.2922
 2873TIP3    H130110   5.101   3.756  12.350  0.2489 -0.1311 -0.3391
 2873TIP3    H230111   5.202   3.647  12.376  1.5156  0.8063 -1.2359
 2874TIP3   OH230112   1.403   1.012   1.697  0.1483  0.5034 -0.0135
 2874TIP3    H130113   1.457   0.967   1.763 -0.8365  0.4886  0.7949
 2874TIP3    H230114   1.391   0.947   1.628 -1.1092 -0.4461  1.0631
 2875TIP3   OH230115   0.930   6.669  13.305 -0.5027  0.0038 -0.2997
 2875TIP3    H130116   0.835   6.663  13.307 -0.4380 -1.4836 -0.9580
 2875TIP3    H230117   0.958   6.591  13.256  1.0507  0.3845 -0.0487
 2876TIP3   OH230118   2.277   4.169   5.472 -0.7812  0.3511  0.6842
 2876TIP3    H130119   2.305   4.212   5.392 -1.7108 -0.0126  0.1580
 2876TIP3    H230120   2.225   4.235   5.518  0.1281  0.7094  1.2068
 2877TIP3   OH230121   2.931   1.807   4.757 -0.1242 -0.0269  0.9372
 2877TIP3    H130122   2.857   1.777   4.704  0.7138  0.8804 -0.8165
 2877TIP3    H230123   2.906   1.787   4.847 -2.3771 -0.0048  0.3531
 2878TIP3   OH230124   1.648   3.442   3.899 -0.4306 -0.2015 -0.0523
 2878TIP3    H130125   1.664   3.428   3.806 -1.6364 -0.4308 -0.2378
 2878TIP3    H230126   1.577   3.505   3.903 -0.9875 -0.8494  0.6936
 2879TIP3   OH230127   2.902   5.774  10.835  0.2394  0.6505 -0.0412
 2879TIP3    H130128   2.902   5.678  10.834 -0.4042  0.6107 -3.1743
 2879TIP3    H230129   2.811   5.798  10.853  0.3703  0.6855  0.5901
 2880TIP3   OH230130   4.448   6.105  16.663 -0.2217 -0.0104  0.2835
 2880TIP3    H130131   4.387   6.032  16.658  0.2995 -0.3060 -2.3596
 2880TIP3    H230132   4.415   6.159  16.735 -2.7779 -0.8935 -0.1663
 2881TIP3   OH230133   1.677   3.582  11.567 -0.5473  0.2434 -0.4300
 2881TIP3    H130134   1.732   3.659  11.582 -1.3853  0.5235  1.2274
 2881TIP3    H230135   1.672   3.575  11.471  0.0001  1.9161 -0.5933
 2882TIP3   OH230136   0.074   1.269   0.638 -0.0928 -0.0463 -0.6558
 2882TIP3    H130137   0.023   1.349   0.630  0.6995  0.6727  1.0708
 2882TIP3    H230138   0.019   1.211   0.690 -0.0140 -0.0351 -0.5601
 2883TIP3   OH230139   5.697   3.086   5.589 -0.5426  1.0998  0.0691
 2883TIP3    H130140   5.681   3.086   5.495  0.1633  1.0808 -0.0592
 2883TIP3    H230141   5.612   3.069   5.629 -0.4148 -1.5818 -0.6668
 2884TIP3   OH230142   3.102   4.159   1.452 -0.3600  0.0789  0.4513
 2884TIP3    H130143   3.072   4.183   1.365  1.1020  0.5217  0.0626
 2884TIP3    H230144   3.166   4.089   1.438  0.4640  0.6866  1.1005
 2885TIP3   OH230145   1.821   1.853  14.824 -0.3815 -0.0186  0.4820
 2885TIP3    H130146   1.820   1.831  14.730 -0.7840  1.4543  0.1350
 2885TIP3    H230147   1.869   1.781  14.864 -2.5161 -2.0575 -0.4986
 2886TIP3   OH230148   0.842   6.105   5.454 -0.5148 -0.3152  0.5201
 2886TIP3    H130149   0.766   6.142   5.500  0.8745  1.5902  1.3784
 2886TIP3    H230150   0.894   6.065   5.524 -0.1874 -0.6150  0.1023
 2887TIP3   OH230151   3.444   0.526   3.825 -0.1157 -0.4093  1.0055
 2887TIP3    H130152   3.412   0.558   3.740  2.0886  0.9842  0.6460
 2887TIP3    H230153   3.374   0.546   3.886 -1.0407  0.1327 -0.1998
 2888TIP3   OH230154   3.877   0.028  17.184  0.2275 -0.1165 -0.2195
 2888TIP3    H130155   3.903   0.077  17.106  0.7068  0.5149  0.3223
 2888TIP3    H230156   3.879  -0.064  17.157 -0.5853  0.1547 -1.2206
 2889TIP3   OH230157   0.666   5.140   1.822  0.1293  0.2546 -0.2905
 2889TIP3    H130158   0.757   5.113   1.832  0.4461  0.8502 -1.4624
 2889TIP3    H230159   0.666   5.234   1.838 -0.4348  0.1069  0.6005
 2890TIP3   OH230160   0.173   1.236   4.547  0.0481  0.0257  0.1614
 2890TIP3    H130161   0.171   1.315   4.601 -1.1360 -0.2702  0.5509
 2890TIP3    H230162   0.264   1.205   4.554  0.1070  0.4493  1.3129
 2891TIP3   OH230163   2.140   6.078   1.466  0.0872  0.3013  0.4345
 2891TIP3    H130164   2.124   6.044   1.378 -0.6406 -2.3637  1.5416
 2891TIP3    H230165   2.053   6.099   1.500  0.2965  0.5437  0.8232
 2892TIP3   OH230166   2.136   1.591  14.075  0.1207 -0.1593  0.2186
 2892TIP3    H130167   2.125   1.525  14.143  0.5544 -1.9655 -1.4182
 2892TIP3    H230168   2.096   1.552  13.997  0.4466  1.4856 -0.8084
 2893TIP3   OH230169   3.106   4.330   3.013  0.2469  0.2655 -0.3288
 2893TIP3    H130170   3.177   4.382   3.052  2.7642 -2.5478 -0.9105
 2893TIP3    H230171   3.125   4.331   2.919 -0.4901 -0.5044 -0.4868
 2894TIP3   OH230172   4.146   1.290  14.999 -0.5123 -0.1157  0.3285
 2894TIP3    H130173   4.135   1.236  15.077  0.3283  0.2926  0.7330
 2894TIP3    H230174   4.092   1.247  14.933 -0.9460 -0.6651  1.0347
 2895TIP3   OH230175   3.243   4.678  14.358 -0.0685 -0.2615 -0.7873
 2895TIP3    H130176   3.214   4.704  14.271 -2.1630 -0.2362 -0.1104
 2895TIP3    H230177   3.208   4.746  14.416  3.1456  0.9352 -0.1309
 2896TIP3   OH230178   3.161   6.100  12.975 -0.4566 -0.2358  0.0959
 2896TIP3    H130179   3.231   6.040  12.951 -0.4212  0.0484 -0.5290
 2896TIP3    H230180   3.148   6.086  13.069  2.0356  1.3215  0.7481
 2897TIP3   OH230181   1.455   1.178   4.231  0.1169 -0.0396 -0.0031
 2897TIP3    H130182   1.534   1.230   4.215  0.2569 -0.6143 -1.2331
 2897TIP3    H230183   1.405   1.229   4.295  2.1726 -0.3797  1.9538
 2898TIP3   OH230184   4.916   2.245  11.137  0.1502  0.3202 -0.6422
 2898TIP3    H130185   4.847   2.185  11.111 -1.4475  1.3786  1.0241
 2898TIP3    H230186   4.902   2.260  11.231  0.9472  2.6827 -0.8455
 2899TIP3   OH230187   0.991   0.308   1.505  0.1402 -0.0949  0.5855
 2899TIP3    H130188   0.998   0.217   1.476  0.0121  0.5923 -1.6365
 2899TIP3    H230189   0.908   0.339   1.468  0.0863  0.8809  1.4889
 2900TIP3   OH230190   4.032   2.190   9.550  0.1945  0.5161 -0.1538
 2900TIP3    H130191   4.073   2.168   9.467 -2.5821  0.5722 -1.6019
 2900TIP3    H230192   4.014   2.106   9.592 -0.6775  0.3911 -0.7695
 2901TIP3   OH230193   5.611   4.970  16.058  0.0789  0.3696 -0.3731
 2901TIP3    H130194   5.554   5.038  16.091 -1.4607 -0.6507 -0.8642
 2901TIP3    H230195   5.603   4.898  16.121  3.1518  1.2830  1.1808
 2902TIP3   OH230196   4.635   2.207   5.448  0.4420  0.3982  0.1354
 2902TIP3    H130197   4.701   2.179   5.385  1.4310  1.0959  0.8477
 2902TIP3    H230198   4.677   2.194   5.534 -1.2956 -1.6823  0.7283
 2903TIP3   OH230199   1.876   5.678   3.724 -0.2539  0.0927 -0.2708
 2903TIP3    H130200   1.926   5.741   3.775 -0.1151  0.4322 -0.8254
 2903TIP3    H230201   1.940   5.638   3.665 -0.6227  0.4926 -0.9500
 2904TIP3   OH230202   3.801   2.592  16.758  0.3128 -0.5306  0.3172
 2904TIP3    H130203   3.891   2.559  16.751  0.3278 -1.1301  3.0064
 2904TIP3    H230204   3.786   2.601  16.852 -1.5124  2.1926 -0.2029
 2905TIP3   OH230205   1.193   2.862  15.734  0.0680 -1.1888 -0.3162
 2905TIP3    H130206   1.188   2.938  15.677  0.7772 -1.0899 -0.2528
 2905TIP3    H230207   1.124   2.876  15.799 -0.2172 -0.9131 -0.6741
 2906TIP3   OH230208   3.688   6.411  15.689  0.0260  0.1997 -0.0413
 2906TIP3    H130209   3.644   6.329  15.668 -0.7810  0.5865  0.1162
 2906TIP3    H230210   3.777   6.401  15.654 -0.0706 -0.7375 -0.0118
 2907TIP3   OH230211   4.625   2.753  15.617 -0.5191 -0.0994 -0.0485
 2907TIP3    H130212   4.577   2.810  15.558 -0.7894  2.3846  2.4667
 2907TIP3    H230213   4.717   2.763  15.592 -0.8081 -0.7381 -1.4013
 2908TIP3   OH230214   2.551   5.053  11.332 -0.0465  0.0145  0.2118
 2908TIP3    H130215   2.530   5.098  11.250  0.8738 -2.4487 -1.3961
 2908TIP3    H230216   2.629   5.099  11.365 -1.1565  1.8282  0.4052
 2909TIP3   OH230217   0.321   1.783   2.380 -0.3562 -0.1367  0.0737
 2909TIP3    H130218   0.376   1.844   2.429  0.0259  1.1947 -1.9377
 2909TIP3    H230219   0.383   1.727   2.333 -0.7125 -1.1628  0.8295
 2910TIP3   OH230220   5.342   2.337   4.172 -0.2756 -0.5252  0.3757
 2910TIP3    H130221   5.352   2.254   4.125  0.4498 -0.9131  1.1882
 2910TIP3    H230222   5.295   2.313   4.252 -2.1445  0.2434 -0.4500
 2911TIP3   OH230223   1.224   6.362   0.267  0.1738 -0.4371 -0.5736
 2911TIP3    H130224   1.275   6.440   0.287  2.0585 -2.0554  1.1795
 2911TIP3    H230225   1.284   6.306   0.218 -0.2239 -1.9630  0.6352
 2912TIP3   OH230226   1.566   2.267   5.444 -0.5177  0.6482  0.5355
 2912TIP3    H130227   1.637   2.330   5.455  0.4522 -0.5585  1.2430
 2912TIP3    H230228   1.608   2.181   5.453 -2.1053 -0.0699  1.2538
 2913TIP3   OH230229   3.995   6.567  15.937  0.3180 -0.2095  0.5385
 2913TIP3    H130230   3.967   6.555  16.028 -0.4813  0.0755  0.3333
 2913TIP3    H230231   4.087   6.540  15.936 -0.2658 -2.2613  0.9825
 2914TIP3   OH230232   1.932   6.109   3.683 -0.0636 -0.4329  0.5652
 2914TIP3    H130233   2.026   6.087   3.680 -0.4989 -2.5323  1.3386
 2914TIP3    H230234   1.894   6.058   3.611 -0.8090 -0.6685  1.1282
 2915TIP3   OH230235   1.008   3.314  15.709  0.4259 -0.1974  0.2166
 2915TIP3    H130236   1.067   3.242  15.732 -0.5172 -0.5401  1.5753
 2915TIP3    H230237   0.940   3.274  15.656  1.6079  0.2706 -1.6996
 2916TIP3   OH230238   0.502   5.741   2.917  0.1536 -0.2871  0.0923
 2916TIP3    H130239   0.451   5.731   2.836  0.8598 -0.3218 -0.3488
 2916TIP3    H230240   0.436   5.740   2.986 -0.4884  0.0893 -0.5052
 2917TIP3   OH230241   5.466   1.081   5.373 -0.2166 -0.2468 -0.2189
 2917TIP3    H130242   5.516   1.162   5.370 -1.2782  0.5099  1.6775
 2917TIP3    H230243   5.473   1.044   5.285  1.4812  1.1640 -0.6823
 2918TIP3   OH230244   1.715   2.769  14.066 -0.5408 -0.6172  0.1560
 2918TIP3    H130245   1.688   2.858  14.090 -0.9701 -1.1108  1.5278
 2918TIP3    H230246   1.764   2.781  13.985 -2.3229  0.6332 -0.7802
 2919TIP3   OH230247   4.339   5.564  11.681  0.0210  0.2705  0.0702
 2919TIP3    H130248   4.318   5.657  11.676 -0.5354  0.0744 -1.4658
 2919TIP3    H230249   4.416   5.560  11.739 -0.3321  1.6093  0.6500
 2920TIP3   OH230250   0.527   6.794  17.211  0.4751  0.5522  0.1251
 2920TIP3    H130251   0.488   6.801  17.298  0.0289 -0.3250  0.0021
 2920TIP3    H230252   0.590   6.722  17.219  0.2361  0.2882 -0.3475
 2921TIP3   OH230253   2.520   4.314   4.653 -0.0818 -0.0933 -0.3549
 2921TIP3    H130254   2.469   4.325   4.734  0.9032  2.5157 -0.0500
 2921TIP3    H230255   2.457   4.280   4.590 -1.1866 -0.9171  1.1383
 2922TIP3   OH230256   0.873   0.134  10.906 -0.1300  0.2603  0.0710
 2922TIP3    H130257   0.906   0.207  10.854  1.5788  1.0969  2.2684
 2922TIP3    H230258   0.878   0.163  10.996 -0.6191 -2.1049  0.9155
 2923TIP3   OH230259   3.947   4.465  17.042 -0.4984 -0.4333 -0.5981
 2923TIP3    H130260   3.878   4.420  16.992  0.5842 -0.6965 -1.8690
 2923TIP3    H230261   4.028   4.444  16.996  0.0990  2.4017 -0.8884
 2924TIP3   OH230262   2.022   5.571  16.973 -0.0313  0.3418  0.4724
 2924TIP3    H130263   2.008   5.504  16.906 -2.4913  1.6816 -0.4241
 2924TIP3    H230264   2.060   5.645  16.926 -3.3253  1.9083  0.1617
 2925TIP3   OH230265   3.905   1.487  11.383 -0.1658  0.6162  0.6827
 2925TIP3    H130266   3.899   1.573  11.341 -1.3556  0.3487  0.2606
 2925TIP3    H230267   3.840   1.434  11.336  0.6773 -0.5526  0.8388
 2926TIP3   OH230268   3.886   1.632  14.559  0.0095 -0.2409  0.3788
 2926TIP3    H130269   3.875   1.598  14.648  1.9262  0.7233  1.0006
 2926TIP3    H230270   3.845   1.718  14.560 -0.4684 -0.4622  0.1609
 2927TIP3   OH230271   1.476   0.816   5.457 -0.1710 -0.8466  0.6911
 2927TIP3    H130272   1.401   0.836   5.514  1.1220  1.4180  1.6413
 2927TIP3    H230273   1.549   0.801   5.517  0.3761 -2.1250 -0.2656
 2928TIP3   OH230274   3.274   2.875   5.204  0.6056  0.1567  0.2665
 2928TIP3    H130275   3.333   2.905   5.273 -0.2368 -0.0754  1.0902
 2928TIP3    H230276   3.287   2.780   5.201 -0.5910 -0.0539  1.2758
 2929TIP3   OH230277   5.520   1.389  13.413 -0.6277 -0.6330 -0.1524
 2929TIP3    H130278   5.614   1.377  13.426 -0.1367  0.7714 -2.2126
 2929TIP3    H230279   5.503   1.351  13.327 -2.0740 -1.4656  0.4911
 2930TIP3   OH230280   3.288   1.734   1.377  0.1272  0.2007  0.3183
 2930TIP3    H130281   3.294   1.801   1.445  2.9015 -0.8888  1.2408
 2930TIP3    H230282   3.217   1.676   1.405  1.1898 -0.1947  2.3052
 2931TIP3   OH230283   6.445   5.691   2.999  0.3787 -0.3729  0.4793
 2931TIP3    H130284   6.408   5.643   2.925  0.9520 -0.4728  0.2523
 2931TIP3    H230285   6.419   5.641   3.076  1.5761 -1.4537  0.1971
 2932TIP3   OH230286   4.878   1.930   3.341 -0.5445 -0.6840 -0.2116
 2932TIP3    H130287   4.910   2.015   3.309 -0.9237 -0.9229 -1.2416
 2932TIP3    H230288   4.845   1.949   3.429 -0.3131  0.1664 -0.2975
 2933TIP3   OH230289   5.526   6.650  11.722 -0.0258 -0.5475 -0.2761
 2933TIP3    H130290   5.613   6.687  11.729 -0.1585 -0.1979 -0.4730
 2933TIP3    H230291   5.525   6.579  11.786  0.2412 -0.2451  0.0628
 2934TIP3   OH230292   5.347   5.931  14.540  0.2103 -0.1432 -0.3767
 2934TIP3    H130293   5.311   5.947  14.627  0.3005 -0.6466 -0.2446
 2934TIP3    H230294   5.427   5.880  14.556  2.6413  3.4651 -0.4614
 2935TIP3   OH230295   2.515   1.995   3.875 -0.2144  0.6377  0.6876
 2935TIP3    H130296   2.575   2.044   3.931 -0.9162  2.8475 -0.4556
 2935TIP3    H230297   2.557   1.909   3.865  2.1054  1.6969  0.9792
 2936TIP3   OH230298   1.254   2.393   4.231 -0.8968 -0.2177 -0.1200
 2936TIP3    H130299   1.277   2.312   4.185 -0.7324  0.0520 -0.5277
 2936TIP3    H230300   1.328   2.409   4.289 -0.7795 -0.1895 -0.2758
 2937TIP3   OH230301   5.643   0.093   4.111 -0.5159 -0.8656 -0.2149
 2937TIP3    H130302   5.581   0.128   4.047  0.5608  1.3958 -0.0890
 2937TIP3    H230303   5.675   0.011   4.072 -0.1700  0.2816 -2.4201
 2938TIP3   OH230304   0.477   4.966  14.526 -0.2361 -0.0619 -0.0117
 2938TIP3    H130305   0.397   4.914  14.539 -1.8572  2.5344  0.7508
 2938TIP3    H230306   0.533   4.943  14.600 -0.9635 -0.6703  0.3558
 2939TIP3   OH230307   0.870   3.290   1.373  0.4224  0.2906  0.3593
 2939TIP3    H130308   0.930   3.324   1.440 -1.1553 -0.5847  2.2644
 2939TIP3    H230309   0.789   3.271   1.421 -0.7340 -0.3678 -1.8109
 2940TIP3   OH230310   2.228   1.676  17.069  0.5894  0.6185  0.2403
 2940TIP3    H130311   2.210   1.770  17.070  0.1247  0.5214  2.2892
 2940TIP3    H230312   2.276   1.662  16.987  2.3426  2.9499  0.8060
 2941TIP3   OH230313   4.587   3.239  15.553 -0.4060 -0.1590  0.0070
 2941TIP3    H130314   4.604   3.178  15.624  0.2645  0.1071  0.0766
 2941TIP3    H230315   4.538   3.311  15.593  1.4771  0.8330  0.5733
 2942TIP3   OH230316   2.235   6.273   5.440 -0.6772 -0.6211 -0.0129
 2942TIP3    H130317   2.297   6.282   5.368 -0.0054  1.1101  0.7638
 2942TIP3    H230318   2.281   6.221   5.506  0.4158  1.5969  1.0331
 2943TIP3   OH230319   5.828   1.063   3.681 -0.1487 -0.6479 -0.4059
 2943TIP3    H130320   5.908   1.073   3.630 -0.4426 -1.2480 -0.9982
 2943TIP3    H230321   5.804   1.152   3.707  1.5278 -0.5934  1.0535
 2944TIP3   OH230322   3.036   4.123   5.608  0.2835 -0.4965 -0.5038
 2944TIP3    H130323   2.954   4.088   5.573 -0.8471  1.9464 -0.3895
 2944TIP3    H230324   3.049   4.206   5.561  1.3090  0.4217  1.3476
 2945TIP3   OH230325   5.237   5.733   3.584 -0.4365 -0.5377 -0.2424
 2945TIP3    H130326   5.203   5.809   3.630 -2.1780 -1.2900 -0.2462
 2945TIP3    H230327   5.209   5.658   3.636  0.8510 -1.2095 -0.4935
 2946TIP3   OH230328   1.001   4.397  14.637 -0.3458  0.2201  0.0591
 2946TIP3    H130329   1.049   4.455  14.578 -0.4831  0.8681  0.5776
 2946TIP3    H230330   1.057   4.319  14.646 -0.3961  0.0502 -1.0413
 2947TIP3   OH230331   1.538   1.804   0.342 -0.4186  0.4775  0.3342
 2947TIP3    H130332   1.576   1.864   0.277 -1.3503  0.4113 -0.2847
 2947TIP3    H230333   1.592   1.726   0.338 -0.7069  0.3227 -0.6616
 2948TIP3   OH230334   4.448   0.820   1.832  0.1241 -0.3551  0.2508
 2948TIP3    H130335   4.376   0.763   1.805  0.7358 -0.3027 -1.6053
 2948TIP3    H230336   4.419   0.907   1.806  1.3670 -0.4912 -1.6572
 2949TIP3   OH230337   5.653   4.058  10.903  0.0456  0.9160  0.2347
 2949TIP3    H130338   5.573   4.110  10.900  1.3874  2.9859 -0.4284
 2949TIP3    H230339   5.623   3.970  10.928 -2.4119  1.6497  0.0202
 2950TIP3   OH230340   3.844   2.540   4.309 -0.9499 -0.7460  0.3695
 2950TIP3    H130341   3.906   2.612   4.312 -0.2275 -1.3749  0.5328
 2950TIP3    H230342   3.790   2.557   4.231 -0.0990 -0.6000 -0.1869
 2951TIP3   OH230343   3.135   5.941   5.332  0.1052  0.5311 -0.5160
 2951TIP3    H130344   3.176   6.028   5.332  0.7478  0.2597 -3.7740
 2951TIP3    H230345   3.193   5.887   5.385  2.1012  1.0245 -2.1588
 2952TIP3   OH230346   6.306   5.975  11.135 -0.0704 -0.2242  0.0196
 2952TIP3    H130347   6.400   5.978  11.120 -0.0633 -0.4707  0.0146
 2952TIP3    H230348   6.291   6.038  11.205  0.2033 -0.7484  0.5503
 2953TIP3   OH230349   6.241   5.583  14.874 -0.2803  0.4037 -0.1898
 2953TIP3    H130350   6.228   5.514  14.938  1.7927 -0.8302 -1.0492
 2953TIP3    H230351   6.156   5.593  14.832 -0.5598 -1.7924 -0.2029
 2954TIP3   OH230352   2.068   1.400   3.017 -0.5988 -0.2459  0.2629
 2954TIP3    H130353   2.074   1.317   2.970 -0.2099  0.2416 -0.5538
 2954TIP3    H230354   2.055   1.466   2.949 -0.9629  0.3627  0.9113
 2955TIP3   OH230355   6.177   1.675   0.063 -0.1693  0.1347  0.1500
 2955TIP3    H130356   6.115   1.734   0.021  2.2222  1.3996 -1.7862
 2955TIP3    H230357   6.210   1.725   0.138  1.8553  1.3965 -1.4874
 2956TIP3   OH230358   4.440   4.354  15.847  0.4193 -0.0429  0.1953
 2956TIP3    H130359   4.508   4.410  15.886 -0.3542  0.8675  0.2445
 2956TIP3    H230360   4.408   4.404  15.773 -0.7010 -0.1699  0.5921
 2957TIP3   OH230361   2.121   5.945  13.378 -0.3371  0.2006 -0.2677
 2957TIP3    H130362   2.192   5.910  13.431 -0.1174 -0.6112 -1.0669
 2957TIP3    H230363   2.073   6.004  13.436 -1.6462 -2.6106  1.6391
 2958TIP3   OH230364   2.871   6.401  13.708 -0.3399  0.3469  0.4215
 2958TIP3    H130365   2.833   6.373  13.791 -1.6333 -0.7221 -0.5179
 2958TIP3    H230366   2.940   6.337  13.691  0.4530  1.0162  1.0308
 2959TIP3   OH230367   2.191   3.990  11.713 -0.5853 -0.3253  0.2300
 2959TIP3    H130368   2.111   4.015  11.760 -0.4260 -0.0230  0.3459
 2959TIP3    H230369   2.160   3.955  11.629 -0.8646 -0.7474  0.5098
 2960TIP3   OH230370   2.738   2.072   4.025  0.2622  0.5475  0.3078
 2960TIP3    H130371   2.735   2.123   4.106 -0.5310  0.6937  0.1878
 2960TIP3    H230372   2.767   2.134   3.958 -1.0013  0.9219  0.1023
 2961TIP3   OH230373   2.742   0.832   3.545 -0.5620 -0.1448  0.2080
 2961TIP3    H130374   2.690   0.899   3.588  1.1115  0.4254  1.4285
 2961TIP3    H230375   2.776   0.779   3.617  1.1738 -0.0161 -0.4927
 2962TIP3   OH230376   2.399   1.274   4.023  0.3771 -0.6065  0.1283
 2962TIP3    H130377   2.408   1.355   4.074  0.9298  0.5290 -1.7478
 2962TIP3    H230378   2.338   1.297   3.953  1.1967 -1.5822 -0.9054
 2963TIP3   OH230379   3.237   5.771   1.398  0.5250  0.3122 -0.4319
 2963TIP3    H130380   3.198   5.699   1.448  1.3384 -0.8698 -1.4951
 2963TIP3    H230381   3.296   5.729   1.336  0.0717  1.8109 -1.9224
 2964TIP3   OH230382   2.564   1.884   6.457  0.2164 -0.2045 -0.1778
 2964TIP3    H130383   2.525   1.972   6.450 -1.1847 -0.7531  0.5534
 2964TIP3    H230384   2.647   1.891   6.411  0.2393  1.5888  0.0994
 2965TIP3   OH230385   5.047   5.227  12.192 -0.1254 -0.4870  0.1201
 2965TIP3    H130386   4.961   5.211  12.229 -0.0993 -0.6796  0.0997
 2965TIP3    H230387   5.080   5.139  12.170  0.1447 -0.4270  0.2867
 2966TIP3   OH230388   4.443   4.849   2.558  0.1348  0.5356  0.4215
 2966TIP3    H130389   4.357   4.881   2.532 -0.0774  0.1687  0.6561
 2966TIP3    H230390   4.505   4.914   2.525 -0.2203  0.7023  0.0877
 2967TIP3   OH230391   3.790   2.958  16.200  0.2609 -0.2163 -0.1323
 2967TIP3    H130392   3.741   3.039  16.188  1.6770  0.4012 -2.0545
 2967TIP3    H230393   3.861   2.981  16.260 -0.2501 -0.4530  0.5720
 2968TIP3   OH230394   3.187   2.499   3.709  0.4254  0.1415  0.3978
 2968TIP3    H130395   3.100   2.530   3.683  1.1259  1.7978 -0.0478
 2968TIP3    H230396   3.199   2.532   3.797  2.0497  3.1181 -0.8591
 2969TIP3   OH230397   6.359   4.010   5.742 -0.3636 -0.4106 -0.0021
 2969TIP3    H130398   6.313   3.967   5.814  0.6848 -0.7297  0.4918
 2969TIP3    H230399   6.374   4.099   5.773  0.6869 -0.7400  0.4627
 2970TIP3   OH230400   6.643   2.782   1.645  0.1880  0.2987 -0.1873
 2970TIP3    H130401   6.670   2.784   1.736 -1.0653 -0.5676  0.2144
 2970TIP3    H230402   6.625   2.690   1.626 -1.0402  0.6546 -0.8488
 2971TIP3   OH230403   1.387   4.026  12.773  0.2691 -0.4451 -0.7228
 2971TIP3    H130404   1.417   3.935  12.770 -0.3961 -0.6350 -2.0699
 2971TIP3    H230405   1.291   4.020  12.772  0.2002  0.2274  0.8933
 2972TIP3   OH230406   0.820   3.385  15.923 -0.1314  0.2742 -0.5438
 2972TIP3    H130407   0.733   3.410  15.891 -0.1073  1.9925  0.6826
 2972TIP3    H230408   0.879   3.411  15.852 -0.5095  0.0404 -0.9506
 2973TIP3   OH230409   4.396   0.581   0.107 -0.3808 -0.8890  0.4438
 2973TIP3    H130410   4.429   0.576   0.197  1.2821 -2.4419 -0.2033
 2973TIP3    H230411   4.379   0.674   0.092 -0.7806 -0.6257  2.3917
 2974TIP3   OH230412   0.824   5.396  15.979  0.0225  0.0078  0.4599
 2974TIP3    H130413   0.759   5.364  16.042 -3.1419  0.2086 -2.5204
 2974TIP3    H230414   0.816   5.492  15.983 -0.5639  0.0138 -0.5431
 2975TIP3   OH230415   1.197   5.936   5.462 -0.1029 -0.6651 -0.0978
 2975TIP3    H130416   1.224   6.017   5.505 -0.1420 -0.3907 -0.5908
 2975TIP3    H230417   1.214   5.951   5.369 -2.0326 -0.4483 -0.4296
 2976TIP3   OH230418   6.340   5.549   3.200  0.1663 -0.1870  0.1306
 2976TIP3    H130419   6.332   5.466   3.248  3.6487 -0.1752  0.8577
 2976TIP3    H230420   6.354   5.615   3.268  0.4486  0.5383 -0.6200
 2977TIP3   OH230421   3.662   4.915  11.408  0.1224  0.0963 -0.3724
 2977TIP3    H130422   3.755   4.930  11.423 -1.0022  3.1591  4.7333
 2977TIP3    H230423   3.637   4.981  11.344  0.7280  1.8755  1.1977
 2978TIP3   OH230424   2.542   0.541   3.783  0.2940  0.4313  0.0730
 2978TIP3    H130425   2.449   0.516   3.784  0.3903  0.0697 -0.0847
 2978TIP3    H230426   2.584   0.477   3.726  0.4666  1.2440 -0.7159
 2979TIP3   OH230427   2.441   0.729   4.203  0.1189 -0.5052  0.5259
 2979TIP3    H130428   2.435   0.823   4.184  0.5580 -1.0716 -2.7649
 2979TIP3    H230429   2.532   0.707   4.182  0.0256 -1.6451  1.3385
 2980TIP3   OH230430   1.100   6.341  17.163 -0.8858 -0.0728 -1.0415
 2980TIP3    H130431   1.165   6.367  17.097 -0.5131 -1.8978 -1.4199
 2980TIP3    H230432   1.127   6.387  17.242  0.3110 -0.0498 -1.4509
 2981TIP3   OH230433   2.576   2.127  17.164 -0.1862 -0.2616  0.3681
 2981TIP3    H130434   2.637   2.181  17.215  0.3861  0.3336 -0.9187
 2981TIP3    H230435   2.492   2.139  17.207  0.0140  1.3466  0.3561
 2982TIP3   OH230436   2.704   5.830  12.219 -0.4082  0.8032  0.2039
 2982TIP3    H130437   2.718   5.821  12.313 -0.7623  1.8950  0.3715
 2982TIP3    H230438   2.612   5.809  12.206 -0.6067  1.6298  0.2456
 2983TIP3   OH230439   5.207   0.909   4.431 -0.3135 -0.0175  0.1286
 2983TIP3    H130440   5.299   0.897   4.457 -0.4926 -0.8845  0.3867
 2983TIP3    H230441   5.184   0.995   4.465  0.4066  0.2025  0.0673
 2984TIP3   OH230442   0.003   1.219   1.292 -0.3522 -0.1912 -0.1911
 2984TIP3    H130443   0.003   1.199   1.199  0.8759 -3.3299  0.4010
 2984TIP3    H230444   0.091   1.193   1.322 -0.1855  2.2022  1.5655
 2985TIP3   OH230445   0.864   3.521  15.570  0.2968  0.1268 -0.0232
 2985TIP3    H130446   0.944   3.470  15.588  0.7211  0.2627 -1.4600
 2985TIP3    H230447   0.809   3.461  15.520 -0.4975  0.0486  0.9333
 2986TIP3   OH230448   2.043   4.633   2.931  0.2108  0.5972 -0.0693
 2986TIP3    H130449   1.955   4.646   2.896 -0.5440 -1.8762  0.7987
 2986TIP3    H230450   2.045   4.685   3.012 -0.5319  0.4743  0.0291
 2987TIP3   OH230451   0.367   4.550  14.436 -0.2854 -0.0960  0.1428
 2987TIP3    H130452   0.357   4.459  14.462  2.4483 -0.8799 -1.3862
 2987TIP3    H230453   0.448   4.579  14.479  0.5323  0.6452 -1.8352
 2988TIP3   OH230454   2.666   0.485  11.982  0.5839  0.0111 -0.3046
 2988TIP3    H130455   2.581   0.502  12.024  0.7617 -0.6803  0.3367
 2988TIP3    H230456   2.694   0.571  11.949  1.4533  0.9969  2.8333
 2989TIP3   OH230457   0.304   0.255  16.674  0.5626 -0.4156 -0.3713
 2989TIP3    H130458   0.230   0.307  16.706 -0.0193  0.3340 -2.7913
 2989TIP3    H230459   0.382   0.300  16.708 -0.0622 -1.2776  2.2783
 2990TIP3   OH230460   1.088   4.747   2.510  0.0870  0.2472  0.1249
 2990TIP3    H130461   1.117   4.815   2.449  0.8892 -0.2645 -0.0679
 2990TIP3    H230462   1.097   4.786   2.597 -0.3708  0.7228 -0.0400
 2991TIP3   OH230463   5.472   3.419  15.017  0.3021 -0.6101 -0.5448
 2991TIP3    H130464   5.388   3.420  14.970  0.3553 -0.2661 -0.6325
 2991TIP3    H230465   5.452   3.374  15.099  0.1252 -0.8935 -0.7416
 2992TIP3   OH230466   5.254   4.030  16.618 -0.1545 -0.7085 -0.4720
 2992TIP3    H130467   5.228   3.972  16.689  2.3672 -0.7674  0.4618
 2992TIP3    H230468   5.186   4.098  16.617  0.5688  0.2085  3.1281
 2993TIP3   OH230469   1.849   0.435   2.112  0.2972 -0.5084 -0.0236
 2993TIP3    H130470   1.813   0.386   2.039  0.4591  1.8461 -1.7652
 2993TIP3    H230471   1.788   0.508   2.124  0.7253 -0.4043  1.6512
 2994TIP3   OH230472   1.719   6.271   1.039  0.0502 -0.7087  0.2115
 2994TIP3    H130473   1.787   6.204   1.038  0.6214 -0.1627  1.5938
 2994TIP3    H230474   1.686   6.270   1.129  0.5214  1.3379  0.4272
 2995TIP3   OH230475   0.430   5.102   5.276 -0.0544  0.4208 -0.0349
 2995TIP3    H130476   0.379   5.022   5.287  0.0293 -0.0256 -2.5056
 2995TIP3    H230477   0.517   5.080   5.310 -0.1660 -0.3737 -0.2643
 2996TIP3   OH230478   0.553   6.211   6.335 -0.1521  0.3299 -0.5959
 2996TIP3    H130479   0.526   6.173   6.252  0.1065 -0.0266 -0.5179
 2996TIP3    H230480   0.613   6.147   6.373 -0.0020  0.6462 -0.2921
 2997TIP3   OH230481   4.019   4.885   0.861  0.0496  0.0347 -0.8710
 2997TIP3    H130482   4.066   4.894   0.778  0.3118  1.3871 -0.5875
 2997TIP3    H230483   4.086   4.894   0.928 -0.5243  1.5442 -0.4761
 2998TIP3   OH230484   1.661   4.495  16.261  0.3822 -0.0663  0.1409
 2998TIP3    H130485   1.610   4.429  16.308  0.1150 -0.9919 -1.4357
 2998TIP3    H230486   1.613   4.510  16.180  0.8249  1.5628  0.1636
 2999TIP3   OH230487   1.089   2.595  11.089  0.4601 -0.6825 -0.4188
 2999TIP3    H130488   1.032   2.633  11.022  1.8840  0.3446 -1.0841
 2999TIP3    H230489   1.116   2.511  11.052 -1.7006 -1.8414  0.5115
 3000TIP3   OH230490   6.059   3.085  15.586 -0.3777 -0.4797 -0.0734
 3000TIP3    H130491   6.034   3.103  15.677 -1.2269  3.6355 -1.0298
 3000TIP3    H230492   5.982   3.041  15.549 -0.2997 -1.5279  0.9704
 3001TIP3   OH230493   4.354   2.500   3.238  0.2189  0.0185 -0.3900
 3001TIP3    H130494   4.374   2.430   3.175 -2.7664 -0.7997 -0.5108
 3001TIP3    H230495   4.403   2.576   3.206  1.8383 -1.4370 -1.4577
 3002TIP3   OH230496   6.802   2.623  14.006 -0.7620  0.7433 -0.1633
 3002TIP3    H130497   6.727   2.570  13.980 -1.9698  2.7838 -0.9720
 3002TIP3    H230498   6.775   2.667  14.086  0.3134 -0.0365  0.6406
 3003TIP3   OH230499   1.547   4.672   6.028 -0.3750 -0.0863 -0.0653
 3003TIP3    H130500   1.463   4.714   6.013 -0.1764 -0.1992 -1.5465
 3003TIP3    H230501   1.571   4.634   5.943  1.6417  0.8056  0.0800
 3004TIP3   OH230502   1.536   0.193  14.905 -0.2843 -0.1252  0.1409
 3004TIP3    H130503   1.560   0.235  14.988 -1.0550 -0.8091  0.7183
 3004TIP3    H230504   1.611   0.210  14.847 -0.5773  2.0457  0.3508
 3005TIP3   OH230505   5.973   5.818   6.483 -0.0231  0.3367 -0.0313
 3005TIP3    H130506   5.962   5.775   6.398  0.3845  1.1129 -0.4830
 3005TIP3    H230507   5.885   5.820   6.520 -0.0249 -1.0541  0.0882
 3006TIP3   OH230508   1.243   4.436   2.422  0.4966  0.1898 -0.2885
 3006TIP3    H130509   1.172   4.499   2.412 -0.7403 -1.2996 -1.0646
 3006TIP3    H230510   1.314   4.471   2.368 -0.0521  1.0654 -0.4520
 3007TIP3   OH230511   4.068   1.205  15.658  0.2739  0.1426  0.3013
 3007TIP3    H130512   4.146   1.179  15.708  1.3685  1.6754 -0.5539
 3007TIP3    H230513   4.103   1.256  15.584 -1.6125  2.1004  0.7037
 3008TIP3   OH230514   4.978   3.311  13.277  0.4220 -0.0577  0.1664
 3008TIP3    H130515   4.932   3.392  13.299 -0.3507 -0.6573  0.7686
 3008TIP3    H230516   4.911   3.242  13.285  1.2075 -0.8248  0.1967
 3009TIP3   OH230517   0.704   1.644  14.867  0.3417 -0.2529 -0.2244
 3009TIP3    H130518   0.729   1.587  14.794 -2.1533 -0.5299 -0.9326
 3009TIP3    H230519   0.657   1.716  14.825 -1.8109 -0.8190  1.1312
 3010TIP3   OH230520   5.342   5.883   5.158  0.2032  0.0956 -0.0128
 3010TIP3    H130521   5.351   5.967   5.115 -0.7921  0.8904  1.2866
 3010TIP3    H230522   5.407   5.884   5.229 -0.2958  0.0691  0.4509
 3011TIP3   OH230523   5.443   4.954  13.216 -0.7885 -0.0839 -0.3135
 3011TIP3    H130524   5.423   5.032  13.268  2.6384  1.2400 -0.8572
 3011TIP3    H230525   5.481   4.989  13.135 -0.4330 -2.2976 -1.1379
 3012TIP3   OH230526   2.230   2.389  17.054  0.2166  0.3712  0.1442
 3012TIP3    H130527   2.308   2.350  17.014 -1.4424 -0.7846 -2.0444
 3012TIP3    H230528   2.192   2.443  16.985 -0.8438  1.0922  1.2664
 3013TIP3   OH230529   5.347   1.573   5.129  0.5249 -0.3085  0.1067
 3013TIP3    H130530   5.347   1.663   5.095  0.4260 -0.4431 -0.2528
 3013TIP3    H230531   5.408   1.575   5.202  0.1912  0.1591  0.3808
 3014TIP3   OH230532   4.540   5.769   4.888  0.1705 -0.2028  0.6347
 3014TIP3    H130533   4.617   5.769   4.945 -0.6882 -1.4862  1.8061
 3014TIP3    H230534   4.569   5.722   4.810  1.0222  0.6332  0.4282
 3015TIP3   OH230535   2.015   0.159  15.806  0.0687 -0.3723 -0.0390
 3015TIP3    H130536   2.050   0.102  15.874  1.0360 -0.2170 -0.4065
 3015TIP3    H230537   2.039   0.248  15.833  0.0363 -0.2713 -0.3306
 3016TIP3   OH230538   0.282   6.559   3.243  0.1465  0.1739  0.2277
 3016TIP3    H130539   0.231   6.640   3.242 -0.4480 -0.2091 -0.4127
 3016TIP3    H230540   0.284   6.533   3.335 -0.4290  0.4291  0.3119
 3017TIP3   OH230541   2.997   5.545  14.484 -0.0649  0.1992  0.0440
 3017TIP3    H130542   3.081   5.584  14.463 -0.2836  0.7369  0.1477
 3017TIP3    H230543   2.935   5.618  14.481 -0.7028 -0.3762 -1.0792
 3018TIP3   OH230544   6.464   3.158   3.748 -0.2232 -0.3346  0.2996
 3018TIP3    H130545   6.477   3.229   3.685  2.0057 -0.2693  0.7703
 3018TIP3    H230546   6.467   3.078   3.695 -2.5513 -0.1077 -0.2068
 3019TIP3   OH230547   1.963   1.678   6.078  0.2005  0.1402  0.4130
 3019TIP3    H130548   1.885   1.631   6.050  0.6910 -0.4486  0.0153
 3019TIP3    H230549   2.002   1.709   5.996  2.3841 -2.7419  0.3165
 3020TIP3   OH230550   2.837   1.700  11.816 -0.2545  0.2221 -0.3829
 3020TIP3    H130551   2.923   1.657  11.814 -0.1769  0.1873  1.8749
 3020TIP3    H230552   2.774   1.629  11.808 -0.0946  0.0811 -0.4014
 3021TIP3   OH230553   1.682   1.761   2.175 -0.2561  0.2023 -0.4332
 3021TIP3    H130554   1.732   1.785   2.098  0.4553 -0.8158 -0.2972
 3021TIP3    H230555   1.610   1.707   2.142 -0.7039  0.8544 -0.5240
 3022TIP3   OH230556   6.581   1.657   3.943 -0.1471 -0.2568 -0.3264
 3022TIP3    H130557   6.581   1.698   3.856  1.9243  0.5456  0.0199
 3022TIP3    H230558   6.649   1.705   3.991 -0.1019 -1.8331  1.1992
 3023TIP3   OH230559   4.542   1.560  15.842 -0.1282  0.7209  0.0964
 3023TIP3    H130560   4.463   1.594  15.802 -0.2824  0.0594 -0.1647
 3023TIP3    H230561   4.520   1.470  15.867  0.9249  0.1088 -1.1206
 3024TIP3   OH230562   3.117   3.718   1.306  0.0292 -0.2301  0.2817
 3024TIP3    H130563   3.057   3.728   1.380 -0.7806 -1.4978 -0.1625
 3024TIP3    H230564   3.204   3.714   1.345 -0.3190 -0.0530  1.0912
 3025TIP3   OH230565   4.549   4.999   1.581 -0.0682 -0.0688  0.4738
 3025TIP3    H130566   4.569   5.079   1.629  1.0885  0.7902 -1.3896
 3025TIP3    H230567   4.474   4.961   1.628  0.1988  1.4071  2.1480
 3026TIP3   OH230568   0.635   6.167  10.905  0.2155  0.5530  1.1874
 3026TIP3    H130569   0.545   6.138  10.890  0.4466  0.9298 -1.1167
 3026TIP3    H230570   0.684   6.086  10.919 -0.1076  0.1920  0.2739
 3027TIP3   OH230571   5.886   0.937   5.384  0.1864 -0.5671  0.6295
 3027TIP3    H130572   5.963   0.935   5.441 -0.2759  0.5402  1.3069
 3027TIP3    H230573   5.818   0.978   5.437 -0.7360 -1.0996 -0.1366
 3028TIP3   OH230574   5.936   2.454  10.837  0.7815 -0.0751 -0.1875
 3028TIP3    H130575   6.023   2.488  10.859  0.7227  1.0845 -1.6368
 3028TIP3    H230576   5.878   2.489  10.905  1.5077 -1.2294  1.0450
 3029TIP3   OH230577   3.932   3.167   1.733  0.2136  0.0416 -0.2718
 3029TIP3    H130578   3.839   3.143   1.733  0.0268  0.7539 -0.3649
 3029TIP3    H230579   3.952   3.183   1.641 -0.0398  1.6584 -0.0589
 3030TIP3   OH230580   4.894   5.786   5.428  0.0231 -0.3902 -0.4108
 3030TIP3    H130581   4.921   5.704   5.470 -0.1799  0.4959  1.5112
 3030TIP3    H230582   4.922   5.777   5.337  1.9790 -1.7144  0.2800
 3031TIP3   OH230583   1.232   3.985  10.531  0.2360  0.4687  0.0364
 3031TIP3    H130584   1.258   4.032  10.451  0.2762  0.5404  0.0905
 3031TIP3    H230585   1.184   4.050  10.582  0.0127  0.3552 -0.0324
 3032TIP3   OH230586   0.017   3.648  14.774 -0.1505 -0.8049  0.2745
 3032TIP3    H130587   0.002   3.733  14.733  2.1460 -0.0855  0.8613
 3032TIP3    H230588  -0.047   3.590  14.733 -0.6815  0.8358 -1.2839
 3033TIP3   OH230589   1.041   5.609   5.900 -0.0264 -0.0744  0.1119
 3033TIP3    H130590   1.111   5.564   5.948  0.2996  1.1124  0.7648
 3033TIP3    H230591   0.972   5.543   5.890  0.4786 -0.7418  0.9889
 3034TIP3   OH230592   2.633   2.307   0.825  0.3038  0.2921 -0.1961
 3034TIP3    H130593   2.687   2.263   0.759  0.5466  0.5789 -0.1901
 3034TIP3    H230594   2.630   2.245   0.898  0.5038  0.2131 -0.2539
 3035TIP3   OH230595   3.538   4.561   3.452  0.4031  0.0288 -0.1658
 3035TIP3    H130596   3.455   4.604   3.430  0.3680 -0.5881 -1.2688
 3035TIP3    H230597   3.602   4.599   3.392  1.0226  0.8276  0.9806
 3036TIP3   OH230598   1.179   0.565   2.749  0.7324  0.2703 -0.2732
 3036TIP3    H130599   1.265   0.575   2.790  0.9014 -0.2929 -0.4765
 3036TIP3    H230600   1.167   0.470   2.744  0.6795  0.3288 -1.4451
 3037TIP3   OH230601   0.832   1.055   4.500  0.3745  0.5077 -0.3474
 3037TIP3    H130602   0.817   1.149   4.507 -0.1069  0.5216 -1.5649
 3037TIP3    H230603   0.766   1.024   4.439  1.9377 -0.2802 -1.6688
 3038TIP3   OH230604   3.901   1.182   3.320  0.2787  0.1843  0.6636
 3038TIP3    H130605   3.881   1.250   3.255  1.5674  1.0088  1.0939
 3038TIP3    H230606   3.913   1.231   3.401  0.7214 -0.6214  1.0841
 3039TIP3   OH230607   4.280   1.700  13.004  0.0619  0.1353 -0.8501
 3039TIP3    H130608   4.374   1.694  13.018  0.0775 -0.6288 -1.2315
 3039TIP3    H230609   4.247   1.747  13.080  0.5152 -1.3383  0.2863
 3040TIP3   OH230610   0.269   0.199  13.351 -0.1267  0.2601 -0.3094
 3040TIP3    H130611   0.217   0.120  13.337 -0.7663  0.5048  0.6197
 3040TIP3    H230612   0.282   0.202  13.446 -0.5964  1.5744 -0.2812
 3041TIP3   OH230613   2.102   2.743  14.375 -0.0715  0.5070  0.5726
 3041TIP3    H130614   2.088   2.727  14.282 -1.7592 -1.3728  1.1014
 3041TIP3    H230615   2.061   2.828  14.392  1.6002  1.5841 -0.6765
 3042TIP3   OH230616   5.123   6.791  12.883 -0.2025  1.2185 -0.4456
 3042TIP3    H130617   5.187   6.785  12.954 -1.2732 -0.5332  0.4252
 3042TIP3    H230618   5.160   6.855  12.822  2.7268 -0.2846 -0.3316
 3043TIP3   OH230619   3.294   4.731  13.245  0.0972 -0.3118 -0.2692
 3043TIP3    H130620   3.374   4.705  13.200 -0.2414 -1.5155 -0.2093
 3043TIP3    H230621   3.265   4.810  13.200  0.5588 -0.6683 -1.2027
 3044TIP3   OH230622   3.708   5.141  14.413 -0.0431  0.0028 -0.4505
 3044TIP3    H130623   3.635   5.158  14.353  0.0542  0.0988 -0.5414
 3044TIP3    H230624   3.757   5.071  14.370 -0.8166 -0.9937  0.2405
 3045TIP3   OH230625   5.756   5.841   0.784  0.2665 -0.3775 -0.1504
 3045TIP3    H130626   5.701   5.818   0.859  0.0529 -0.3263 -0.2910
 3045TIP3    H230627   5.695   5.843   0.709  0.3872  0.0581 -0.2401
 3046TIP3   OH230628   0.881   4.944   0.882 -0.6069  0.0705 -0.2439
 3046TIP3    H130629   0.931   4.987   0.813  3.0629 -0.1367  2.1384
 3046TIP3    H230630   0.826   4.881   0.837  1.0116  0.5864 -3.0398
 3047TIP3   OH230631   1.557   0.568  16.249 -0.0197  0.4749  0.5955
 3047TIP3    H130632   1.537   0.543  16.159  0.1947  0.5378  0.5301
 3047TIP3    H230633   1.482   0.539  16.299 -0.1021  0.3640  0.4083
 3048TIP3   OH230634   2.739   0.844  13.080  0.3525  1.1214 -0.0778
 3048TIP3    H130635   2.672   0.835  13.013 -1.8361  0.5161  2.1377
 3048TIP3    H230636   2.777   0.756  13.087 -1.1327  0.5561  1.1868
 3049TIP3   OH230637   2.229   6.360   2.437  0.9771  0.1698  0.2268
 3049TIP3    H130638   2.322   6.374   2.454  0.6180  0.4300  2.1290
 3049TIP3    H230639   2.225   6.277   2.389  2.1135 -0.3265  0.9764
 3050TIP3   OH230640   1.404   3.311   4.805 -0.3377 -0.0834 -0.1707
 3050TIP3    H130641   1.417   3.224   4.768  0.4279 -0.2526  0.4755
 3050TIP3    H230642   1.315   3.336   4.779 -0.3163 -0.7783 -0.9140
 3051TIP3   OH230643   2.363   4.457   3.524  0.9191 -0.3743  0.6509
 3051TIP3    H130644   2.306   4.516   3.573  2.9659  2.9786 -0.8323
 3051TIP3    H230645   2.309   4.426   3.451  0.1083  0.4595  0.8874
 3052TIP3   OH230646   5.203   4.640  14.254  0.0987 -0.0174 -0.4750
 3052TIP3    H130647   5.156   4.607  14.177 -1.3360  0.8040  0.0122
 3052TIP3    H230648   5.140   4.631  14.325  0.8141  0.8022  0.2722
 3053TIP3   OH230649   5.873   3.297  11.349 -0.6342 -0.1641  0.2352
 3053TIP3    H130650   5.936   3.369  11.358 -2.4524  1.5179 -0.3569
 3053TIP3    H230651   5.912   3.239  11.284  1.1100 -0.0104  1.1119
 3054TIP3   OH230652   6.218   0.320  12.062  0.7014 -0.1041  0.0341
 3054TIP3    H130653   6.240   0.228  12.083  1.6093 -0.3120 -1.7463
 3054TIP3    H230654   6.124   0.319  12.047  0.2681 -0.2384  2.5519
 3055TIP3   OH230655   5.474   2.778  12.342  1.0109 -0.7545  0.1489
 3055TIP3    H130656   5.394   2.816  12.305  0.4542 -2.2574 -0.2097
 3055TIP3    H230657   5.541   2.845  12.328  0.0502  0.0937 -0.4819
 3056TIP3   OH230658   4.365   5.032   4.203  0.1908 -0.1145  0.1122
 3056TIP3    H130659   4.284   5.002   4.162 -0.4636  0.5268  0.9186
 3056TIP3    H230660   4.379   4.971   4.275 -0.5797  0.8667  1.1091
 3057TIP3   OH230661   4.708   0.456   5.031 -0.2456 -0.2182  0.6323
 3057TIP3    H130662   4.786   0.431   5.080 -0.2289 -3.2154 -0.8081
 3057TIP3    H230663   4.641   0.469   5.097  0.6537 -0.8276  1.6701
 3058TIP3   OH230664   1.978   3.206   3.572 -0.2364  0.4872  0.5554
 3058TIP3    H130665   1.928   3.217   3.654 -0.5989  1.7583  0.1708
 3058TIP3    H230666   2.066   3.237   3.593 -0.1175  0.0880  0.6681
 3059TIP3   OH230667   3.776   3.332  11.447 -0.1603  0.3432 -0.0203
 3059TIP3    H130668   3.726   3.396  11.498  0.7793  1.1550 -0.0937
 3059TIP3    H230669   3.799   3.378  11.366 -1.0836 -0.7276 -0.8860
 3060TIP3   OH230670   5.309   1.631  16.510  0.3056 -0.3400 -0.3743
 3060TIP3    H130671   5.337   1.577  16.584 -1.8726 -1.5246 -0.3721
 3060TIP3    H230672   5.282   1.714  16.550  0.5867 -0.4203 -0.0137
 3061TIP3   OH230673   4.433   4.944  16.444  0.7066 -0.0382  0.1009
 3061TIP3    H130674   4.517   4.968  16.484  0.1414 -0.7912  1.7970
 3061TIP3    H230675   4.397   5.027  16.414  1.7740  0.3747 -0.0763
 3062TIP3   OH230676   2.167   1.628   4.516  0.3362  0.5929  0.1172
 3062TIP3    H130677   2.193   1.635   4.607 -0.2826 -1.6651  0.4901
 3062TIP3    H230678   2.077   1.594   4.519  0.8313 -0.8848 -1.3586
 3063TIP3   OH230679   3.166   4.216  16.520  0.2674 -0.3717 -0.0433
 3063TIP3    H130680   3.237   4.161  16.487  1.2032  0.6085  0.2907
 3063TIP3    H230681   3.200   4.254  16.601 -0.3757  0.6522 -0.2414
 3064TIP3   OH230682   3.662   0.841   5.447  0.1994  0.5879  0.4135
 3064TIP3    H130683   3.571   0.810   5.445  0.8637 -1.7729  3.1438
 3064TIP3    H230684   3.675   0.882   5.362 -2.3578 -2.2528 -1.4640
 3065TIP3   OH230685   4.830   1.007  15.744 -0.6442 -0.1834  0.2690
 3065TIP3    H130686   4.906   1.047  15.703 -0.7802  1.0149  1.1579
 3065TIP3    H230687   4.756   1.062  15.717 -1.1141 -0.9587 -0.0623
 3066TIP3   OH230688   4.192   4.553  15.895 -0.8352 -0.3005 -0.7072
 3066TIP3    H130689   4.226   4.482  15.950  0.1850 -0.5100 -1.5945
 3066TIP3    H230690   4.099   4.557  15.917 -0.6735 -1.1368  0.2018
 3067TIP3   OH230691   3.968   0.088   5.168  0.4294  0.5680  0.0366
 3067TIP3    H130692   3.987   0.140   5.246 -1.0146 -0.4342  1.0649
 3067TIP3    H230693   4.034   0.019   5.169  0.6913  0.8175  0.1135
 3068TIP3   OH230694   4.741   4.483  15.202 -0.0145 -0.1470 -0.0366
 3068TIP3    H130695   4.661   4.432  15.182  1.1056 -1.1060 -2.3107
 3068TIP3    H230696   4.767   4.519  15.117  0.5810  2.2789  1.1454
 3069TIP3   OH230697   4.214   3.843  14.483 -0.0798  0.2840 -0.3149
 3069TIP3    H130698   4.156   3.844  14.559 -0.2793 -0.0371 -0.4637
 3069TIP3    H230699   4.255   3.930  14.483 -0.9777  0.7188 -0.5334
 3070TIP3   OH230700   0.359   3.411   5.692  0.2773  0.4146  0.4718
 3070TIP3    H130701   0.417   3.339   5.719  2.2453  1.2990 -1.2074
 3070TIP3    H230702   0.383   3.428   5.601 -0.9738  2.4091  0.4787
 3071TIP3   OH230703   0.402   4.061   2.272 -0.2084 -0.0070 -0.1414
 3071TIP3    H130704   0.484   4.011   2.279 -1.7006 -2.4442  0.7064
 3071TIP3    H230705   0.368   4.037   2.185 -0.5501  0.1483 -0.0483
 3072TIP3   OH230706   0.592   1.011   3.732  0.3840 -0.5598 -0.1288
 3072TIP3    H130707   0.572   0.941   3.795  1.5390 -0.0652  0.8116
 3072TIP3    H230708   0.568   0.975   3.647 -1.1866 -1.2572  0.5889
 3073TIP3   OH230709   3.339   6.054  10.240  0.4607  0.2983  0.6017
 3073TIP3    H130710   3.325   6.002  10.319 -0.6979  1.2976  1.0665
 3073TIP3    H230711   3.253   6.088  10.218  0.7994  0.1160 -1.0318
 3074TIP3   OH230712   6.814   2.837  15.546  0.2843  1.1927 -0.5314
 3074TIP3    H130713   6.897   2.877  15.519  0.9575 -1.1852 -2.1525
 3074TIP3    H230714   6.755   2.851  15.472  0.1188  0.3891 -0.5590
 3075TIP3   OH230715   1.558   0.986   1.304 -0.1787  0.2981 -0.4254
 3075TIP3    H130716   1.633   1.043   1.292 -0.1197  0.1645 -0.6827
 3075TIP3    H230717   1.583   0.929   1.377  0.1002  0.0293 -0.7332
 3076TIP3   OH230718   1.463   1.135  14.983  0.1080 -0.3808 -0.7300
 3076TIP3    H130719   1.372   1.161  14.966  0.3186  0.9658  0.1873
 3076TIP3    H230720   1.479   1.160  15.074  1.1268 -1.4262 -0.6099
 3077TIP3   OH230721   2.505   2.101   5.599 -0.6313 -0.4533 -0.5734
 3077TIP3    H130722   2.522   2.146   5.681 -1.0163  0.8851 -1.2251
 3077TIP3    H230723   2.592   2.076   5.567 -0.3229  0.8914 -0.8105
 3078TIP3   OH230724   5.383   0.126  12.081 -0.8054  0.2828 -0.1376
 3078TIP3    H130725   5.434   0.161  12.008 -0.0160 -0.1076  0.2146
 3078TIP3    H230726   5.427   0.161  12.159 -0.5955 -0.6964  0.1939
 3079TIP3   OH230727   3.108   4.532   1.257  0.0627 -0.2414 -0.4531
 3079TIP3    H130728   3.171   4.569   1.195 -0.0474 -0.7107 -0.8524
 3079TIP3    H230729   3.148   4.547   1.343 -0.1216  1.0411 -0.5872
 3080TIP3   OH230730   4.496   0.870   2.225 -0.0139  0.2810  0.3280
 3080TIP3    H130731   4.584   0.833   2.226  0.1094  0.5680  0.2588
 3080TIP3    H230732   4.479   0.894   2.316 -0.7396 -1.4474  0.6475
 3081TIP3   OH230733   2.361   4.951  13.738 -0.0884 -0.5644  0.2603
 3081TIP3    H130734   2.327   5.041  13.733 -0.3211 -0.5520  1.8198
 3081TIP3    H230735   2.409   4.939  13.657  0.3032  1.1300  0.2306
 3082TIP3   OH230736   1.476   2.640   2.288  0.2118 -0.1045  0.3209
 3082TIP3    H130737   1.448   2.647   2.380  0.7317  0.0632  0.4694
 3082TIP3    H230738   1.410   2.584   2.247 -0.0976 -0.0714  0.7658
 3083TIP3   OH230739   4.589   0.081   3.835 -0.6260  0.2860  0.0744
 3083TIP3    H130740   4.536   0.024   3.890  0.2458 -1.4485 -0.8029
 3083TIP3    H230741   4.531   0.107   3.764 -0.3843 -1.4776 -0.8006
 3084TIP3   OH230742   3.714   1.608  15.604 -0.3826  0.2031 -0.4097
 3084TIP3    H130743   3.751   1.599  15.516  0.4382 -0.2483 -0.0208
 3084TIP3    H230744   3.773   1.557  15.660 -1.4821 -0.3407  0.2473
 3085TIP3   OH230745   4.777   6.541   0.275 -0.6092 -0.0638  0.0827
 3085TIP3    H130746   4.823   6.461   0.251 -1.0333 -0.2742 -0.0401
 3085TIP3    H230747   4.846   6.603   0.300 -0.3134 -0.7062  0.8892
 3086TIP3   OH230748   5.444   4.230  14.424 -0.6918  1.0872 -0.7372
 3086TIP3    H130749   5.364   4.281  14.415 -2.1020 -0.5643  2.0079
 3086TIP3    H230750   5.487   4.265  14.502 -0.5418 -0.4212 -0.1316
 3087TIP3   OH230751   2.953   3.655   0.128  0.2153  0.6035 -0.1434
 3087TIP3    H130752   3.017   3.695   0.187 -0.2985  2.0512 -0.5396
 3087TIP3    H230753   2.930   3.725   0.067 -0.3620 -0.4455 -1.1426
 3088TIP3   OH230754   1.425   0.420  13.521 -0.5346  0.0056  0.2780
 3088TIP3    H130755   1.446   0.422  13.427  0.0389 -1.8677  0.3357
 3088TIP3    H230756   1.454   0.505  13.554  0.9246 -0.0030 -0.9163
 3089TIP3   OH230757   3.239   4.585   3.604  0.3959 -0.0857 -0.1353
 3089TIP3    H130758   3.156   4.565   3.561 -0.1096  1.1199  0.2728
 3089TIP3    H230759   3.258   4.676   3.580  1.1208 -0.0428  0.5564
 3090TIP3   OH230760   4.176   2.973  17.063  0.4668 -0.1119  0.1043
 3090TIP3    H130761   4.165   2.975  16.968  1.6432  0.7496 -0.0254
 3090TIP3    H230762   4.229   3.050  17.083  1.1963 -0.9109  1.3289
 3091TIP3   OH230763   5.834   1.354   1.906  0.2332 -0.0603 -0.4790
 3091TIP3    H130764   5.780   1.378   1.982 -0.9161 -0.8002 -1.0427
 3091TIP3    H230765   5.855   1.262   1.920  0.8185  0.0609 -0.5787
 3092TIP3   OH230766   5.412   0.697  15.332  0.9703  0.2813 -0.5345
 3092TIP3    H130767   5.468   0.771  15.308 -1.0445  1.6853 -1.0438
 3092TIP3    H230768   5.452   0.622  15.288  2.3788  1.2647 -0.9694
 3093TIP3   OH230769   5.542   0.118   2.490  0.1623 -0.1821 -0.1301
 3093TIP3    H130770   5.605   0.093   2.557  0.4647 -0.4550 -0.5171
 3093TIP3    H230771   5.487   0.184   2.533 -0.1146 -0.8953  0.6194
 3094TIP3   OH230772   2.592   0.780  14.581  0.4104  0.2441  0.0826
 3094TIP3    H130773   2.579   0.797  14.487  1.0005  2.2024  0.3388
 3094TIP3    H230774   2.585   0.685  14.589 -1.6753  0.2157 -1.6374
 3095TIP3   OH230775   6.239   4.000   3.679 -0.2281 -0.2964  0.1692
 3095TIP3    H130776   6.197   3.954   3.752  0.1436 -1.0335 -0.0788
 3095TIP3    H230777   6.168   4.045   3.635 -0.9166 -2.2681 -0.7956
 3096TIP3   OH230778   2.084   4.452   4.991 -0.0547  0.0172  0.0557
 3096TIP3    H130779   2.039   4.382   5.037 -0.3643 -1.3400 -2.2273
 3096TIP3    H230780   2.164   4.467   5.041 -1.7425  0.6351  2.6521
 3097TIP3   OH230781   5.637   1.098  14.610  0.1864 -0.5909 -0.1459
 3097TIP3    H130782   5.552   1.068  14.577 -0.0179 -3.0912  2.4338
 3097TIP3    H230783   5.616   1.139  14.694  1.2001  1.6342 -0.9479
 3098TIP3   OH230784   3.104   6.217   4.240 -0.4081 -0.2975 -0.3753
 3098TIP3    H130785   3.106   6.228   4.335 -0.9243 -1.4440 -0.2154
 3098TIP3    H230786   3.011   6.200   4.221 -0.3154  0.0119 -1.0953
 3099TIP3   OH230787   2.606   5.267  14.563 -0.4396 -0.3352  0.5766
 3099TIP3    H130788   2.637   5.321  14.490 -1.5189  0.6505  0.8507
 3099TIP3    H230789   2.667   5.286  14.634  0.1058 -0.6594  0.2034
 3100TIP3   OH230790   5.813   3.086  10.884  0.2755 -0.1988  0.1676
 3100TIP3    H130791   5.741   3.096  10.822  1.0887 -1.8632 -1.0748
 3100TIP3    H230792   5.797   3.003  10.927  0.5544  0.2229  1.1070
 3101TIP3   OH230793   1.082   6.014   4.612  0.2621  0.1453 -0.1326
 3101TIP3    H130794   1.016   6.068   4.655 -0.6735 -1.6232  0.7272
 3101TIP3    H230795   1.053   6.009   4.521  0.3718  1.1228 -0.2189
 3102TIP3   OH230796   2.090   1.483   5.267  0.5097  0.0035  0.3360
 3102TIP3    H130797   2.117   1.530   5.188 -0.4453 -0.2503 -0.1459
 3102TIP3    H230798   1.995   1.473   5.258 -0.0006  2.2403  2.7495
 3103TIP3   OH230799   6.603   3.940   2.244 -0.6443 -0.0390  0.4573
 3103TIP3    H130800   6.622   3.958   2.152  1.3289 -2.6233  0.3161
 3103TIP3    H230801   6.683   3.967   2.290 -0.3452 -1.8185  1.0083
 3104TIP3   OH230802   0.235   6.724   1.240  0.2267 -0.0302 -0.1337
 3104TIP3    H130803   0.230   6.768   1.155 -1.8504 -1.2413 -0.6846
 3104TIP3    H230804   0.257   6.794   1.302  1.2784  0.9577 -1.5974
 3105TIP3   OH230805   1.741   1.861  16.658  0.2049 -0.5354  1.0002
 3105TIP3    H130806   1.778   1.925  16.597  0.6776 -2.4963 -0.8330
 3105TIP3    H230807   1.817   1.830  16.709  0.5527 -2.0332 -0.3946
 3106TIP3   OH230808   0.624   4.322   4.939 -0.4840 -0.2127 -0.1482
 3106TIP3    H130809   0.650   4.382   5.008  1.7316  1.6161 -2.4477
 3106TIP3    H230810   0.588   4.378   4.870  0.2447 -1.6437 -1.7506
 3107TIP3   OH230811   6.579   5.328   4.591 -0.4905  0.1026  0.0487
 3107TIP3    H130812   6.667   5.352   4.561 -1.1076 -0.7134 -2.5193
 3107TIP3    H230813   6.591   5.244   4.635 -0.0535 -0.2640 -0.7549
 3108TIP3   OH230814   5.165   2.323  17.255  0.5183  0.3370  0.0332
 3108TIP3    H130815   5.143   2.240  17.214  1.0874  0.0402  0.3284
 3108TIP3    H230816   5.258   2.316  17.276  0.7534  1.3363 -0.6314
 3109TIP3   OH230817   0.944   2.004  12.716 -1.0505 -0.0524 -0.5337
 3109TIP3    H130818   0.938   2.061  12.793 -0.2760 -2.7525  1.6304
 3109TIP3    H230819   0.853   1.988  12.690 -1.3186  0.8143 -0.1408
 3110TIP3   OH230820   4.279   6.555  15.873  0.7825 -0.2221  0.4129
 3110TIP3    H130821   4.261   6.518  15.786  0.7819  0.2695  0.2001
 3110TIP3    H230822   4.302   6.480  15.927 -0.7641 -0.7308  0.3944
 3111TIP3   OH230823   4.067   2.101  12.469 -0.2034  0.3625  0.3067
 3111TIP3    H130824   4.140   2.143  12.513 -1.0404  1.6980  0.4605
 3111TIP3    H230825   4.052   2.020  12.517  0.0962  0.8981  1.2988
 3112TIP3   OH230826   3.246   4.023   5.762 -0.0364 -0.2776 -0.3707
 3112TIP3    H130827   3.207   3.942   5.795  1.9441 -0.8042  0.7544
 3112TIP3    H230828   3.184   4.055   5.696 -2.3255 -1.0837  1.3515
 3113TIP3   OH230829   0.248   1.892  16.821 -0.6171 -0.9665  0.0307
 3113TIP3    H130830   0.299   1.939  16.755 -0.6487  0.4447  0.9692
 3113TIP3    H230831   0.210   1.818  16.775 -0.6263 -0.0088 -1.5221
 3114TIP3   OH230832   3.813   0.848  16.220 -0.0124 -0.3124 -0.1929
 3114TIP3    H130833   3.821   0.775  16.158 -0.3100 -2.4346  2.2086
 3114TIP3    H230834   3.880   0.911  16.192  2.6050 -3.0330 -0.2240
 3115TIP3   OH230835   0.251   5.140  14.334  0.2309  0.4184  0.3540
 3115TIP3    H130836   0.286   5.109  14.418  0.3257 -2.1399 -0.5894
 3115TIP3    H230837   0.286   5.079  14.269  0.9696  2.9429 -1.7075
 3116TIP3   OH230838   3.676   3.701   1.675 -0.4232 -0.4123  0.2084
 3116TIP3    H130839   3.648   3.786   1.642 -0.4837 -0.4429  0.1821
 3116TIP3    H230840   3.766   3.716   1.706 -0.4571 -0.3240  0.2651
 3117TIP3   OH230841   6.318   2.151   4.965 -0.1209  0.1099  0.7075
 3117TIP3    H130842   6.270   2.213   4.909  0.0259 -1.3736 -1.0930
 3117TIP3    H230843   6.408   2.182   4.963 -0.1405  0.1342  0.2293
 3118TIP3   OH230844   1.744   3.927  12.000  0.0108 -0.0433  0.2837
 3118TIP3    H130845   1.746   3.877  12.081 -1.8731  0.7634  0.8621
 3118TIP3    H230846   1.733   4.018  12.028  2.4934  0.6357 -0.7845
 3119TIP3   OH230847   4.917   1.259   1.626  0.3242  0.1094 -0.5026
 3119TIP3    H130848   4.880   1.172   1.612  0.3066  0.3489 -2.1163
 3119TIP3    H230849   5.009   1.250   1.599  0.5246  0.3895  0.0958
 3120TIP3   OH230850   4.725   3.786  16.781 -1.0388 -0.1595  0.3601
 3120TIP3    H130851   4.788   3.720  16.807 -0.1619 -0.0302 -1.4113
 3120TIP3    H230852   4.763   3.869  16.809 -1.2083 -0.2188  0.7751
 3121TIP3   OH230853   1.585   1.407   3.306 -0.0331 -0.2778 -0.2606
 3121TIP3    H130854   1.642   1.376   3.236  0.2424  1.4758 -0.8318
 3121TIP3    H230855   1.497   1.406   3.268  0.3419  2.4441 -1.2791
 3122TIP3   OH230856   0.578   6.667   3.777 -0.7433  0.0751 -0.3520
 3122TIP3    H130857   0.555   6.622   3.696 -0.7228  0.1897 -0.4216
 3122TIP3    H230858   0.514   6.636   3.841  0.3533 -1.4182  0.0527
 3123TIP3   OH230859   1.122   5.243  14.564  0.0398 -0.0960 -0.4486
 3123TIP3    H130860   1.070   5.287  14.497 -0.3587 -2.4262 -1.7083
 3123TIP3    H230861   1.057   5.203  14.622  0.3969  0.3521  0.2640
 3124TIP3   OH230862   4.498   4.680   3.142 -0.1839 -0.4485 -0.3640
 3124TIP3    H130863   4.494   4.684   3.237 -0.0878 -1.8134 -0.2937
 3124TIP3    H230864   4.582   4.721   3.120 -0.2311 -0.0804  0.1308
 3125TIP3   OH230865   2.507   6.332  11.676 -0.4630 -0.2116 -0.9122
 3125TIP3    H130866   2.431   6.348  11.732 -0.9995  0.5821 -1.8540
 3125TIP3    H230867   2.475   6.350  11.588  0.5931 -0.6999 -1.3942
 3126TIP3   OH230868   1.210   3.527  11.801  0.1074  0.0420 -0.0142
 3126TIP3    H130869   1.245   3.472  11.731 -0.6030 -1.2272  0.6236
 3126TIP3    H230870   1.271   3.515  11.874  0.5759  0.9892 -0.2324
 3127TIP3   OH230871   6.091   4.945  14.486 -0.2523 -0.2027  0.2004
 3127TIP3    H130872   6.178   4.940  14.448 -0.1850 -1.8564  0.5477
 3127TIP3    H230873   6.032   4.918  14.416 -0.1553 -2.9262  1.1103
 3128TIP3   OH230874   0.273   2.486  15.752 -0.3953  0.2606 -0.0443
 3128TIP3    H130875   0.330   2.454  15.822  2.1132 -1.1464 -2.6327
 3128TIP3    H230876   0.292   2.580  15.747  0.6960  0.0567  0.0416
 3129TIP3   OH230877   0.278   5.089   6.012  0.0228 -0.0945  0.2202
 3129TIP3    H130878   0.207   5.041   5.969  0.8970  0.0748 -1.4854
 3129TIP3    H230879   0.236   5.137   6.083 -1.6676  0.3455 -1.0393
 3130TIP3   OH230880   3.636   2.240  15.796 -0.0315 -0.3227 -0.3017
 3130TIP3    H130881   3.598   2.327  15.788 -0.2430 -0.1888  1.9496
 3130TIP3    H230882   3.560   2.181  15.799 -0.0272 -0.2493  1.9010
 3131TIP3   OH230883   5.273   3.781   1.862  0.4317  0.8282  0.0458
 3131TIP3    H130884   5.235   3.836   1.793  0.6539  2.0572  0.8951
 3131TIP3    H230885   5.220   3.701   1.860  0.8136  0.6099 -1.9368
 3132TIP3   OH230886   4.267   4.734   3.009  0.3348 -0.5654 -0.5081
 3132TIP3    H130887   4.342   4.731   3.068  0.8822 -0.1589 -1.1810
 3132TIP3    H230888   4.305   4.739   2.921 -0.4770  0.0481 -0.8336
 3133TIP3   OH230889   1.462   5.927   4.116 -0.2398  0.1903  0.3238
 3133TIP3    H130890   1.550   5.957   4.091  0.1221  1.5065  2.9235
 3133TIP3    H230891   1.413   6.008   4.132 -0.9511 -0.5367  1.9694
 3134TIP3   OH230892   4.993   0.187   0.679  0.1285 -0.6715 -0.2386
 3134TIP3    H130893   4.906   0.151   0.699  0.1711 -0.9080 -0.4809
 3134TIP3    H230894   4.981   0.234   0.596  0.5410 -1.8518 -0.9834
 3135TIP3   OH230895   1.771   2.238  14.490  0.2785  0.0329 -0.3848
 3135TIP3    H130896   1.747   2.194  14.571 -1.4727 -1.7587 -1.8066
 3135TIP3    H230897   1.863   2.216  14.477  0.6966  0.7151  1.3215
 3136TIP3   OH230898   2.569   0.331  11.385  0.5861  0.2650 -0.4698
 3136TIP3    H130899   2.492   0.387  11.378 -0.4360 -0.5130  3.1833
 3136TIP3    H230900   2.535   0.248  11.418  2.7289 -0.8055 -0.8732
 3137TIP3   OH230901   0.251   2.864  17.270 -0.1919 -0.0092 -0.2921
 3137TIP3    H130902   0.191   2.889  17.341  0.8291  2.3247 -0.2197
 3137TIP3    H230903   0.323   2.925  17.277  1.0154 -1.2003 -1.9736
 3138TIP3   OH230904   0.289   6.149   4.477  0.0944  0.5812  0.3343
 3138TIP3    H130905   0.295   6.111   4.565 -0.3311 -1.5739 -0.5368
 3138TIP3    H230906   0.243   6.231   4.490  0.4208  0.5007  2.1942
 3139TIP3   OH230907   3.258   0.038  12.196 -0.1671 -0.7271  0.2612
 3139TIP3    H130908   3.173  -0.005  12.207 -0.0790 -1.3537 -1.3976
 3139TIP3    H230909   3.237   0.128  12.170 -0.3268 -0.8845 -0.1535
 3140TIP3   OH230910   0.757   4.458   2.748 -0.0023 -0.2847 -0.4566
 3140TIP3    H130911   0.811   4.518   2.697  0.4448 -1.3264 -1.2294
 3140TIP3    H230912   0.704   4.412   2.683 -0.4313 -0.6356  0.1333
 3141TIP3   OH230913   1.871   3.294  17.243  0.2808 -0.4601 -0.8229
 3141TIP3    H130914   1.778   3.279  17.256  0.6561 -1.5514  0.7765
 3141TIP3    H230915   1.913   3.216  17.280  1.9428  1.3210  1.2186
 3142TIP3   OH230916   6.120   1.887  13.684 -0.0933 -0.1677 -0.5326
 3142TIP3    H130917   6.068   1.899  13.763  0.8395 -1.5814  0.3142
 3142TIP3    H230918   6.081   1.810  13.641  0.5892 -0.5566 -0.4628
 3143TIP3   OH230919   6.417   1.915  13.429 -0.2146 -0.4318 -0.3026
 3143TIP3    H130920   6.368   1.849  13.477  0.0194  1.2025  2.2657
 3143TIP3    H230921   6.509   1.900  13.453  0.0872 -0.5950 -1.5015
 3144TIP3   OH230922   5.562   0.607   2.972  0.3239  0.5769  0.3139
 3144TIP3    H130923   5.480   0.657   2.973  0.4113  0.7601 -0.9733
 3144TIP3    H230924   5.629   0.671   2.949  0.4555 -0.1054 -1.2154
 3145TIP3   OH230925   0.194   5.883   2.828  0.1605  0.4925  0.5056
 3145TIP3    H130926   0.177   5.919   2.741 -1.1550  0.1706  0.6317
 3145TIP3    H230927   0.187   5.957   2.887 -2.1164  0.1524  0.7117
 3146TIP3   OH230928   4.324   6.378   3.424 -0.0661  0.8089  0.0129
 3146TIP3    H130929   4.346   6.468   3.399 -0.0210  0.8355  0.1493
 3146TIP3    H230930   4.311   6.332   3.341  1.4910  0.5328 -0.0831
 3147TIP3   OH230931   3.816   1.675   1.784 -0.7448 -0.0337  0.0604
 3147TIP3    H130932   3.821   1.704   1.875  2.9416  2.2782 -0.7977
 3147TIP3    H230933   3.745   1.727   1.746 -0.6190  0.8324  0.9857
 3148TIP3   OH230934   4.348   2.018   5.270  0.1664  0.5070 -0.2870
 3148TIP3    H130935   4.284   1.954   5.301  0.3119  0.6951  0.4061
 3148TIP3    H230936   4.433   1.977   5.287  0.2618  0.9408  0.2782
 3149TIP3   OH230937   1.656   4.870  15.663 -0.0171 -0.5065  0.3273
 3149TIP3    H130938   1.563   4.857  15.643  0.9879 -3.2432 -2.9651
 3149TIP3    H230939   1.675   4.957  15.629 -0.7578 -1.0718 -1.6285
 3150TIP3   OH230940   5.276   1.485   4.118 -0.3243  0.1229 -0.2735
 3150TIP3    H130941   5.311   1.574   4.127  0.6772 -0.4359  1.7183
 3150TIP3    H230942   5.345   1.437   4.072 -0.5046  0.1862 -0.6053
 3151TIP3   OH230943   3.468   2.876  15.935 -0.2554  0.0741  0.1308
 3151TIP3    H130944   3.430   2.878  16.023  3.7558 -1.1656  2.0244
 3151TIP3    H230945   3.505   2.788  15.927  1.0978  0.8089 -2.0702
 3152TIP3   OH230946   2.451   6.023  11.536  0.5440 -0.0707  0.1020
 3152TIP3    H130947   2.424   5.939  11.499  1.3930 -1.3416  2.2798
 3152TIP3    H230948   2.528   6.048  11.485  1.2084 -1.3817  0.4390
 3153TIP3   OH230949   5.142   5.549   1.425 -0.1040 -0.4430  1.0085
 3153TIP3    H130950   5.049   5.548   1.403  0.2962 -2.4675 -0.7973
 3153TIP3    H230951   5.147   5.594   1.509 -2.5495  1.0078  0.4157
 3154TIP3   OH230952   2.946   3.769   2.318  0.2855  0.2396 -0.1665
 3154TIP3    H130953   2.923   3.852   2.360 -1.3036 -1.0323  1.5862
 3154TIP3    H230954   2.994   3.794   2.239 -0.0037  2.8053  0.4308
 3155TIP3   OH230955   3.801   0.993   1.691 -0.1679  0.0103  0.5278
 3155TIP3    H130956   3.838   0.905   1.697 -0.7171 -0.2454  0.2109
 3155TIP3    H230957   3.807   1.015   1.598 -0.4842  0.1091  0.5313
 3156TIP3   OH230958   2.945   5.480  17.278  0.1797  0.3309  0.1178
 3156TIP3    H130959   2.868   5.423  17.280  0.1826  0.3463  0.8795
 3156TIP3    H230960   2.961   5.495  17.185 -2.1843  2.2790 -0.0227
 3157TIP3   OH230961   1.830   4.495   2.595 -0.1496 -0.2443 -0.1527
 3157TIP3    H130962   1.898   4.428   2.586  2.2582  2.1764 -0.5127
 3157TIP3    H230963   1.839   4.525   2.686 -0.1275  0.7213 -0.4721
 3158TIP3   OH230964   0.070   2.276  15.804 -0.1720 -0.5372 -0.7619
 3158TIP3    H130965   0.093   2.359  15.761  1.2327 -0.0096  0.9227
 3158TIP3    H230966  -0.005   2.298  15.859 -0.4356 -0.6225 -1.0892
 3159TIP3   OH230967   2.165   6.272  15.213  0.2949 -0.3757  1.1087
 3159TIP3    H130968   2.231   6.341  15.206  0.2533 -0.1452  2.7857
 3159TIP3    H230969   2.101   6.306  15.276 -1.0287 -0.9178  0.0704
 3160TIP3   OH230970   1.435   0.229  12.929  0.2148 -0.5954  0.0257
 3160TIP3    H130971   1.434   0.204  12.837 -0.6430  0.3237 -0.2212
 3160TIP3    H230972   1.514   0.283  12.938 -0.4467  0.4717 -0.4897
 3161TIP3   OH230973   4.913   2.120   3.078 -0.2392 -0.3366  0.2035
 3161TIP3    H130974   4.952   2.166   3.004 -1.2681 -0.0449 -0.1703
 3161TIP3    H230975   4.946   2.166   3.156 -0.8038  0.6763 -0.1469
 3162TIP3   OH230976   1.698   0.478   0.110 -0.2763 -0.5009  0.2795
 3162TIP3    H130977   1.620   0.480   0.167 -1.2516  0.4550 -1.0418
 3162TIP3    H230978   1.700   0.389   0.075 -1.1058 -0.3742 -0.1082
 3163TIP3   OH230979   1.636   5.708   1.214  0.0675 -0.1330 -0.5134
 3163TIP3    H130980   1.548   5.671   1.214  0.2101 -0.4818 -0.4907
 3163TIP3    H230981   1.690   5.640   1.255  0.6773 -0.7086 -2.2165
 3164TIP3   OH230982   2.128   1.120   0.214 -0.0985  0.5447 -0.4995
 3164TIP3    H130983   2.096   1.043   0.260  0.2077  1.2830  0.9996
 3164TIP3    H230984   2.147   1.090   0.125 -0.8577 -0.8732 -0.1898
 3165TIP3   OH230985   0.843   3.287  16.402  0.2425 -0.1885  0.7576
 3165TIP3    H130986   0.874   3.334  16.324 -0.3293  1.0610  1.2652
 3165TIP3    H230987   0.763   3.243  16.373  0.4432 -0.3432  0.4398
 3166TIP3   OH230988   0.249   1.763  11.317 -0.5328 -0.8367 -0.1306
 3166TIP3    H130989   0.253   1.731  11.227 -0.0447 -0.1926 -0.3439
 3166TIP3    H230990   0.166   1.731  11.350 -1.5451  0.4115 -1.3898
 3167TIP3   OH230991   2.365   1.882  13.773  0.3600 -0.4222 -0.1007
 3167TIP3    H130992   2.284   1.865  13.821  0.3151 -0.9252 -0.3615
 3167TIP3    H230993   2.337   1.901  13.684  0.4975 -0.1487 -0.0882
 3168TIP3   OH230994   0.169   4.562  11.482  0.1409 -0.2816  0.1033
 3168TIP3    H130995   0.114   4.568  11.404 -1.5552  1.2972  1.3776
 3168TIP3    H230996   0.242   4.621  11.464  0.2325 -0.6055 -0.6346
 3169TIP3   OH230997   3.849   1.264   5.086  0.5613 -0.6473 -0.1179
 3169TIP3    H130998   3.848   1.309   5.001  1.8317  1.6171  1.0127
 3169TIP3    H230999   3.920   1.201   5.080 -0.9855 -2.2859 -1.5998
 3170TIP3   OH231000   2.448   3.990   6.738 -0.1488  0.5153  0.1754
 3170TIP3    H131001   2.407   3.905   6.757 -1.8288  0.6833 -2.4682
 3170TIP3    H231002   2.495   3.976   6.656 -2.0549  2.6340 -1.3197
 3171TIP3   OH231003   6.359   2.334   3.813 -0.3203 -0.1946 -0.5671
 3171TIP3    H131004   6.357   2.346   3.908  0.6220  1.2617 -0.7123
 3171TIP3    H231005   6.443   2.291   3.796  0.6337  1.7108 -0.9293
 3172TIP3   OH231006   6.014   0.958   4.575 -0.0615 -0.3129  0.3690
 3172TIP3    H131007   5.980   1.020   4.640 -1.2556 -0.7847  0.2108
 3172TIP3    H231008   6.039   0.881   4.626  1.3141  0.2278  0.5516
 3173TIP3   OH231009   4.980   0.901   0.651 -0.2346  0.3385  0.1029
 3173TIP3    H131010   5.023   0.895   0.566  1.7944 -1.6015  1.2310
 3173TIP3    H231011   5.023   0.975   0.695  0.0171  0.1562  0.1628
 3174TIP3   OH231012   3.646   2.499  10.692  0.5826 -0.7324 -0.0021
 3174TIP3    H131013   3.641   2.521  10.599  2.5822 -0.1722 -0.0066
 3174TIP3    H231014   3.700   2.569  10.730 -2.3051  0.4522  2.0595
 3175TIP3   OH231015   0.489   4.955   0.796  0.2736 -0.6937  0.3486
 3175TIP3    H131016   0.467   4.863   0.809 -0.8537 -0.3349  1.1098
 3175TIP3    H231017   0.512   4.962   0.703  2.1773 -2.0844  0.6889
 3176TIP3   OH231018   0.196   1.548  13.408 -0.2582 -0.2710 -0.0347
 3176TIP3    H131019   0.288   1.568  13.390 -0.0744 -0.6277  0.4988
 3176TIP3    H231020   0.160   1.521  13.324  0.4892 -1.5201  0.0376
 3177TIP3   OH231021   2.756   5.973   2.591  0.0169 -0.2084 -0.8582
 3177TIP3    H131022   2.678   5.921   2.612  1.4082 -1.8713  0.2937
 3177TIP3    H231023   2.762   6.037   2.662  0.2805 -0.7281 -0.4170
 3178TIP3   OH231024   5.010   1.686   3.264  0.7140 -0.2135 -0.0691
 3178TIP3    H131025   4.973   1.773   3.279 -2.7254 -1.8000  1.0359
 3178TIP3    H231026   5.057   1.665   3.345  0.0552 -0.1184  0.3345
 3179TIP3   OH231027   2.060   3.800   4.321  0.3231  0.0794 -0.5081
 3179TIP3    H131028   2.025   3.721   4.280  0.7414 -0.8578  0.8740
 3179TIP3    H231029   2.049   3.869   4.256  1.0655 -1.3687 -2.2152
 3180TIP3   OH231030   1.743   4.413   0.118 -0.6230  0.3232  0.0835
 3180TIP3    H131031   1.652   4.420   0.091 -0.4540 -0.9753 -0.8685
 3180TIP3    H231032   1.793   4.444   0.042 -0.2448  0.2118  0.2853
 3181TIP3   OH231033   1.747   5.714  14.102 -0.2296 -0.2068 -0.2503
 3181TIP3    H131034   1.679   5.649  14.087 -0.7085  0.6827 -2.1234
 3181TIP3    H231035   1.808   5.702  14.030 -0.5657  1.7017 -0.8759
 3182TIP3   OH231036   2.408   1.060   2.025  0.1277 -0.6526 -0.0363
 3182TIP3    H131037   2.451   1.145   2.031 -0.6444 -0.2499 -0.2165
 3182TIP3    H231038   2.365   1.048   2.110 -0.2729 -0.5844 -0.2263
 3183TIP3   OH231039   3.481   6.583  13.717 -0.2638 -0.2372  0.0225
 3183TIP3    H131040   3.428   6.504  13.702 -0.7757 -0.4310  2.5206
 3183TIP3    H231041   3.419   6.655  13.706 -0.6573 -0.3814  1.1501
 3184TIP3   OH231042   2.450   4.059  12.078  0.2518 -0.0219 -0.0509
 3184TIP3    H131043   2.450   4.043  12.173  1.2107  0.3638  0.0160
 3184TIP3    H231044   2.395   4.137  12.067  1.4165  0.8730  0.3593
 3185TIP3   OH231045   2.873   4.144  16.525 -0.0023 -0.3204  0.2190
 3185TIP3    H131046   2.959   4.158  16.564  0.2932 -1.1076 -0.1405
 3185TIP3    H231047   2.889   4.141  16.431 -0.5367  0.3196  0.1072
 3186TIP3   OH231048   5.217   2.572   4.743  0.7138  0.2521 -0.1872
 3186TIP3    H131049   5.202   2.478   4.734  0.3116  0.0313  2.4801
 3186TIP3    H231050   5.307   2.579   4.775  0.7016  0.7710 -0.2630
 3187TIP3   OH231051   2.887   1.535   1.115  0.5549  0.8125 -0.5648
 3187TIP3    H131052   2.852   1.497   1.034 -1.4661  1.4954 -0.0386
 3187TIP3    H231053   2.843   1.488   1.185  0.7508  1.6239  0.1174
 3188TIP3   OH231054   2.264   6.518   0.943  0.2663 -0.3693  0.1351
 3188TIP3    H131055   2.344   6.468   0.958 -0.4495 -1.3561  0.7268
 3188TIP3    H231056   2.250   6.566   1.025  0.5436  0.2299 -0.1635
 3189TIP3   OH231057   4.393   2.128  12.709 -0.8473 -0.4321  0.2951
 3189TIP3    H131058   4.377   2.036  12.686 -0.9059 -0.9401  2.2346
 3189TIP3    H231059   4.488   2.132  12.724 -0.9840 -0.4364  1.2119
 3190TIP3   OH231060   3.442   4.357   0.780  0.0991 -0.3191 -0.3307
 3190TIP3    H131061   3.405   4.270   0.797  1.6051 -1.1137 -1.0485
 3190TIP3    H231062   3.375   4.418   0.813 -0.3818 -1.7400  1.4428
 3191TIP3   OH231063   5.346   5.513  11.597  0.0120  0.1534 -0.7472
 3191TIP3    H131064   5.272   5.486  11.651  1.7731 -0.2268  1.5555
 3191TIP3    H231065   5.405   5.438  11.598  0.2354  0.2519 -2.9960
 3192TIP3   OH231066   4.287   3.232  11.492  0.0242  0.1316  0.0109
 3192TIP3    H131067   4.376   3.196  11.501 -0.3991 -0.6412  1.2538
 3192TIP3    H231068   4.252   3.190  11.414 -0.6117 -2.5158  1.6767
 3193TIP3   OH231069   3.297   5.154   4.252 -0.5219  0.4881 -1.1739
 3193TIP3    H131070   3.201   5.154   4.261 -0.5158  1.1453 -1.0880
 3193TIP3    H231071   3.315   5.219   4.183 -0.0841  1.0445 -0.5417
 3194TIP3   OH231072   1.273   6.418   3.690 -0.4209  0.2550  0.3007
 3194TIP3    H131073   1.250   6.382   3.605  0.1410 -0.4214  0.4291
 3194TIP3    H231074   1.310   6.504   3.671 -1.1479  0.4859 -0.0633
 3195TIP3   OH231075   1.519   2.403   3.331  0.4046 -0.1644  0.5346
 3195TIP3    H131076   1.578   2.452   3.273 -2.9739  0.5483 -2.4932
 3195TIP3    H231077   1.483   2.469   3.390  0.1812 -0.0132  0.2301
 3196TIP3   OH231078   1.112   0.052   5.263  1.1281 -0.2360 -0.1640
 3196TIP3    H131079   1.029   0.091   5.289 -0.2605 -0.3308 -4.1109
 3196TIP3    H231080   1.103  -0.041   5.284  0.5189 -0.1204  0.0962
 3197TIP3   OH231081   0.467   6.079  15.957  0.0274 -0.2394 -0.2250
 3197TIP3    H131082   0.437   5.991  15.978 -2.0526  0.6841  0.8534
 3197TIP3    H231083   0.493   6.116  16.041 -0.3110  0.6012 -0.4855
 3198TIP3   OH231084   2.904   4.881  15.798  0.1599  0.4536  0.3487
 3198TIP3    H131085   2.923   4.955  15.741 -1.3800  0.8173  0.2805
 3198TIP3    H231086   2.818   4.900  15.835  0.4216 -0.5603  1.5428
 3199TIP3   OH231087   0.860   6.350   2.587 -0.3556  0.2816  0.2210
 3199TIP3    H131088   0.832   6.280   2.646  1.7017 -0.2218  0.6274
 3199TIP3    H231089   0.778   6.383   2.549 -1.3945 -1.9679  0.4268
 3200TIP3   OH231090   4.302   5.868  15.542 -0.4977 -0.2993 -0.0326
 3200TIP3    H131091   4.263   5.871  15.629 -0.0501  0.5197  0.1386
 3200TIP3    H231092   4.372   5.933  15.544 -1.7831  1.1963 -1.6265
 3201TIP3   OH231093   6.673   3.301  12.549 -0.4307  0.2573 -0.4614
 3201TIP3    H131094   6.738   3.259  12.606  0.0316 -0.6022 -1.6006
 3201TIP3    H231095   6.659   3.387  12.589  0.0065 -0.2617  0.8552
 3202TIP3   OH231096   6.088   1.014  12.265  0.1635 -0.6295  0.0559
 3202TIP3    H131097   6.044   0.958  12.201  0.0840 -0.4770 -0.0248
 3202TIP3    H231098   6.093   1.099  12.222  1.5228 -0.9225 -0.3609
 3203TIP3   OH231099   2.593   5.511   1.149  0.1990  0.1223 -0.1708
 3203TIP3    H131100   2.580   5.419   1.173 -0.2029  0.9573  3.1427
 3203TIP3    H231101   2.508   5.539   1.115 -0.5910  0.0073  1.6289
 3204TIP3   OH231102   3.661   0.742  10.602 -0.0685 -0.1632  0.3560
 3204TIP3    H131103   3.681   0.674  10.537  0.3477  0.1409  0.1695
 3204TIP3    H231104   3.732   0.736  10.665  0.5023  0.7557 -0.1817
 3205TIP3   OH231105   3.057   1.698  10.974  0.0865 -0.6360 -0.7710
 3205TIP3    H131106   3.069   1.707  11.069  1.0732 -1.0681 -0.8496
 3205TIP3    H231107   3.090   1.610  10.954  1.8013  0.2256 -1.8127
 3206TIP3   OH231108   0.119   4.429   2.254  0.1324 -0.1003 -0.3067
 3206TIP3    H131109   0.037   4.474   2.237  0.1592 -0.3900 -1.2409
 3206TIP3    H231110   0.163   4.425   2.169 -0.1585 -2.4159 -0.3920
 3207TIP3   OH231111   4.988   3.461   4.618 -0.3462 -0.5422 -0.8082
 3207TIP3    H131112   5.060   3.505   4.573  1.0835 -0.7935  1.1204
 3207TIP3    H231113   4.969   3.384   4.564  0.4518 -0.1585 -1.6401
 3208TIP3   OH231114   6.260   4.300   1.071 -0.1400 -0.2780 -0.3584
 3208TIP3    H131115   6.226   4.368   1.129 -2.7941 -1.8571  0.0137
 3208TIP3    H231116   6.326   4.255   1.124 -0.4372  0.1532  0.3981
 3209TIP3   OH231117   2.492   3.380   3.056  0.3768 -0.3745 -0.5236
 3209TIP3    H131118   2.525   3.330   3.131 -0.8613 -1.1549 -0.4828
 3209TIP3    H231119   2.568   3.391   2.999  0.9818 -1.0941  0.1358
 3210TIP3   OH231120   4.131   3.450  11.395 -0.6880 -0.2741  0.8000
 3210TIP3    H131121   4.070   3.376  11.401  0.2117 -1.3233 -1.9488
 3210TIP3    H231122   4.076   3.525  11.372 -1.4055 -0.4398  1.9697
 3211TIP3   OH231123   6.063   4.339  15.628  0.7281 -0.2880 -0.2016
 3211TIP3    H131124   6.126   4.377  15.689  2.3919  0.3420 -2.2564
 3211TIP3    H231125   6.034   4.413  15.574  1.5608 -1.3291 -2.1213
 3212TIP3   OH231126   4.352   3.432  11.042 -0.6018 -0.0026 -0.0382
 3212TIP3    H131127   4.422   3.368  11.024 -0.8175 -0.0858 -0.5860
 3212TIP3    H231128   4.389   3.489  11.109 -0.1484 -0.2828 -0.0471
 3213TIP3   OH231129   4.594   6.468  15.981 -0.0407 -0.3435  0.3572
 3213TIP3    H131130   4.612   6.558  15.956  2.8219 -0.8601  0.3802
 3213TIP3    H231131   4.630   6.459  16.069  1.3043 -1.9316 -0.3088
 3214TIP3   OH231132   4.829   2.638  13.647  0.6200 -0.3204  0.2537
 3214TIP3    H131133   4.761   2.650  13.713 -0.1594 -2.2060 -0.1974
 3214TIP3    H231134   4.881   2.565  13.679 -0.3737 -1.9368 -1.6845
 3215TIP3   OH231135   0.167   2.166  10.882 -0.3897 -0.2632 -0.3324
 3215TIP3    H131136   0.119   2.229  10.936  0.4976 -0.8112  1.1246
 3215TIP3    H231137   0.214   2.220  10.819  0.0202  0.5333  0.6355
 3216TIP3   OH231138   2.498   2.424  15.491 -0.0140 -1.4391  0.4423
 3216TIP3    H131139   2.416   2.437  15.442 -0.4975  0.0293  1.6194
 3216TIP3    H231140   2.567   2.434  15.425 -0.7086 -0.7938 -0.1999
 3217TIP3   OH231141   0.308   4.925   3.497 -0.1367  0.8497  0.0870
 3217TIP3    H131142   0.381   4.972   3.455  0.4788 -0.7267 -0.6358
 3217TIP3    H231143   0.237   4.989   3.499  1.5220  2.7367  1.6276
 3218TIP3   OH231144   3.648   1.440  12.592 -0.1549  0.0691  0.5368
 3218TIP3    H131145   3.687   1.381  12.527  0.6286 -1.8251  2.6481
 3218TIP3    H231146   3.680   1.407  12.676 -0.6454  2.8477  1.8526
 3219TIP3   OH231147   1.744   0.818   5.590  0.2440  0.1671  0.3435
 3219TIP3    H131148   1.800   0.789   5.518  1.6145  0.4654  1.2549
 3219TIP3    H231149   1.793   0.891   5.630 -0.9736  0.6715  0.9408
 3220TIP3   OH231150   0.466   2.452   6.295  0.1519  0.3093  0.5592
 3220TIP3    H131151   0.559   2.477   6.294  0.7498 -1.7395  1.3100
 3220TIP3    H231152   0.446   2.437   6.387 -0.4358 -0.9427  0.2381
 3221TIP3   OH231153   1.822   6.003  11.680  0.4090  0.1355  0.0625
 3221TIP3    H131154   1.848   6.029  11.592  2.6202  0.4311  0.7796
 3221TIP3    H231155   1.788   5.914  11.669  1.9122 -0.3452 -0.9000
 3222TIP3   OH231156   5.062   4.106   2.863 -0.3105 -0.4902  0.0700
 3222TIP3    H131157   5.064   4.016   2.831  0.9055 -0.4694  0.0646
 3222TIP3    H231158   5.115   4.155   2.800  1.8313 -0.3832  1.8633
 3223TIP3   OH231159   4.725   6.245   6.256 -0.4372 -0.2937  0.2884
 3223TIP3    H131160   4.675   6.318   6.291 -0.2998 -1.3844  2.8828
 3223TIP3    H231161   4.802   6.239   6.312  0.8769 -0.7972 -1.5235
 3224TIP3   OH231162   5.850   0.836   2.709 -0.3515  0.5992 -0.3774
 3224TIP3    H131163   5.933   0.845   2.756 -1.2318 -0.0724  1.3272
 3224TIP3    H231164   5.876   0.817   2.618  1.3900 -2.3979  0.6609
 3225TIP3   OH231165   0.941   2.095   4.628  0.4144  0.1469 -0.1468
 3225TIP3    H131166   0.954   2.115   4.721 -0.1681 -0.8439  0.1495
 3225TIP3    H231167   0.993   2.161   4.582  1.3211  0.1716  0.8935
 3226TIP3   OH231168   2.601   3.057   5.304 -0.0506  0.6118  0.4692
 3226TIP3    H131169   2.672   3.120   5.316 -1.0624  1.9471 -0.4651
 3226TIP3    H231170   2.577   3.065   5.212 -2.0968  0.9216  1.0041
 3227TIP3   OH231171   6.600   2.257  14.977 -0.2410 -0.3674  0.5323
 3227TIP3    H131172   6.633   2.243  15.065 -1.0388 -2.3605  0.5314
 3227TIP3    H231173   6.533   2.325  14.987  0.1020 -0.1494  1.3447
 3228TIP3   OH231174   1.132   2.276  12.932 -0.0055  0.3639  0.0342
 3228TIP3    H131175   1.046   2.265  12.891  0.4780  1.5348 -1.3335
 3228TIP3    H231176   1.191   2.296  12.860  0.9914  1.8024  1.2098
 3229TIP3   OH231177   4.469   2.255  12.381 -0.4752 -0.2714 -0.4718
 3229TIP3    H131178   4.377   2.242  12.356  0.0201 -0.6471 -2.1634
 3229TIP3    H231179   4.511   2.172  12.359  0.6544  0.5708 -1.5464
 3230TIP3   OH231180   4.231   3.820   0.251  0.0057 -0.2335 -0.6811
 3230TIP3    H131181   4.322   3.842   0.271 -0.3407  0.9466 -0.3360
 3230TIP3    H231182   4.214   3.861   0.166 -0.4371  0.2337 -0.3705
 3231TIP3   OH231183   4.849   6.497  12.127  0.0283  0.5636  0.1689
 3231TIP3    H131184   4.879   6.531  12.211 -0.5171 -1.0726  1.0447
 3231TIP3    H231185   4.907   6.538  12.063  1.4100  0.6983  1.4685
 3232TIP3   OH231186   2.619   4.809   4.572  0.2733  0.0988 -0.3107
 3232TIP3    H131187   2.545   4.768   4.617  1.1624 -1.7251 -0.4575
 3232TIP3    H231188   2.688   4.813   4.638  0.1831  1.4228 -0.2919
 3233TIP3   OH231189   3.329   3.989   1.171  0.6521 -0.2308  0.3414
 3233TIP3    H131190   3.383   4.014   1.096 -0.2136 -0.2376 -0.2891
 3233TIP3    H231191   3.264   3.929   1.135 -0.9601  1.2446  0.7268
 3234TIP3   OH231192   1.519   3.381   4.533 -0.1115  0.0315 -0.3764
 3234TIP3    H131193   1.443   3.333   4.499  0.0989 -0.7377  0.2183
 3234TIP3    H231194   1.514   3.370   4.628  0.8455 -0.1814 -0.3449
 3235TIP3   OH231195   4.141   5.354  14.605 -0.4653 -0.2143  0.1140
 3235TIP3    H131196   4.121   5.292  14.675 -0.8515 -2.0326 -1.5725
 3235TIP3    H231197   4.095   5.434  14.630 -3.2219 -1.8267  0.3749
 3236TIP3   OH231198   6.062   2.103  12.990  0.6831 -0.1811 -0.5555
 3236TIP3    H131199   6.146   2.112  13.034 -0.2832  2.9196  0.7379
 3236TIP3    H231200   6.006   2.060  13.054  0.8173 -0.7815 -0.8344
 3237TIP3   OH231201   1.812   0.396   3.613 -0.3180  0.9581 -0.3364
 3237TIP3    H131202   1.843   0.313   3.577 -0.5509  1.4750 -1.7687
 3237TIP3    H231203   1.809   0.382   3.708  0.0685 -0.5154 -0.5336
 3238TIP3   OH231204   4.200   3.613   0.959 -0.6234 -0.6557  0.8935
 3238TIP3    H131205   4.197   3.537   1.017  0.6482 -1.4210 -0.0145
 3238TIP3    H231206   4.254   3.585   0.885  1.0281  1.5737  1.1861
 3239TIP3   OH231207   6.098   2.274  11.743  0.7084 -0.1683 -0.5840
 3239TIP3    H131208   6.141   2.267  11.657 -0.1086 -1.0084 -0.9211
 3239TIP3    H231209   6.010   2.306  11.723  0.6032 -0.1137 -0.0309
 3240TIP3   OH231210   4.579   3.587  12.267  0.7774 -0.8561  0.4514
 3240TIP3    H131211   4.582   3.507  12.214  0.2166 -2.1340  2.3004
 3240TIP3    H231212   4.511   3.640  12.226 -0.8409 -2.5588  0.8613
 3241TIP3   OH231213   3.962   4.909  16.541  0.1252  0.7097 -0.1081
 3241TIP3    H131214   3.948   5.003  16.552 -1.8393  0.4924 -0.4403
 3241TIP3    H231215   3.903   4.884  16.470  0.9140 -0.7072 -0.2865
 3242TIP3   OH231216   4.690   0.597   1.356  0.0688 -0.3886 -0.3408
 3242TIP3    H131217   4.663   0.624   1.269 -2.2562  0.1726  0.5182
 3242TIP3    H231218   4.774   0.555   1.343 -1.3778 -2.5525 -3.2062
 3243TIP3   OH231219   6.819   3.763   5.127  0.1607 -0.0846  0.0940
 3243TIP3    H131220   6.812   3.744   5.033 -0.4597 -0.0282  0.1326
 3243TIP3    H231221   6.881   3.836   5.131  0.0115  0.0671 -0.2895
 3244TIP3   OH231222   0.556   1.067   4.746 -0.7164 -0.0435 -0.1963
 3244TIP3    H131223   0.498   1.075   4.822 -1.6319 -0.2607 -0.8673
 3244TIP3    H231224   0.643   1.053   4.784 -1.3380 -1.3371  0.8240
 3245TIP3   OH231225   4.103   2.803  12.726  0.1603 -0.3502  0.1134
 3245TIP3    H131226   4.044   2.818  12.800  1.7897  0.4510  1.2796
 3245TIP3    H231227   4.175   2.751  12.762 -0.4201 -2.4030 -1.5854
 3246TIP3   OH231228   0.333   3.314  12.023  0.3271  0.6460  0.5283
 3246TIP3    H131229   0.268   3.330  11.955  1.2559 -1.2347 -0.8392
 3246TIP3    H231230   0.292   3.346  12.104 -1.9398  0.2348 -0.4257
 3247TIP3   OH231231   2.266   5.744   1.803  0.4925  0.8584 -0.3198
 3247TIP3    H131232   2.251   5.755   1.897 -3.4152  0.9742 -0.8534
 3247TIP3    H231233   2.240   5.828   1.765  2.1426  0.8436 -1.5105
 3248TIP3   OH231234   2.858   6.260   1.389 -0.2184  0.7281 -0.6435
 3248TIP3    H131235   2.778   6.293   1.430 -0.6565  1.5086 -2.0723
 3248TIP3    H231236   2.922   6.257   1.459 -2.1079 -2.1213  1.0767
 3249TIP3   OH231237   3.687   5.695   0.587 -0.3171 -0.3752 -0.5061
 3249TIP3    H131238   3.653   5.754   0.654  0.0242 -1.5357  0.7236
 3249TIP3    H231239   3.611   5.673   0.533 -0.7419  0.0055 -0.0647
 3250TIP3   OH231240   3.593   1.652   5.114  0.2242 -0.0695  0.3772
 3250TIP3    H131241   3.542   1.615   5.187  0.4689 -1.1581 -0.0012
 3250TIP3    H231242   3.682   1.622   5.130  0.1994 -0.6560 -0.6121
 3251TIP3   OH231243   5.147   3.164  11.959  0.5982 -0.4833  0.6132
 3251TIP3    H131244   5.178   3.248  11.993 -1.2556  0.6550 -0.4355
 3251TIP3    H231245   5.225   3.108  11.957  1.5584  0.7205  2.7534
 3252TIP3   OH231246   3.473   5.135   0.157 -1.1204  0.1204 -0.8416
 3252TIP3    H131247   3.401   5.193   0.131 -0.7657  0.2032 -1.6736
 3252TIP3    H231248   3.498   5.165   0.244 -3.4506 -1.2257  0.3450
 3253TIP3   OH231249   5.667   6.041  14.204 -0.0312  0.2591 -0.0774
 3253TIP3    H131250   5.674   6.102  14.131  1.4233 -0.0064 -0.1903
 3253TIP3    H231251   5.635   6.093  14.277 -1.4288  0.5385 -0.8909
 3254TIP3   OH231252   4.840   6.655   1.474 -0.2467 -0.8672  0.1656
 3254TIP3    H131253   4.752   6.626   1.453 -1.1307  0.7842  1.4736
 3254TIP3    H231254   4.873   6.692   1.391 -1.0498 -0.8327 -0.1407
 3255TIP3   OH231255   0.434   5.050   5.663  0.4752  0.5921 -0.5454
 3255TIP3    H131256   0.504   5.006   5.617 -2.8900 -2.2509 -3.1915
 3255TIP3    H231257   0.414   4.993   5.737  1.9805  2.2314  1.1779
 3256TIP3   OH231258   0.053   6.000  12.742 -0.1447  0.3222 -0.4787
 3256TIP3    H131259   0.040   5.981  12.649 -1.0585  1.1322 -0.5178
 3256TIP3    H231260   0.134   5.953  12.764  0.0183  0.0253 -1.6463
 3257TIP3   OH231261   5.504   6.093   0.535 -0.7198 -0.1553 -0.4111
 3257TIP3    H131262   5.511   6.004   0.572 -1.6601 -0.0178  0.1376
 3257TIP3    H231263   5.590   6.132   0.549 -0.8546 -0.3387  1.0808
 3258TIP3   OH231264   4.896   3.600  16.897 -0.2968 -0.4493  0.0816
 3258TIP3    H131265   4.844   3.593  16.978  0.1462 -0.8029  0.3375
 3258TIP3    H231266   4.889   3.513  16.857  0.4629 -0.6377  0.3453
 3259TIP3   OH231267   5.058   6.354   4.934 -0.5275  0.4936 -0.3056
 3259TIP3    H131268   5.039   6.440   4.971  0.1675  0.4771  0.1153
 3259TIP3    H231269   5.148   6.335   4.962 -0.2219  0.1839 -1.4457
 3260TIP3   OH231270   2.828   5.123  15.999 -0.2570  0.6027 -0.2120
 3260TIP3    H131271   2.834   5.180  15.922  0.0394  0.5808 -0.2079
 3260TIP3    H231272   2.786   5.177  16.066  0.2201  0.8906 -0.1419
 3261TIP3   OH231273   3.725   6.683  13.645 -0.2429 -0.1659 -0.1366
 3261TIP3    H131274   3.633   6.659  13.660  0.3606 -1.5585  1.5824
 3261TIP3    H231275   3.750   6.729  13.725  0.4594  0.5429 -0.7660
 3262TIP3   OH231276   0.813   1.718  14.325  0.1130 -0.0842 -0.3360
 3262TIP3    H131277   0.730   1.715  14.277  0.2261 -1.9313 -0.4263
 3262TIP3    H231278   0.801   1.658  14.398  0.7660  0.9771  0.6630
 3263TIP3   OH231279   5.537   2.173   4.511  0.2879 -0.4879  0.1132
 3263TIP3    H131280   5.601   2.239   4.485 -1.5130  0.5170 -2.0016
 3263TIP3    H231281   5.581   2.120   4.577  2.8909  0.8516 -0.5049
 3264TIP3   OH231282   0.955   1.754   5.776 -0.1680  0.2413  0.3399
 3264TIP3    H131283   1.050   1.764   5.766 -0.2803 -0.1142 -1.1123
 3264TIP3    H231284   0.945   1.693   5.850  0.7515 -0.5283 -0.1585
 3265TIP3   OH231285   0.747   3.337   6.019  0.1541  0.6186 -0.1576
 3265TIP3    H131286   0.743   3.288   6.101  2.3209  2.4595  1.1155
 3265TIP3    H231287   0.789   3.277   5.958  1.7862  0.4520  1.0803
 3266TIP3   OH231288   5.742   5.730  15.340 -0.0362 -0.0623 -0.5672
 3266TIP3    H131289   5.783   5.816  15.355  0.5514 -0.4050 -0.2049
 3266TIP3    H231290   5.663   5.732  15.394  0.4036 -0.0549  0.0897
 3267TIP3   OH231291   1.934   4.377   1.797  0.1071 -0.1283  0.2833
 3267TIP3    H131292   1.947   4.463   1.758  0.4929  0.2734  1.2723
 3267TIP3    H231293   1.924   4.318   1.723  0.1048  0.7300 -0.4055
 3268TIP3   OH231294   6.536   6.461   4.473 -0.2833  0.2722 -0.0819
 3268TIP3    H131295   6.483   6.498   4.543 -1.6356  0.0258 -0.9626
 3268TIP3    H231296   6.559   6.373   4.504 -1.4327 -0.0828 -0.2234
 3269TIP3   OH231297   2.990   5.390  14.217  0.2400 -0.2640 -0.2289
 3269TIP3    H131298   2.989   5.425  14.128 -1.2596  2.0449  0.6455
 3269TIP3    H231299   2.976   5.466  14.273 -0.0006 -1.8454  1.9258
 3270TIP3   OH231300   0.227   0.126   2.568  0.3052 -1.2775  0.1714
 3270TIP3    H131301   0.254   0.218   2.568  1.4604 -1.6032  1.8095
 3270TIP3    H231302   0.141   0.127   2.611  0.2859 -0.9600  0.1305
 3271TIP3   OH231303   2.963   1.395   3.061  0.4031 -0.0824 -0.0018
 3271TIP3    H131304   2.981   1.423   2.972  0.9118 -0.4402 -0.0158
 3271TIP3    H231305   3.012   1.457   3.116  2.4478 -1.5815 -0.0668
 3272TIP3   OH231306   5.985   1.570   4.692  0.4778 -0.0655  0.1548
 3272TIP3    H131307   5.920   1.557   4.762  0.4478  0.3751  0.2118
 3272TIP3    H231308   5.959   1.652   4.650  0.2459 -0.5474 -0.6528
 3273TIP3   OH231309   2.363   2.167  11.594 -0.3161  0.5788 -0.1609
 3273TIP3    H131310   2.354   2.071  11.589  0.1350  0.4439  1.2399
 3273TIP3    H231311   2.299   2.200  11.532  1.8683 -0.6859 -3.1844
 3274TIP3   OH231312   2.958   3.131   2.745  0.0456 -0.1163  0.5022
 3274TIP3    H131313   2.946   3.039   2.767 -0.2653  0.0028  0.8317
 3274TIP3    H231314   2.978   3.174   2.829 -1.0838  0.3298  0.5492
 3275TIP3   OH231315   0.870   1.125   3.773 -0.1994 -0.2759  0.6802
 3275TIP3    H131316   0.780   1.121   3.741  0.4013 -1.8613 -0.9139
 3275TIP3    H231317   0.871   1.199   3.833 -2.2943  0.4733 -0.1559
 3276TIP3   OH231318   4.063   5.161  13.074 -0.1751 -0.2161  0.2088
 3276TIP3    H131319   4.117   5.143  12.997 -0.7226 -1.4857  0.1060
 3276TIP3    H231320   4.123   5.153  13.148  0.1091 -0.0988 -0.0099
 3277TIP3   OH231321   4.572   3.714   3.634 -0.1767 -0.0978 -1.0105
 3277TIP3    H131322   4.637   3.760   3.687 -0.5382 -1.1700  0.4000
 3277TIP3    H231323   4.518   3.668   3.698 -0.9630 -0.9809 -2.2967
 3278TIP3   OH231324   4.529   2.578  12.753 -0.2726  0.1456  0.2734
 3278TIP3    H131325   4.549   2.658  12.801  0.9163 -0.7061  1.2251
 3278TIP3    H231326   4.603   2.567  12.693 -0.1588 -0.5203  0.5310
 3279TIP3   OH231327   1.608   0.661   4.978  0.2078 -0.1153  0.3180
 3279TIP3    H131328   1.586   0.712   5.056 -0.2129  0.4434 -0.1734
 3279TIP3    H231329   1.526   0.654   4.929  0.3046 -1.0863  0.2780
 3280TIP3   OH231330   3.537   5.258   1.111  0.0744  0.0368 -0.1235
 3280TIP3    H131331   3.450   5.269   1.073  1.0043 -1.4381 -2.7738
 3280TIP3    H231332   3.538   5.168   1.144  0.7985 -0.1790 -0.7075
 3281TIP3   OH231333   3.506   0.609  11.394  0.2049  0.2499  0.3406
 3281TIP3    H131334   3.448   0.552  11.445 -0.1835  0.5718  0.2631
 3281TIP3    H231335   3.460   0.693  11.391 -0.4450 -0.1566 -1.7362
 3282TIP3   OH231336   6.468   1.426  14.057 -0.0992  0.8811 -0.3719
 3282TIP3    H131337   6.409   1.482  14.006 -2.0836  0.0698  0.9425
 3282TIP3    H231338   6.440   1.336  14.035  0.9159  0.4848 -0.0484
 3283TIP3   OH231339   6.772   6.663   3.511  0.3700  0.5489 -0.2396
 3283TIP3    H131340   6.706   6.654   3.443  0.3297  1.5661 -0.3474
 3283TIP3    H231341   6.724   6.648   3.593 -0.1033  1.6695 -0.2892
 3284TIP3   OH231342   1.862   5.225  12.288 -0.3775  0.3297 -0.1537
 3284TIP3    H131343   1.864   5.159  12.219  1.2844  1.0408 -0.7980
 3284TIP3    H231344   1.769   5.235  12.309 -0.7093 -1.7037 -0.5281
 3285TIP3   OH231345   2.211   5.522  12.055 -0.4342 -0.0354 -0.2811
 3285TIP3    H131346   2.139   5.459  12.058 -0.9864  0.5646 -1.0773
 3285TIP3    H231347   2.290   5.467  12.055 -0.9178 -0.7497 -1.4047
 3286TIP3   OH231348   0.067   5.170  16.932  0.6322 -0.3922  0.0709
 3286TIP3    H131349  -0.003   5.188  16.996 -0.3453 -0.6542 -0.8998
 3286TIP3    H231350   0.076   5.252  16.884  1.9662  0.0729  1.1038
 3287TIP3   OH231351   6.136   5.509   2.458 -0.0863  0.0167 -0.5174
 3287TIP3    H131352   6.058   5.474   2.501  0.2105  0.1508  0.1450
 3287TIP3    H231353   6.209   5.471   2.506  0.2600 -0.1521 -1.1692
 3288TIP3   OH231354   3.045   5.517   1.802 -0.2370 -0.6404 -0.6124
 3288TIP3    H131355   3.016   5.486   1.887 -0.5088 -1.1067 -0.8717
 3288TIP3    H231356   2.994   5.466   1.739  0.0283 -0.3666 -1.0542
 3289TIP3   OH231357   0.890   6.497  12.485 -0.2725  0.1379 -0.2924
 3289TIP3    H131358   0.859   6.487  12.575  2.4448  0.7664  0.7640
 3289TIP3    H231359   0.985   6.484  12.490 -0.2091 -1.0007 -3.2665
 3290TIP3   OH231360   1.620   4.489   3.407 -0.8063 -0.0064 -0.9226
 3290TIP3    H131361   1.561   4.485   3.483  0.1554 -0.1088 -0.1764
 3290TIP3    H231362   1.614   4.579   3.376  1.1089  0.8596  1.1359
 3291TIP3   OH231363   2.546   3.732   4.557  0.0470  0.7435  0.6200
 3291TIP3    H131364   2.614   3.801   4.559  0.6127  0.1891  0.7117
 3291TIP3    H231365   2.506   3.741   4.471  1.2386  0.1206 -0.0175
 3292TIP3   OH231366   6.795   4.994  10.595 -0.0928  0.2882  0.0665
 3292TIP3    H131367   6.733   4.955  10.657  0.0349  0.0667  0.0515
 3292TIP3    H231368   6.755   5.078  10.571 -1.0857 -0.5027 -1.0681
 3293TIP3   OH231369   2.325   4.675   6.126  0.2116 -0.1075  0.2446
 3293TIP3    H131370   2.385   4.717   6.064 -0.4696 -0.2352 -0.5186
 3293TIP3    H231371   2.358   4.586   6.136  0.3588 -0.0675  0.1121
 3294TIP3   OH231372   3.696   4.654   4.509  0.3820 -0.2975  0.1762
 3294TIP3    H131373   3.707   4.629   4.418  1.0201 -1.9570  0.6867
 3294TIP3    H231374   3.782   4.686   4.537  0.6303 -1.3721  0.6562
 3295TIP3   OH231375   2.004   5.629   0.653 -0.0914 -0.1332  0.2537
 3295TIP3    H131376   2.015   5.547   0.702  0.6812 -1.0020 -1.3496
 3295TIP3    H231377   2.092   5.665   0.645 -0.2284  0.0834 -0.3457
 3296TIP3   OH231378   1.282   2.118   1.565 -0.1217  0.4094 -0.1326
 3296TIP3    H131379   1.263   2.024   1.562 -1.4380  0.7343 -3.0258
 3296TIP3    H231380   1.374   2.123   1.592 -0.3576 -1.6487  1.1576
 3297TIP3   OH231381   1.196   1.738   2.643 -0.0797 -0.4910  0.7269
 3297TIP3    H131382   1.237   1.821   2.668 -1.8229  0.8054 -0.5952
 3297TIP3    H231383   1.247   1.671   2.689  1.2410  1.3180  1.9589
 3298TIP3   OH231384   5.566   3.544  13.975  0.1975 -0.5059  0.5740
 3298TIP3    H131385   5.636   3.580  13.920  1.3042  0.3183  2.4825
 3298TIP3    H231386   5.564   3.451  13.952  0.5202 -0.1520 -0.9752
 3299TIP3   OH231387   5.694   4.409  17.152  0.5366  1.1739  0.2650
 3299TIP3    H131388   5.718   4.390  17.062  0.6983  1.4919  0.2425
 3299TIP3    H231389   5.609   4.453  17.146 -0.9378 -1.5484  0.4410
 3300TIP3   OH231390   4.962   3.940  15.564 -0.2399  0.5416  0.8484
 3300TIP3    H131391   5.003   4.026  15.552 -3.4447  1.9472 -0.6350
 3300TIP3    H231392   4.976   3.895  15.481 -0.9460  0.7151  0.6311
 3301TIP3   OH231393   3.951   1.025   2.273  0.0053  0.1180  0.3263
 3301TIP3    H131394   3.904   0.943   2.259 -0.9244  0.9570 -1.7435
 3301TIP3    H231395   3.971   1.056   2.184  0.6049  1.9808  1.0811
 3302TIP3   OH231396   5.860   1.175  16.344  0.0408 -0.1856  0.2722
 3302TIP3    H131397   5.935   1.195  16.289 -1.7494  1.7295 -1.5478
 3302TIP3    H231398   5.882   1.091  16.385  2.4979 -0.3916 -1.3811
 3303TIP3   OH231399   4.405   4.470   4.710  0.2737 -0.4985 -0.9431
 3303TIP3    H131400   4.488   4.517   4.698  0.1179  0.6541  2.0817
 3303TIP3    H231401   4.430   4.383   4.740  0.3945 -0.0985  0.1252
 3304TIP3   OH231402   5.740   2.575  15.938  0.3895  0.1720 -0.6192
 3304TIP3    H131403   5.798   2.503  15.914  1.4856  0.9018 -0.1616
 3304TIP3    H231404   5.733   2.568  16.034  1.7360  1.6060 -0.4027
 3305TIP3   OH231405   0.563   4.566   4.819  0.2715  0.4558  0.1562
 3305TIP3    H131406   0.485   4.620   4.806  0.4364  0.7223  0.2470
 3305TIP3    H231407   0.635   4.629   4.817  0.3623  0.4354  1.7088
 3306TIP3   OH231408   1.551   2.089   1.636  0.3943 -0.3973 -0.4254
 3306TIP3    H131409   1.567   2.041   1.717 -0.5876 -0.8066 -0.4636
 3306TIP3    H231410   1.578   2.030   1.567 -2.2743 -1.5675 -0.5438
 3307TIP3   OH231411   0.938   3.505   2.401 -0.2977  0.1586 -0.1102
 3307TIP3    H131412   0.852   3.512   2.359 -1.1592  0.5014  1.6428
 3307TIP3    H231413   0.998   3.551   2.342 -1.0643 -1.2221 -2.0058
 3308TIP3   OH231414   1.899   1.917  12.543 -0.5631  0.6168  0.0819
 3308TIP3    H131415   1.992   1.904  12.562 -0.4234  2.2658  0.6642
 3308TIP3    H231416   1.884   1.873  12.460  0.7195  0.2469  0.0457
 3309TIP3   OH231417   3.470   4.624  15.770  0.2857  0.1517  0.4803
 3309TIP3    H131418   3.564   4.641  15.767  0.6393 -1.7386 -0.1478
 3309TIP3    H231419   3.431   4.710  15.785  2.1029  0.9711  0.7503
 3310TIP3   OH231420   3.755   6.555   1.497  0.1263  0.0709  0.0653
 3310TIP3    H131421   3.821   6.586   1.436  0.5083 -1.9056 -0.5645
 3310TIP3    H231422   3.672   6.586   1.460  0.5456  0.9118 -0.1784
 3311TIP3   OH231423   4.790   4.341   4.054 -0.1238  0.3126 -0.5418
 3311TIP3    H131424   4.724   4.334   4.123 -2.1791 -1.0805 -2.5654
 3311TIP3    H231425   4.775   4.427   4.015  0.8675  0.9903  0.5167
 3312TIP3   OH231426   4.825   0.696   1.663 -0.4250 -0.5474 -0.1989
 3312TIP3    H131427   4.761   0.663   1.600 -1.8331  0.5181  0.6433
 3312TIP3    H231428   4.776   0.757   1.718  2.1678  3.3906 -1.9983
 3313TIP3   OH231429   6.679   3.726  11.575 -0.0424 -0.7075  0.1787
 3313TIP3    H131430   6.742   3.695  11.510  0.2673 -0.5329  0.3988
 3313TIP3    H231431   6.597   3.683  11.550 -0.1089 -0.0137 -0.7979
 3314TIP3   OH231432   1.637   1.009  11.340 -0.3801  0.2004 -0.0569
 3314TIP3    H131433   1.711   0.952  11.325 -0.5643  0.1091 -0.6145
 3314TIP3    H231434   1.650   1.043  11.429  0.1914 -0.0080 -0.0647
 3315TIP3   OH231435   1.461   4.704  11.636  0.0717  0.0037  0.4603
 3315TIP3    H131436   1.409   4.634  11.678  0.5368 -1.2916 -1.0809
 3315TIP3    H231437   1.529   4.658  11.588  1.2109  1.6051  0.5080
 3316TIP3   OH231438   5.723   1.599   1.813 -0.3069  0.1248 -0.0401
 3316TIP3    H131439   5.809   1.635   1.835 -0.3383  0.9361 -1.2105
 3316TIP3    H231440   5.735   1.504   1.817  0.9162  0.2126 -1.1637
 3317TIP3   OH231441   0.784   5.846  13.310 -0.3391 -0.4388  0.0852
 3317TIP3    H131442   0.744   5.909  13.251  0.4645 -0.8462 -0.8992
 3317TIP3    H231443   0.746   5.762  13.285  1.3277 -0.8679 -1.0494
 3318TIP3   OH231444   0.012   6.516   4.935  0.8431 -0.3021  0.4696
 3318TIP3    H131445  -0.074   6.534   4.972 -0.2840 -0.6625 -1.8927
 3318TIP3    H231446  -0.006   6.466   4.855  3.2278 -0.0183 -0.2825
 3319TIP3   OH231447   6.513   5.457   0.872 -0.3595  0.6696  0.0034
 3319TIP3    H131448   6.479   5.387   0.816  0.7743  0.5623 -0.5593
 3319TIP3    H231449   6.506   5.536   0.819  0.7211  0.5669 -0.2922
 3320TIP3   OH231450   0.316   3.981   2.014  1.2132  0.8200  0.4273
 3320TIP3    H131451   0.236   3.966   1.964  1.1936 -3.5476  1.5481
 3320TIP3    H231452   0.373   4.030   1.955 -0.6124 -0.0261 -2.0851
 3321TIP3   OH231453   4.612   5.446  12.385 -0.6776  0.5312  0.2859
 3321TIP3    H131454   4.528   5.400  12.383 -0.5511  0.0388  3.5437
 3321TIP3    H231455   4.589   5.539  12.391 -0.9599  0.5830 -1.5267
 3322TIP3   OH231456   1.578   3.149  13.135  0.4271  0.2673 -0.1199
 3322TIP3    H131457   1.571   3.054  13.120  1.0237  0.3795 -1.1099
 3322TIP3    H231458   1.672   3.167  13.131  0.3154  0.8986  0.1058
 3323TIP3   OH231459   2.091   6.678  11.148 -0.0817  0.3155  0.0568
 3323TIP3    H131460   2.005   6.673  11.189 -0.1986 -1.2606 -0.3577
 3323TIP3    H231461   2.091   6.761  11.101 -0.5939  1.3231  1.7890
 3324TIP3   OH231462   2.124   3.884  11.123 -0.0136 -0.9296 -0.4642
 3324TIP3    H131463   2.101   3.896  11.216 -2.5320  0.9239 -1.2514
 3324TIP3    H231464   2.219   3.893  11.120 -0.0987  1.2011  1.6577
 3325TIP3   OH231465   5.766   0.180   2.005 -0.4394 -0.1770  0.0237
 3325TIP3    H131466   5.789   0.269   1.980 -2.1709  0.2035 -0.2922
 3325TIP3    H231467   5.736   0.188   2.096 -0.1994 -0.5077  0.1319
 3326TIP3   OH231468   5.316   4.892  16.305 -0.2744 -0.3451 -0.3029
 3326TIP3    H131469   5.245   4.956  16.306  0.5881  0.6081  0.1558
 3326TIP3    H231470   5.371   4.917  16.379  0.2644 -1.3950 -0.3486
 3327TIP3   OH231471   1.781   1.674  13.901  0.3815 -0.0256  0.4963
 3327TIP3    H131472   1.787   1.688  13.996  0.6308  2.8170  0.1111
 3327TIP3    H231473   1.731   1.749  13.869  0.4010 -0.9019 -1.6487
 3328TIP3   OH231474   4.358   6.538  15.310 -0.5507 -0.1052 -0.2579
 3328TIP3    H131475   4.410   6.478  15.363 -0.0312  1.2126  0.7396
 3328TIP3    H231476   4.422   6.591  15.263 -0.9983  0.7975  0.1438
 3329TIP3   OH231477   0.989   4.947  16.119 -0.1254 -0.1860 -0.0823
 3329TIP3    H131478   0.999   5.040  16.140 -1.9197 -0.3828  1.7444
 3329TIP3    H231479   0.964   4.947  16.026 -0.9220  1.1943  0.1143
 3330TIP3   OH231480   4.794   6.276  16.742  0.5378 -0.4312 -0.0418
 3330TIP3    H131481   4.800   6.346  16.678 -0.6812 -1.6351 -1.5142
 3330TIP3    H231482   4.885   6.249  16.756  1.1015  2.0763  1.2991
 3331TIP3   OH231483   0.281   2.149   1.102 -0.0374 -0.8101 -0.1658
 3331TIP3    H131484   0.245   2.231   1.135  1.3166  0.0884 -0.8556
 3331TIP3    H231485   0.244   2.081   1.158 -1.6917  0.2108 -0.0084
 3332TIP3   OH231486   0.361   4.625  14.190 -0.6305 -0.2827  0.5097
 3332TIP3    H131487   0.369   4.604  14.283  0.2979 -1.1227  0.2494
 3332TIP3    H231488   0.267   4.636  14.175 -0.8922 -1.5003  1.2579
 3333TIP3   OH231489   3.519   3.130  16.496  0.3315 -0.1919  0.1130
 3333TIP3    H131490   3.523   3.225  16.509  0.5684  0.0515 -1.6613
 3333TIP3    H231491   3.425   3.109  16.498  0.2452  0.1702 -0.1544
 3334TIP3   OH231492   5.867   5.234   5.662 -0.3416 -0.1478  0.0645
 3334TIP3    H131493   5.960   5.244   5.646 -0.2504 -1.0754  0.0038
 3334TIP3    H231494   5.847   5.144   5.636 -1.4546  0.3614 -0.9249
 3335TIP3   OH231495   1.908   3.310  13.641 -0.7605 -0.5473 -0.4879
 3335TIP3    H131496   1.872   3.399  13.640 -0.1211 -0.2887 -0.8001
 3335TIP3    H231497   1.972   3.311  13.712 -1.0209 -0.8647 -0.2499
 3336TIP3   OH231498   1.998   5.383   3.072 -0.0177  0.1512 -0.4230
 3336TIP3    H131499   1.909   5.403   3.102 -0.9969 -1.1149 -2.3884
 3336TIP3    H231500   1.998   5.409   2.979  0.9839 -1.8598 -1.0097
 3337TIP3   OH231501   3.400   1.368   0.144  0.9398 -0.1026 -0.2614
 3337TIP3    H131502   3.316   1.351   0.186  1.0824  0.0762  0.0916
 3337TIP3    H231503   3.392   1.327   0.058  0.2295  0.5246 -0.5005
 3338TIP3   OH231504   1.882   5.813  12.885  0.0656 -1.0883  0.6918
 3338TIP3    H131505   1.836   5.825  12.802  2.3998 -0.0206 -0.5173
 3338TIP3    H231506   1.904   5.720  12.886  1.0953 -0.8829 -0.5156
 3339TIP3   OH231507   4.046   2.607  15.931 -0.5803 -0.1918 -0.0618
 3339TIP3    H131508   3.962   2.631  15.969  0.0359 -0.8936  1.7930
 3339TIP3    H231509   4.065   2.676  15.867 -1.1763  1.5416  1.6151
 3340TIP3   OH231510   0.367   3.218   5.365 -0.2070  0.0903 -0.0613
 3340TIP3    H131511   0.332   3.169   5.291  1.5385 -0.1525 -0.7547
 3340TIP3    H231512   0.433   3.160   5.403  1.1495  1.4597 -0.2607
 3341TIP3   OH231513   3.730   5.748   2.461 -0.2871  0.7186 -0.7124
 3341TIP3    H131514   3.656   5.798   2.427  0.2345  1.1913 -1.1764
 3341TIP3    H231515   3.755   5.690   2.389 -1.3082 -0.7000  0.0560
 3342TIP3   OH231516   5.529   0.423  12.111 -0.2888  0.3701  0.1965
 3342TIP3    H131517   5.498   0.513  12.123  1.5939  1.1628 -0.6861
 3342TIP3    H231518   5.530   0.385  12.199  0.8842  1.9033  0.8646
 3343TIP3   OH231519   3.327   3.182  14.567 -0.8301 -0.2827  0.3377
 3343TIP3    H131520   3.354   3.237  14.640  4.2664 -1.7590 -0.2133
 3343TIP3    H231521   3.315   3.244  14.494 -0.4868  0.6263  1.0392
 3344TIP3   OH231522   0.916   0.727  14.760  0.0596  0.0228  0.3338
 3344TIP3    H131523   0.958   0.809  14.732 -0.2578  0.6393  1.6148
 3344TIP3    H231524   0.849   0.711  14.694 -1.9085  2.4291  1.6895
 3345TIP3   OH231525   4.094   6.282  16.227  0.1558 -0.1975 -0.3161
 3345TIP3    H131526   4.073   6.255  16.137 -1.5177 -1.6068  0.4635
 3345TIP3    H231527   4.081   6.202  16.279 -0.6480  1.0429  1.4291
 3346TIP3   OH231528   6.806   5.769   2.138 -0.0491  0.0757 -0.1619
 3346TIP3    H131529   6.870   5.778   2.067 -0.4343  0.9040 -0.4095
 3346TIP3    H231530   6.820   5.681   2.172  0.7275 -0.0142 -0.6998
 3347TIP3   OH231531   0.935   6.609   3.247  0.7967 -0.2718  1.0245
 3347TIP3    H131532   0.855   6.634   3.292  0.1144  0.2916 -0.4842
 3347TIP3    H231533   0.911   6.533   3.194  1.1694  0.1443  0.2581
 3348TIP3   OH231534   4.624   6.043  16.451  0.1863  0.0636 -0.7111
 3348TIP3    H131535   4.685   6.108  16.414 -0.2973  0.6347 -0.5241
 3348TIP3    H231536   4.599   6.080  16.536 -0.6923  0.0175 -0.9449
 3349TIP3   OH231537   6.453   3.441  14.536 -0.0602  0.5749 -0.4090
 3349TIP3    H131538   6.374   3.391  14.555 -0.3180  0.6630 -1.2420
 3349TIP3    H231539   6.446   3.463  14.443  2.0256 -1.4014 -1.1043
 3350TIP3   OH231540   3.171   6.426   5.057  0.1274  0.0803  0.9414
 3350TIP3    H131541   3.243   6.434   4.994 -0.0794 -3.6969  0.1186
 3350TIP3    H231542   3.150   6.516   5.080  3.3306  1.3826 -0.8307
 3351TIP3   OH231543   5.752   3.883   4.883 -0.0023  0.0991  0.1510
 3351TIP3    H131544   5.706   3.967   4.881 -1.5105 -0.7009  0.9173
 3351TIP3    H231545   5.814   3.893   4.956  0.3831  0.8332 -0.2702
 3352TIP3   OH231546   5.449   1.463   3.425 -0.0976 -0.1966 -0.3231
 3352TIP3    H131547   5.504   1.412   3.484  0.1830  0.7827  0.2857
 3352TIP3    H231548   5.426   1.403   3.355  0.0966 -1.1960  0.4598
 3353TIP3   OH231549   5.211   5.412  12.088  0.2792  0.2805  0.3787
 3353TIP3    H131550   5.149   5.471  12.045  0.0812 -0.6059 -0.5686
 3353TIP3    H231551   5.158   5.338  12.117  0.6346  0.2541  0.9689
 3354TIP3   OH231552   0.023   3.728   4.447  0.2510 -0.7476  0.5299
 3354TIP3    H131553   0.020   3.824   4.450  0.9218 -0.6905 -0.4197
 3354TIP3    H231554   0.009   3.707   4.355 -0.2753 -1.5877  0.7952
 3355TIP3   OH231555   4.610   3.938  14.468 -0.6629  0.0385  0.5187
 3355TIP3    H131556   4.677   3.896  14.415 -0.1183  1.7017 -0.1397
 3355TIP3    H231557   4.587   4.018  14.420 -1.8023  0.4082  1.6344
 3356TIP3   OH231558   3.411   1.522  11.274  0.6783  0.0963 -0.4710
 3356TIP3    H131559   3.380   1.467  11.346  0.5855 -0.1096 -0.6666
 3356TIP3    H231560   3.387   1.474  11.195  0.2380  0.6167 -0.6520
 3357TIP3   OH231561   2.719   5.286  15.472  0.5376  0.9104 -0.3107
 3357TIP3    H131562   2.738   5.194  15.451  0.4363  0.4856  1.4110
 3357TIP3    H231563   2.805   5.327  15.480  0.6345  0.5059  0.8570
 3358TIP3   OH231564   2.502   1.451  14.736  0.0102  0.0794 -0.3668
 3358TIP3    H131565   2.530   1.392  14.807 -0.9098 -1.2777 -1.1079
 3358TIP3    H231566   2.570   1.441  14.669 -0.4431 -0.6002 -0.7345
 3359TIP3   OH231567   0.406   1.217  11.849  0.2341  0.1987 -0.3417
 3359TIP3    H131568   0.414   1.134  11.896 -0.5461  0.6082  0.5109
 3359TIP3    H231569   0.333   1.262  11.891 -0.5113  0.5554 -1.9552
 3360TIP3   OH231570   5.034   5.329  13.851  0.0194 -0.3588  0.5686
 3360TIP3    H131571   5.016   5.245  13.891 -0.2491 -0.8412 -0.5525
 3360TIP3    H231572   4.959   5.384  13.873 -0.4895 -0.8568  0.0872
 3361TIP3   OH231573   4.547   6.329  14.612  0.0817 -0.4982  0.3788
 3361TIP3    H131574   4.609   6.330  14.539  2.1213  0.9990  2.0814
 3361TIP3    H231575   4.472   6.279  14.579  1.3631 -0.6706 -2.3897
 3362TIP3   OH231576   4.972   6.679   4.878 -0.7215 -0.2291 -0.1234
 3362TIP3    H131577   4.890   6.710   4.917 -0.2293  0.6282  0.2488
 3362TIP3    H231578   5.026   6.654   4.953 -0.3952 -0.1761 -0.3403
 3363TIP3   OH231579   6.527   5.452  12.415  0.0394 -0.3509  0.0249
 3363TIP3    H131580   6.466   5.416  12.350 -1.7672  0.5082  1.2179
 3363TIP3    H231581   6.492   5.538  12.436  1.4957  0.0243  0.9695
 3364TIP3   OH231582   5.352   6.209  14.107  0.0655  0.2680  0.2253
 3364TIP3    H131583   5.317   6.125  14.139 -1.6115  0.8141 -0.1270
 3364TIP3    H231584   5.333   6.208  14.013  1.1359  0.5274 -0.0008
 3365TIP3   OH231585   0.136   1.080  11.970  0.1634 -0.4221 -0.1078
 3365TIP3    H131586   0.109   1.026  12.045 -0.8950  1.0154  0.5559
 3365TIP3    H231587   0.076   1.055  11.900 -0.0861 -0.3668  0.0861
 3366TIP3   OH231588   2.361   2.198  15.114 -0.6973  0.0943 -0.4784
 3366TIP3    H131589   2.336   2.242  15.033 -1.5327 -1.6163 -1.1614
 3366TIP3    H231590   2.291   2.136  15.131 -0.0447 -0.2544  1.0417
 3367TIP3   OH231591   1.796   5.592   0.869 -0.0803 -0.3257  0.7749
 3367TIP3    H131592   1.808   5.536   0.792 -1.7458 -0.0241  0.2791
 3367TIP3    H231593   1.813   5.534   0.943  0.7035 -0.8328  0.2054
 3368TIP3   OH231594   5.270   5.675   4.993 -0.3736  0.0142 -0.1085
 3368TIP3    H131595   5.338   5.626   4.947  0.2319  0.0060  0.7869
 3368TIP3    H231596   5.318   5.741   5.043 -1.1004  0.7373 -0.3353
 3369TIP3   OH231597   1.098   2.429  14.653  0.4751 -0.3439  0.1180
 3369TIP3    H131598   1.145   2.388  14.581  0.0918  0.7929 -0.7919
 3369TIP3    H231599   1.148   2.508  14.674 -0.6698  0.5493 -0.4491
 3370TIP3   OH231600   3.930   4.826   6.008  0.8053 -0.3067 -0.3265
 3370TIP3    H131601   3.863   4.891   5.985  0.0340 -1.0327 -0.1442
 3370TIP3    H231602   3.988   4.872   6.069 -0.3240 -0.1105  0.6050
 3371TIP3   OH231603   6.298   3.119  15.402  0.0217 -0.0071  0.3989
 3371TIP3    H131604   6.234   3.101  15.471 -1.5962  1.0101 -0.8027
 3371TIP3    H231605   6.252   3.097  15.320  1.3407  0.3374 -0.4486
 3372TIP3   OH231606   1.561   2.683  16.578 -0.1677  0.3816  0.1565
 3372TIP3    H131607   1.612   2.619  16.628 -1.1673 -0.1635  0.4797
 3372TIP3    H231608   1.618   2.705  16.504  0.9414  0.5104  1.0243
 3373TIP3   OH231609   6.053   5.891  15.948 -0.4183 -0.0672  0.1988
 3373TIP3    H131610   6.132   5.929  15.985 -1.2639  0.0245  1.9254
 3373TIP3    H231611   6.058   5.798  15.970 -0.3274 -0.2362 -0.5194
 3374TIP3   OH231612   1.904   5.617  11.700  0.0827  0.3139 -0.6153
 3374TIP3    H131613   1.954   5.629  11.619 -0.0052 -0.6937 -0.8344
 3374TIP3    H231614   1.821   5.662  11.684 -0.2426 -0.5296 -1.3950
 3375TIP3   OH231615   0.682   2.800  17.239 -0.2390 -0.3467 -0.1490
 3375TIP3    H131616   0.716   2.753  17.164 -0.7482 -1.6684  0.4459
 3375TIP3    H231617   0.699   2.743  17.314  0.4978  1.0574  0.7946
 3376TIP3   OH231618   6.414   1.230   4.559  0.1466  0.5902  0.3595
 3376TIP3    H131619   6.335   1.209   4.509 -0.8743  1.1276  1.7276
 3376TIP3    H231620   6.455   1.145   4.577 -0.3807  0.2763  0.0758
 3377TIP3   OH231621   1.053   3.730   0.723  0.5857  0.2805 -1.0538
 3377TIP3    H131622   1.129   3.673   0.705 -0.0534 -0.4084 -1.6057
 3377TIP3    H231623   1.089   3.802   0.775  1.1807 -1.3060  0.8070
 3378TIP3   OH231624   2.729   3.321  12.983  0.3927  0.3001  0.2152
 3378TIP3    H131625   2.654   3.379  12.986  0.1029 -0.1145  1.1887
 3378TIP3    H231626   2.695   3.238  12.949  0.7634  0.6352 -0.9811
 3379TIP3   OH231627   4.011   4.136  11.520 -0.2709 -0.2644 -0.2341
 3379TIP3    H131628   3.936   4.151  11.578 -2.1025 -0.0416 -2.6046
 3379TIP3    H231629   4.047   4.223  11.503  0.5353 -0.3677  0.8694
 3380TIP3   OH231630   3.037   1.908   5.288  0.4471 -0.3564  0.0057
 3380TIP3    H131631   2.997   1.881   5.205  0.2018 -1.0270  0.3371
 3380TIP3    H231632   3.025   1.832   5.346  0.2679  0.2496  0.7681
 3381TIP3   OH231633   6.049   4.429   6.756 -0.3994  0.5592  0.0704
 3381TIP3    H131634   6.138   4.453   6.731 -0.7181  0.8538 -0.8231
 3381TIP3    H231635   6.058   4.384   6.840  0.8448 -1.4939 -1.1195
 3382TIP3   OH231636   6.275   4.415  15.782  0.4722 -0.1203 -0.1363
 3382TIP3    H131637   6.278   4.422  15.878 -0.2078 -1.3279 -0.0145
 3382TIP3    H231638   6.363   4.387  15.757  0.4482 -0.4975  0.2004
 3383TIP3   OH231639   3.439   3.025   3.748 -0.9435  0.4037  0.7470
 3383TIP3    H131640   3.402   3.102   3.704 -1.7957  0.0735  0.8940
 3383TIP3    H231641   3.378   3.006   3.819 -0.6175 -0.2812  0.8447
 3384TIP3   OH231642   1.383   1.863   2.014 -0.3148 -0.2894  0.4326
 3384TIP3    H131643   1.299   1.854   2.059  0.0772  0.4196  1.3050
 3384TIP3    H231644   1.408   1.773   1.993 -1.1667 -0.5250  0.3798
 3385TIP3   OH231645   5.325   1.741   0.599  0.0005  0.4970 -0.5594
 3385TIP3    H131646   5.263   1.765   0.531  1.0357 -2.4617 -2.6244
 3385TIP3    H231647   5.410   1.773   0.567  0.3670 -0.1529 -0.2506
 3386TIP3   OH231648   6.523   5.217   0.573 -0.8663 -0.2558 -0.2542
 3386TIP3    H131649   6.493   5.140   0.622  0.0591  0.0351  0.8003
 3386TIP3    H231650   6.443   5.264   0.550 -1.4724 -1.7045 -1.2255
 3387TIP3   OH231651   0.501   0.831  13.955 -0.2152 -0.1721 -0.3333
 3387TIP3    H131652   0.587   0.858  13.924 -0.7753  0.2062 -1.6260
 3387TIP3    H231653   0.444   0.907  13.937 -0.4926  0.2395  2.0668
 3388TIP3   OH231654   2.320   1.163  12.281 -0.6570  0.1964 -0.4492
 3388TIP3    H131655   2.389   1.223  12.312  0.8361 -1.4045 -0.5669
 3388TIP3    H231656   2.368   1.091  12.241 -2.3014 -2.4466  2.1836
 3389TIP3   OH231657   1.762   2.938  13.436 -0.0378 -0.5026 -0.3224
 3389TIP3    H131658   1.806   2.932  13.352  0.7264 -3.7600  0.2256
 3389TIP3    H231659   1.724   2.851  13.449  1.0749 -0.5325  3.3107
 3390TIP3   OH231660   6.321   5.036   5.729 -0.2460  0.6418 -0.4726
 3390TIP3    H131661   6.356   5.010   5.814 -1.0550  0.9971 -0.0363
 3390TIP3    H231662   6.296   4.953   5.687 -2.7704  0.6706  0.8954
 3391TIP3   OH231663   3.589   2.832  13.920 -0.3147 -0.1701  1.3193
 3391TIP3    H131664   3.639   2.822  13.839 -2.0682 -0.4858  0.2323
 3391TIP3    H231665   3.582   2.743  13.955 -0.8714 -0.2608  0.9878
 3392TIP3   OH231666   3.462   4.964   1.781  0.4716 -0.1354 -0.2056
 3392TIP3    H131667   3.520   4.925   1.716 -1.0129 -0.7031 -1.2436
 3392TIP3    H231668   3.438   5.049   1.744  1.7782  0.7220  0.9015
 3393TIP3   OH231669   0.388   0.525  14.555 -0.2518  0.4030  0.0127
 3393TIP3    H131670   0.441   0.490  14.627 -1.8297 -0.2718  0.8871
 3393TIP3    H231671   0.400   0.620  14.560  0.7277  0.2657  0.3018
 3394TIP3   OH231672   0.994   0.623   4.675 -0.4864  0.3746 -0.4488
 3394TIP3    H131673   1.043   0.693   4.631 -0.1575  0.6091  0.2801
 3394TIP3    H231674   0.908   0.662   4.693  0.3411  1.2855  1.7267
 3395TIP3   OH231675   1.041   3.828  13.491  0.0371  0.2116 -0.0928
 3395TIP3    H131676   1.097   3.819  13.414  1.1587 -1.4479  0.8675
 3395TIP3    H231677   1.066   3.912  13.529 -1.3714  1.6104 -2.1557
 3396TIP3   OH231678   4.572   2.748   4.418  0.2468  0.0811 -0.3081
 3396TIP3    H131679   4.503   2.793   4.465  1.3674  0.0665  1.4033
 3396TIP3    H231680   4.532   2.667   4.387  0.0348 -0.9541  2.5153
 3397TIP3   OH231681   1.833   0.139  13.565 -0.4825 -0.5404 -0.5183
 3397TIP3    H131682   1.770   0.066  13.562 -2.0214  0.5406  3.1860
 3397TIP3    H231683   1.911   0.101  13.604 -0.0171 -1.0418 -1.9082
 3398TIP3   OH231684   2.862   2.154   6.061 -0.2495 -0.0431 -0.6473
 3398TIP3    H131685   2.775   2.161   6.100 -0.9093  0.6200 -2.2113
 3398TIP3    H231686   2.911   2.100   6.123 -2.0357 -1.2086 -0.2005
 3399TIP3   OH231687   1.901   3.700  15.181 -0.6096  0.3488 -0.1174
 3399TIP3    H131688   1.816   3.737  15.203 -1.1206 -1.1821  0.6085
 3399TIP3    H231689   1.958   3.724  15.255 -1.4518 -1.9239  1.3313
 3400TIP3   OH231690   4.536   2.409  14.653  0.0714 -0.3089 -0.7311
 3400TIP3    H131691   4.519   2.322  14.616  0.8574 -1.3234  1.2296
 3400TIP3    H231692   4.630   2.409  14.670 -0.1994  0.3192  0.8153
 3401TIP3   OH231693   1.140   4.122  14.222 -0.0586 -0.4373  0.4759
 3401TIP3    H131694   1.184   4.037  14.222  0.0323 -0.3907 -0.4043
 3401TIP3    H231695   1.117   4.138  14.131 -1.2957 -0.1466  0.8210
 3402TIP3   OH231696   3.100   5.070  10.971  0.5566 -0.1609  0.6590
 3402TIP3    H131697   3.039   5.113  10.911 -0.5529 -0.1286  1.7970
 3402TIP3    H231698   3.154   5.015  10.914 -0.2498  0.1246 -0.4110
 3403TIP3   OH231699   5.484   4.815   2.549  0.0949 -0.0298 -0.5034
 3403TIP3    H131700   5.407   4.821   2.493  1.9647  0.1866 -3.1118
 3403TIP3    H231701   5.495   4.722   2.566 -1.2019 -0.0078  0.6267
 3404TIP3   OH231702   2.100   3.639  11.601  0.0565 -0.5267 -0.3276
 3404TIP3    H131703   2.118   3.719  11.552 -2.1789 -0.0625 -0.4304
 3404TIP3    H231704   2.145   3.651  11.685 -0.6397  1.0169 -0.1709
 3405TIP3   OH231705   6.221   5.690  14.291 -0.7033  0.3892 -0.5946
 3405TIP3    H131706   6.183   5.778  14.294 -1.4871  0.0331  0.4345
 3405TIP3    H231707   6.286   5.690  14.361 -2.4966 -0.6186  1.1535
 3406TIP3   OH231708   6.141   6.167  12.556 -0.6547 -0.2351  0.1267
 3406TIP3    H131709   6.233   6.193  12.551 -0.9879  1.2782  1.4950
 3406TIP3    H231710   6.129   6.106  12.483  0.6864  1.8726 -1.9171
 3407TIP3   OH231711   4.369   0.234  13.478  0.5880 -0.4593 -0.7472
 3407TIP3    H131712   4.307   0.233  13.405 -0.2356  1.2215 -0.1172
 3407TIP3    H231713   4.318   0.203  13.553 -0.4637  3.7414  0.4281
 3408TIP3   OH231714   0.494   5.293   6.156 -0.2512  0.3343 -0.4473
 3408TIP3    H131715   0.522   5.206   6.125 -1.0963 -0.0329 -0.2049
 3408TIP3    H231716   0.398   5.287   6.159 -0.1946  0.3979  2.1441
 3409TIP3   OH231717   3.758   6.519  11.236 -0.7598  0.3024  0.0836
 3409TIP3    H131718   3.796   6.505  11.323  1.2498 -0.2910 -0.8494
 3409TIP3    H231719   3.737   6.612  11.234 -0.6210  0.3670  1.1340
 3410TIP3   OH231720   2.081   5.889   0.498  0.1255 -0.4093 -0.0182
 3410TIP3    H131721   1.991   5.875   0.468  0.0749  0.4853 -0.2938
 3410TIP3    H231722   2.073   5.898   0.593 -0.1407  0.1898 -0.0956
 3411TIP3   OH231723   3.021   5.084  12.766 -0.1975 -0.1369 -0.2229
 3411TIP3    H131724   2.928   5.077  12.744 -0.2235  0.2214 -0.2305
 3411TIP3    H231725   3.058   5.000  12.740 -0.2790  0.1734 -1.3778
 3412TIP3   OH231726   4.877   3.927   1.385 -0.4338  0.6207  0.0449
 3412TIP3    H131727   4.852   4.016   1.362 -1.9697  0.6837  1.8696
 3412TIP3    H231728   4.809   3.872   1.346  0.4386  0.2243 -0.9621
 3413TIP3   OH231729   3.790   5.521  13.389 -0.3682 -0.7336  0.0506
 3413TIP3    H131730   3.871   5.564  13.414 -0.5765 -0.1912 -0.1937
 3413TIP3    H231731   3.808   5.482  13.304 -0.7166  0.3997 -0.5573
 3414TIP3   OH231732   5.747   3.424  15.545  0.0826  0.3577 -0.4193
 3414TIP3    H131733   5.806   3.475  15.490  0.8039 -1.4587 -1.3593
 3414TIP3    H231734   5.675   3.484  15.564  1.4765  2.1040 -0.5187
 3415TIP3   OH231735   0.204   2.846  16.976 -0.3549 -0.6567 -0.2492
 3415TIP3    H131736   0.185   2.753  16.987 -1.1659 -0.2639  1.7709
 3415TIP3    H231737   0.218   2.879  17.065  2.0654  0.7136 -1.0993
 3416TIP3   OH231738   2.695   2.587   5.265 -0.1874  0.1904  0.4738
 3416TIP3    H131739   2.651   2.655   5.315  1.2022  0.4641  1.3530
 3416TIP3    H231740   2.787   2.615   5.261 -0.2270  0.0964 -2.0911
 3417TIP3   OH231741   5.841   4.184  14.068  0.2706  0.5658  0.3119
 3417TIP3    H131742   5.878   4.097  14.083  0.1471  0.5817  0.7115
 3417TIP3    H231743   5.761   4.186  14.121  0.0641  0.7813 -0.0037
 3418TIP3   OH231744   1.032   4.138   6.187 -0.1280 -0.2037 -0.6563
 3418TIP3    H131745   1.064   4.099   6.269 -0.1296 -0.8391 -0.9531
 3418TIP3    H231746   1.110   4.154   6.135 -0.0953  0.5757 -0.3687
 3419TIP3   OH231747   2.984   5.271   2.097 -0.6198 -0.6792 -0.5833
 3419TIP3    H131748   2.965   5.205   2.030  1.0438 -0.5760 -1.1827
 3419TIP3    H231749   3.076   5.258   2.118 -0.8645 -0.0216  0.9591
 3420TIP3   OH231750   1.766   0.132   2.946 -0.4446  0.1345  0.5385
 3420TIP3    H131751   1.858   0.109   2.963  0.0348  2.2198  0.9446
 3420TIP3    H231752   1.717   0.055   2.975  1.0922 -0.5268  1.4824
 3421TIP3   OH231753   3.613   3.537  11.634 -0.4824 -0.0975  0.1219
 3421TIP3    H131754   3.602   3.579  11.719  0.5213 -0.1408  0.2895
 3421TIP3    H231755   3.630   3.445  11.655 -0.2688 -0.1152 -0.1203
 3422TIP3   OH231756   6.397   3.878   3.507 -0.3714  0.3438 -0.8074
 3422TIP3    H131757   6.343   3.870   3.429  0.7701  0.9495 -1.6757
 3422TIP3    H231758   6.338   3.914   3.574 -1.5180 -0.7960 -1.1928
 3423TIP3   OH231759   3.829   1.822   6.431  0.0443  0.2276 -0.3790
 3423TIP3    H131760   3.861   1.770   6.505  0.2341 -0.5472 -0.9970
 3423TIP3    H231761   3.834   1.913   6.461  0.6524 -0.0461  0.3579
 3424TIP3   OH231762   0.928   2.931   1.090 -0.7761  0.2680 -0.1687
 3424TIP3    H131763   0.865   2.875   1.047 -3.3146  0.6954  2.7735
 3424TIP3    H231764   0.921   3.015   1.045 -1.0232 -0.2078 -1.0136
 3425TIP3   OH231765   2.888   5.737   1.851  0.4972 -0.2375 -0.3828
 3425TIP3    H131766   2.973   5.763   1.885 -0.2926  0.7629  0.8658
 3425TIP3    H231767   2.877   5.646   1.881 -0.0502  0.5227  1.7864
 3426TIP3   OH231768   1.795   2.401  15.872  1.1964  0.1619  0.9177
 3426TIP3    H131769   1.750   2.485  15.866 -0.3400 -0.7572 -0.6654
 3426TIP3    H231770   1.783   2.374  15.963 -0.6934  0.3535  0.7454
 3427TIP3   OH231771   1.148   4.196  13.814  0.5106  0.2799 -0.1391
 3427TIP3    H131772   1.060   4.201  13.853  0.5488  1.9048 -0.2251
 3427TIP3    H231773   1.206   4.228  13.883  1.0718 -1.0437  0.0086
 3428TIP3   OH231774   2.641   4.336  17.211 -0.2445 -0.4475  0.5031
 3428TIP3    H131775   2.708   4.276  17.243  1.1759  0.7934 -0.1075
 3428TIP3    H231776   2.633   4.316  17.118 -1.6677 -1.4716  0.8259
 3429TIP3   OH231777   0.518   4.715   3.742 -0.2240  0.0205  0.4365
 3429TIP3    H131778   0.522   4.675   3.829 -3.6724 -0.9224  0.2533
 3429TIP3    H231779   0.554   4.648   3.684 -0.7584 -0.5951  0.7970
 3430TIP3   OH231780   1.633   5.465   5.816 -0.1199  0.0974  0.0352
 3430TIP3    H131781   1.556   5.411   5.831  0.0385 -0.0200  0.4364
 3430TIP3    H231782   1.646   5.511   5.899 -0.9777  1.6739 -0.6828
 3431TIP3   OH231783   1.958   4.962   6.265  0.4849 -0.1029  0.3026
 3431TIP3    H131784   2.040   4.917   6.284  1.0607  1.3404  1.3214
 3431TIP3    H231785   1.930   4.997   6.350 -1.8779 -1.7274  0.2156
 3432TIP3   OH231786   4.097   1.531  17.083 -0.1237 -0.3074 -0.1702
 3432TIP3    H131787   4.113   1.603  17.145 -0.6287  0.6350 -1.1172
 3432TIP3    H231788   4.139   1.560  17.002 -2.8196  0.2450 -1.4100
 3433TIP3   OH231789   3.835   4.936   0.535 -0.0165  0.2711 -0.0982
 3433TIP3    H131790   3.923   4.949   0.500  0.8469 -0.4508  1.7189
 3433TIP3    H231791   3.781   4.916   0.458  1.3928  0.7463 -1.2298
 3434TIP3   OH231792   0.521   5.378  10.767 -0.2132 -0.3982 -0.0313
 3434TIP3    H131793   0.492   5.297  10.725  1.2572 -0.1514 -1.5439
 3434TIP3    H231794   0.447   5.438  10.755 -1.3044 -1.4812  1.0830
 3435TIP3   OH231795   0.333   4.056  14.470  0.4448  0.1082 -0.6251
 3435TIP3    H131796   0.350   3.990  14.537  2.5551  2.5847  1.4397
 3435TIP3    H231797   0.247   4.091  14.492  1.6936  1.8512  1.7378
 3436TIP3   OH231798   4.353   3.230  11.938 -0.6268 -0.2250  0.0764
 3436TIP3    H131799   4.333   3.150  11.889 -0.9963  0.1136 -0.3277
 3436TIP3    H231800   4.312   3.300  11.888 -0.3264  0.2191  0.4454
 3437TIP3   OH231801   0.131   1.300   3.303  0.5310 -0.0102 -0.2546
 3437TIP3    H131802   0.045   1.266   3.280  0.6356 -0.3603 -0.1211
 3437TIP3    H231803   0.158   1.249   3.379  1.2523 -0.5272 -0.8441
 3438TIP3   OH231804   4.833   5.564  13.640  0.0791 -0.4870 -0.0462
 3438TIP3    H131805   4.797   5.532  13.723  0.8767  0.6170  0.7419
 3438TIP3    H231806   4.910   5.615  13.665 -1.3930  2.4301 -1.1955
 3439TIP3   OH231807   4.409   0.714   6.224 -0.1504 -0.0680 -0.5653
 3439TIP3    H131808   4.456   0.640   6.263 -1.5646 -0.2213  0.9239
 3439TIP3    H231809   4.478   0.768   6.185  1.2351 -0.5233  1.1422
 3440TIP3   OH231810   5.572   5.139   2.633  0.0300  0.1253 -0.0497
 3440TIP3    H131811   5.597   5.231   2.630 -0.5882  0.2882 -0.3029
 3440TIP3    H231812   5.617   5.104   2.710 -0.3331  0.8168  0.4794
 3441TIP3   OH231813   6.440   1.120   4.089  0.3310  0.1813  0.0670
 3441TIP3    H131814   6.363   1.096   4.140 -1.6768  2.8390 -1.5863
 3441TIP3    H231815   6.490   1.178   4.147 -0.5028  0.9002  0.0917
 3442TIP3   OH231816   2.701   2.679   0.033  0.4852  0.1761  0.2116
 3442TIP3    H131817   2.679   2.691   0.125  0.3304  1.7692 -0.0169
 3442TIP3    H231818   2.797   2.676   0.032  0.5204  1.1337  0.3205
 3443TIP3   OH231819   5.116   1.310  14.500 -0.1850  0.0668  0.6505
 3443TIP3    H131820   5.046   1.370  14.525  0.5275  1.5501 -0.8399
 3443TIP3    H231821   5.073   1.242  14.449 -1.0777 -1.0100  2.7783
 3444TIP3   OH231822   3.343   1.483   1.628  0.6182  0.2059 -0.1633
 3444TIP3    H131823   3.261   1.481   1.578 -0.3413 -0.1009  1.4026
 3444TIP3    H231824   3.344   1.570   1.668  1.8882  0.8402 -1.4854
 3445TIP3   OH231825   2.000   4.245  13.107 -0.1908  0.4806 -0.5229
 3445TIP3    H131826   1.957   4.194  13.038 -0.2477 -0.0823 -0.0708
 3445TIP3    H231827   2.002   4.334  13.072 -4.1010  1.0768  0.4919
 3446TIP3   OH231828   4.217   3.801  11.333  0.4184  0.1318  0.0237
 3446TIP3    H131829   4.198   3.795  11.239  2.9872  0.9099 -0.5921
 3446TIP3    H231830   4.257   3.888  11.343  0.3350 -0.0280  1.8099
 3447TIP3   OH231831   1.117   5.655   0.512 -0.3986  0.2897 -0.3014
 3447TIP3    H131832   1.190   5.627   0.568 -1.4006  1.0597  1.4534
 3447TIP3    H231833   1.122   5.750   0.511 -3.0179  0.5327  2.2235
 3448TIP3   OH231834   5.114   2.610  11.017 -0.2328 -0.2346 -0.8624
 3448TIP3    H131835   5.128   2.701  10.991 -0.5582  0.0289 -0.1544
 3448TIP3    H231836   5.023   2.593  10.993 -1.4780  0.9342  2.6168
 3449TIP3   OH231837   6.565   4.363   5.969 -0.1345 -0.6407  0.2426
 3449TIP3    H131838   6.477   4.343   6.000 -0.5850  0.1806 -0.4825
 3449TIP3    H231839   6.551   4.422   5.895  1.0147 -0.7328 -0.0515
 3450TIP3   OH231840   3.217   1.818   4.840  0.1646  0.0987 -0.0467
 3450TIP3    H131841   3.220   1.912   4.854 -0.5373  0.2056 -0.5647
 3450TIP3    H231842   3.134   1.803   4.793 -0.3397 -0.9190  1.1284
 3451TIP3   OH231843   3.751   2.438   2.639 -0.1145 -0.3856  0.6054
 3451TIP3    H131844   3.718   2.457   2.727 -3.4760 -0.4696 -0.5723
 3451TIP3    H231845   3.736   2.518   2.589  0.4703 -0.7999 -0.2522
 3452TIP3   OH231846   3.613   4.587  13.223 -0.3018 -0.5926 -0.0484
 3452TIP3    H131847   3.577   4.501  13.203  0.2065 -0.9885  0.7263
 3452TIP3    H231848   3.684   4.599  13.159 -0.9355 -0.3761 -0.7134
 3453TIP3   OH231849   1.125   4.494  13.035  0.0709 -0.0519 -0.0917
 3453TIP3    H131850   1.042   4.466  13.071  0.3540  1.3250  1.7269
 3453TIP3    H231851   1.149   4.572  13.087  2.1784 -0.0696 -0.9631
 3454TIP3   OH231852   3.049   2.139  12.881 -0.1740  0.1118 -0.3160
 3454TIP3    H131853   3.030   2.189  12.960  0.0589  0.3927 -0.4347
 3454TIP3    H231854   3.019   2.195  12.810 -3.1401 -1.3976 -0.3225
 3455TIP3   OH231855   0.428   6.418  16.263 -0.3506 -0.6482  0.4113
 3455TIP3    H131856   0.401   6.498  16.308 -0.6213 -1.4036  1.6170
 3455TIP3    H231857   0.473   6.449  16.184  0.8091  0.7163  1.5686
 3456TIP3   OH231858   4.026   3.523   5.769 -0.0068 -0.4908 -0.3623
 3456TIP3    H131859   3.999   3.493   5.856  1.2974  0.3946  0.3626
 3456TIP3    H231860   4.117   3.550   5.780 -0.0171  0.2066 -1.8660
 3457TIP3   OH231861   1.061   2.732  12.241 -0.2456  0.3165  0.3535
 3457TIP3    H131862   1.144   2.749  12.197 -0.5840 -0.7958 -0.7688
 3457TIP3    H231863   1.062   2.638  12.258 -1.3042  0.2660  0.2270
 3458TIP3   OH231864   6.657   3.159   0.427 -0.7592 -0.1814 -0.2820
 3458TIP3    H131865   6.728   3.224   0.424 -0.2075 -0.7188  0.9815
 3458TIP3    H231866   6.626   3.161   0.518 -1.1493 -1.2566 -0.3833
 3459TIP3   OH231867   0.564   0.799  14.735  0.0504  0.2407  1.3890
 3459TIP3    H131868   0.596   0.888  14.722  1.1913 -0.1744  1.3255
 3459TIP3    H231869   0.489   0.792  14.676 -0.0921  1.1804  1.4528
 3460TIP3   OH231870   2.429   6.222  11.167  0.0014 -0.4692  0.4946
 3460TIP3    H131871   2.364   6.159  11.136 -1.1358  0.6839  0.5184
 3460TIP3    H231872   2.494   6.168  11.214  0.8547 -2.0473 -2.3582
 3461TIP3   OH231873   4.663   0.792  17.182 -0.0286 -0.6353  0.2235
 3461TIP3    H131874   4.597   0.722  17.183  0.3390 -0.9940 -0.1179
 3461TIP3    H231875   4.709   0.783  17.266  0.0954 -0.8807  0.1284
 3462TIP3   OH231876   2.644   4.979   2.695  0.0828  0.2837  0.5141
 3462TIP3    H131877   2.607   5.013   2.776  2.6714  0.7857  1.4951
 3462TIP3    H231878   2.693   4.901   2.721 -2.7563 -2.2306 -1.2110
 3463TIP3   OH231879   5.196   6.731   0.330  0.3337 -0.4933  0.1960
 3463TIP3    H131880   5.195   6.752   0.424 -1.4145 -0.8930  0.2866
 3463TIP3    H231881   5.109   6.758   0.299  1.0124 -0.0849 -1.3747
 3464TIP3   OH231882   5.465   2.282  15.671 -0.7808  0.4484  0.2023
 3464TIP3    H131883   5.390   2.337  15.651 -2.4826 -2.0838 -0.5723
 3464TIP3    H231884   5.430   2.210  15.723  1.5721  0.5936  2.1044
 3465TIP3   OH231885   3.885   1.562  15.393  0.1140 -0.0732 -0.2244
 3465TIP3    H131886   3.883   1.466  15.397  3.2944 -0.1558  1.3948
 3465TIP3    H231887   3.949   1.581  15.324 -0.3458  0.8732 -0.3830
 3466TIP3   OH231888   2.463   5.738  11.477 -0.6428 -0.5435  0.2794
 3466TIP3    H131889   2.465   5.725  11.383 -0.8718  1.2979  0.0055
 3466TIP3    H231890   2.370   5.734  11.500 -0.5574 -1.3637  0.4793
 3467TIP3   OH231891   0.171   4.956   6.787 -0.8814  0.1289  0.4233
 3467TIP3    H131892   0.196   5.047   6.767 -1.2396  0.1452  0.0528
 3467TIP3    H231893   0.240   4.903   6.748 -2.2678  0.0918 -2.0631
 3468TIP3   OH231894   0.388   6.278   5.730 -0.4051  0.3933 -0.3960
 3468TIP3    H131895   0.435   6.233   5.800  2.6295  0.8437 -2.0627
 3468TIP3    H231896   0.346   6.352   5.774  0.3710 -0.0732  1.1655
 3469TIP3   OH231897   0.270   4.665   5.749 -0.3742 -0.0582 -0.0479
 3469TIP3    H131898   0.259   4.571   5.762 -1.7073 -0.0434 -0.9289
 3469TIP3    H231899   0.365   4.678   5.746 -0.1739 -1.3255  0.3540
 3470TIP3   OH231900   3.761   0.625  12.278  0.1640 -0.4627 -0.0061
 3470TIP3    H131901   3.681   0.611  12.227 -0.4755  0.9267  0.5981
 3470TIP3    H231902   3.735   0.606  12.368  0.0473  1.6299  0.4309
 3471TIP3   OH231903   5.189   1.929  13.739 -0.2599 -0.2492  0.5875
 3471TIP3    H131904   5.215   1.917  13.648 -1.2018 -0.8835  0.4008
 3471TIP3    H231905   5.192   1.842  13.777  1.4383  0.2018  1.5202
 3472TIP3   OH231906   6.114   6.086   5.964  0.4858  0.0516  0.1850
 3472TIP3    H131907   6.029   6.048   5.986  0.1616 -0.6660 -2.1413
 3472TIP3    H231908   6.107   6.178   5.988 -0.9414 -0.0092  0.0229
 3473TIP3   OH231909   2.603   1.359  13.475  0.3502  0.3440  0.1843
 3473TIP3    H131910   2.691   1.338  13.504 -0.0853 -2.5248 -0.3487
 3473TIP3    H231911   2.606   1.349  13.380 -0.3184  1.1220  0.0788
 3474TIP3   OH231912   4.182   3.345  10.822 -0.1107 -0.1232 -0.5869
 3474TIP3    H131913   4.237   3.267  10.834 -1.3582 -0.6421  2.3406
 3474TIP3    H231914   4.213   3.405  10.890  1.2083  2.2072 -3.1825
 3475TIP3   OH231915   0.008   2.501  12.439  0.2188 -0.2228 -0.3067
 3475TIP3    H131916   0.014   2.455  12.356 -0.9000 -0.7808 -0.0806
 3475TIP3    H231917  -0.085   2.514  12.454  0.4151  0.0897  0.7485
 3476TIP3   OH231918   1.717   3.565  11.303 -0.1611 -0.7411 -0.2401
 3476TIP3    H131919   1.807   3.541  11.280  0.4597  0.8910  0.3698
 3476TIP3    H231920   1.708   3.655  11.272 -2.6322 -1.8626 -3.0894
 3477TIP3   OH231921   2.252   6.317   1.242 -0.1800 -0.1270  0.3455
 3477TIP3    H131922   2.191   6.243   1.238 -1.0576  0.6531 -2.1605
 3477TIP3    H231923   2.320   6.295   1.178  1.0871 -0.0560  1.6601
 3478TIP3   OH231924   1.443   0.153  17.163 -0.1832  0.0423 -0.1906
 3478TIP3    H131925   1.402   0.078  17.118 -0.5488  0.1254  0.0022
 3478TIP3    H231926   1.516   0.115  17.211  0.4277  0.0027 -1.1330
 3479TIP3   OH231927   3.626   4.860   1.596  0.0968 -0.4252 -0.0759
 3479TIP3    H131928   3.628   4.885   1.504  0.4118 -2.8129 -0.7532
 3479TIP3    H231929   3.718   4.847   1.619 -0.0129 -0.2602  0.4528
 3480TIP3   OH231930   3.208   5.561  12.411 -0.5615 -0.0999  0.8118
 3480TIP3    H131931   3.296   5.595  12.423 -0.6578  0.6297 -0.4332
 3480TIP3    H231932   3.216   5.497  12.341 -1.2375  0.9471 -0.2500
 3481TIP3   OH231933   3.270   0.594  16.294  0.7208  0.1183  0.9573
 3481TIP3    H131934   3.321   0.638  16.226  1.5868 -1.2376  0.7053
 3481TIP3    H231935   3.182   0.631  16.287  0.5172 -0.7470 -1.6200
 3482TIP3   OH231936   5.955   6.483  10.537  0.1078 -0.1941  0.2461
 3482TIP3    H131937   5.961   6.388  10.545 -0.2372 -0.0271  2.6906
 3482TIP3    H231938   6.046   6.513  10.538  0.1194 -0.2417  3.1953
 3483TIP3   OH231939   6.747   5.474   2.357 -0.0942  0.2499  0.0987
 3483TIP3    H131940   6.660   5.468   2.397 -0.7467 -0.5853 -1.4059
 3483TIP3    H231941   6.735   5.440   2.268  1.9316 -0.5558  0.1093
 3484TIP3   OH231942   4.813   4.134  15.366  0.3797 -0.0779  0.7630
 3484TIP3    H131943   4.769   4.154  15.449 -2.2135 -0.4450 -0.4811
 3484TIP3    H231944   4.751   4.080  15.318  1.3931  1.0148 -1.8900
 3485TIP3   OH231945   1.366   5.019  12.259 -0.1925 -0.8579  0.1849
 3485TIP3    H131946   1.289   5.072  12.237  1.1209  1.0656  0.0943
 3485TIP3    H231947   1.372   4.955  12.189  0.3047  1.2234 -1.7368
 3486TIP3   OH231948   1.281   6.753  11.624  0.9894  0.3081  0.0402
 3486TIP3    H131949   1.210   6.779  11.682  0.5121 -1.9874  0.5315
 3486TIP3    H231950   1.290   6.826  11.563 -1.8116  0.6280 -0.0495
 3487TIP3   OH231951   3.031   4.755   0.223 -0.0393 -0.0395 -0.1714
 3487TIP3    H131952   3.038   4.788   0.313 -1.4671 -0.2124  0.0102
 3487TIP3    H231953   2.964   4.687   0.228  0.1078 -0.2695 -1.3173
 3488TIP3   OH231954   0.774   5.166  13.640  0.6214  0.2172  0.1117
 3488TIP3    H131955   0.832   5.225  13.687  1.1979 -0.5669  0.4108
 3488TIP3    H231956   0.740   5.107  13.708 -2.0140  1.8462  0.2590
 3489TIP3   OH231957   6.247   2.844  14.589  0.2618 -0.4209 -0.1148
 3489TIP3    H131958   6.240   2.939  14.599  1.2126 -0.5087  1.4327
 3489TIP3    H231959   6.208   2.827  14.503  2.0499  1.6104 -1.3872
 3490TIP3   OH231960   6.102   5.369  17.217 -0.0432  0.8968  0.5556
 3490TIP3    H131961   6.062   5.287  17.247  0.1655  0.5398 -0.1406
 3490TIP3    H231962   6.038   5.408  17.158  0.8560  0.0368 -1.0210
 3491TIP3   OH231963   0.672   0.358  12.928  0.1027  0.5610 -0.1254
 3491TIP3    H131964   0.751   0.309  12.953 -1.0124 -1.0608  0.2902
 3491TIP3    H231965   0.625   0.370  13.010 -0.8132  0.2086 -0.5931
 3492TIP3   OH231966   0.418   4.710  13.691  0.2049 -0.3316 -0.2089
 3492TIP3    H131967   0.455   4.692  13.605 -1.4461 -0.3353 -0.9226
 3492TIP3    H231968   0.365   4.788  13.680 -2.8592 -2.3200 -0.0409
 3493TIP3   OH231969   2.594   6.003   1.428  0.2990  0.1678  0.0248
 3493TIP3    H131970   2.589   5.930   1.366  3.8285  1.2441 -1.6608
 3493TIP3    H231971   2.663   5.978   1.489 -0.2882  0.9718  1.0381
 3494TIP3   OH231972   3.372   4.761   3.300  0.1954  0.2838 -0.3841
 3494TIP3    H131973   3.418   4.845   3.294 -0.3191  0.5014 -1.3343
 3494TIP3    H231974   3.347   4.740   3.210  0.1221 -0.7817 -0.1228
 3495TIP3   OH231975   1.169   5.840   1.153  0.1798 -0.0067  0.4732
 3495TIP3    H131976   1.095   5.866   1.098  0.9546  0.6713 -0.2769
 3495TIP3    H231977   1.165   5.745   1.157 -0.3650 -0.0067 -0.0814
 3496TIP3   OH231978   4.985   1.727  12.115  0.4772  0.2764  0.3105
 3496TIP3    H131979   5.019   1.815  12.098 -1.0232  0.8915  0.3632
 3496TIP3    H231980   4.896   1.729  12.079  0.5648 -1.3549 -0.0424
 3497TIP3   OH231981   2.157   4.945   0.732  1.1657  0.0088 -0.5224
 3497TIP3    H131982   2.128   4.966   0.821  0.4171  2.0922 -1.2364
 3497TIP3    H231983   2.132   5.021   0.679  3.5937 -0.2234 -2.1129
 3498TIP3   OH231984   3.228   6.217  12.479 -0.0448 -0.2484 -0.3724
 3498TIP3    H131985   3.155   6.246  12.426  0.0338  0.2057 -0.2396
 3498TIP3    H231986   3.285   6.169  12.419 -2.2390 -3.8690  0.2591
 3499TIP3   OH231987   5.166   6.088  15.184  0.2853  0.3860 -0.0287
 3499TIP3    H131988   5.085   6.120  15.144  0.5803 -0.5958 -1.4558
 3499TIP3    H231989   5.234   6.146  15.152 -0.0815  2.4605  2.7625
 3500TIP3   OH231990   4.733   2.919   5.332 -0.2206 -0.0438  0.1634
 3500TIP3    H131991   4.648   2.956   5.357  0.6826  1.3412  1.2427
 3500TIP3    H231992   4.729   2.828   5.362 -1.6931 -0.2820 -0.6969
 3501TIP3   OH231993   1.163   1.439   2.161  0.0815 -0.4283 -0.6095
 3501TIP3    H131994   1.111   1.482   2.229 -0.1731  0.6938 -1.5041
 3501TIP3    H231995   1.099   1.391   2.108 -0.0726  0.9724 -1.7261
 3502TIP3   OH231996   2.494   0.980   5.265  0.3768  0.3199 -0.0429
 3502TIP3    H131997   2.486   0.889   5.238 -1.3830  0.2124  0.7488
 3502TIP3    H231998   2.558   1.018   5.205  1.7300 -1.6207  0.1188
 3503TIP3   OH231999   5.997   5.413  13.953 -0.1755  0.1848 -0.6033
 3503TIP3    H132000   6.003   5.324  13.987  0.1109 -0.0012 -1.1446
 3503TIP3    H232001   6.003   5.404  13.858  1.9344  0.9366 -0.5823
 3504TIP3   OH232002   3.365   6.054  12.283  0.1881  0.2707 -0.3053
 3504TIP3    H132003   3.379   5.981  12.345  1.6093  0.6925 -0.1046
 3504TIP3    H232004   3.452   6.068  12.245 -0.5577  0.4436 -1.9294
 3505TIP3   OH232005   5.313   5.994   4.480  0.4213 -0.3099 -0.0316
 3505TIP3    H132006   5.232   6.000   4.530 -0.5907 -0.1797 -1.6808
 3505TIP3    H232007   5.324   5.900   4.463  1.2245 -0.4451  1.1467
 3506TIP3   OH232008   3.561   3.319   5.450 -0.6777  0.4345  0.3126
 3506TIP3    H132009   3.603   3.351   5.530 -0.9690  0.9930  0.2458
 3506TIP3    H232010   3.564   3.393   5.390 -1.1565  0.2626  0.0742
 3507TIP3   OH232011   1.670   2.520   4.093  0.9596  0.3666 -0.4823
 3507TIP3    H132012   1.603   2.455   4.117 -0.3783  1.9170  0.0670
 3507TIP3    H232013   1.673   2.579   4.169  1.3382  1.5973 -1.4520
 3508TIP3   OH232014   2.144   3.368  14.295 -0.1311 -0.2625 -0.2965
 3508TIP3    H132015   2.068   3.310  14.295  0.6879 -1.3367 -0.9484
 3508TIP3    H232016   2.219   3.311  14.307  0.3775  1.1284  3.7864
 3509TIP3   OH232017   3.475   4.357  13.117 -0.4820 -0.0334 -0.1079
 3509TIP3    H132018   3.451   4.278  13.068 -1.0829  0.5437 -0.7499
 3509TIP3    H232019   3.415   4.358  13.191  0.1135 -0.6513  0.3895
 3510TIP3   OH232020   3.264   3.158  16.168  0.1940  0.1036 -0.5231
 3510TIP3    H132021   3.265   3.249  16.141  1.7152  0.0101 -0.8304
 3510TIP3    H232022   3.286   3.109  16.089 -1.8000 -0.6244 -0.6521
 3511TIP3   OH232023   3.253   5.397  12.210  0.6557  0.0427 -0.2420
 3511TIP3    H132024   3.191   5.409  12.139 -2.1854 -0.8551  1.9961
 3511TIP3    H232025   3.253   5.303  12.227 -0.8187  0.5179  2.6999
 3512TIP3   OH232026   5.879   5.693  16.465 -0.2279 -0.1747 -0.1094
 3512TIP3    H132027   5.830   5.636  16.406  1.5648 -2.0998  0.1941
 3512TIP3    H232028   5.970   5.666  16.455  0.3946  1.1279  1.7053
 3513TIP3   OH232029   4.019   5.867  11.510 -0.3604  0.0196 -0.1435
 3513TIP3    H132030   4.096   5.880  11.565 -0.2546  0.6945 -0.4406
 3513TIP3    H232031   4.053   5.840  11.425 -0.5354 -1.2253  0.1832
 3514TIP3   OH232032   2.679   1.956   0.744 -0.3907 -0.4489  0.2202
 3514TIP3    H132033   2.598   1.905   0.732 -0.4488 -0.3901  0.3724
 3514TIP3    H232034   2.734   1.902   0.800  0.9214 -1.9178 -2.3423
 3515TIP3   OH232035   4.486   5.214   2.603 -0.7997  0.1755 -0.1803
 3515TIP3    H132036   4.410   5.208   2.545 -1.2628 -1.1056  0.5564
 3515TIP3    H232037   4.560   5.230   2.544 -1.6245  1.3663 -0.9017
 3516TIP3   OH232038   5.292   2.926   1.829 -0.3249 -0.1373  0.0329
 3516TIP3    H132039   5.220   2.904   1.769 -0.9151 -1.5263  1.2201
 3516TIP3    H232040   5.359   2.965   1.773 -1.5869  0.2433 -1.2561
 3517TIP3   OH232041   5.334   5.687  15.563  0.2602  0.4786  0.0913
 3517TIP3    H132042   5.277   5.704  15.488  1.2813 -0.2172 -0.8550
 3517TIP3    H232043   5.276   5.697  15.639 -1.1773 -0.3809 -0.8503
 3518TIP3   OH232044   2.556   0.702   3.358  0.1626 -0.3243  0.0038
 3518TIP3    H132045   2.615   0.748   3.418 -0.7554 -0.1271  0.7723
 3518TIP3    H232046   2.472   0.746   3.368 -0.0661 -0.4495 -1.2596
 3519TIP3   OH232047   5.058   2.559   4.984  0.1626  0.1053 -0.8004
 3519TIP3    H132048   5.054   2.635   4.927 -1.8135  2.2815  2.0730
 3519TIP3    H232049   5.141   2.567   5.031 -0.3189  0.8557 -0.0626
 3520TIP3   OH232050   2.479   4.527  14.136 -0.3155  0.3530  0.1416
 3520TIP3    H132051   2.397   4.514  14.088 -1.2781 -0.0048  1.8270
 3520TIP3    H232052   2.482   4.622  14.153 -2.1288 -0.0361  3.0015
 3521TIP3   OH232053   5.258   4.645   1.444  0.4762 -0.2651 -0.1995
 3521TIP3    H132054   5.199   4.679   1.376 -0.1813 -0.1185  0.4387
 3521TIP3    H232055   5.236   4.695   1.523  1.1696 -0.5000  0.1515
 3522TIP3   OH232056   2.198   0.769  13.177 -0.2892  0.4192  0.7726
 3522TIP3    H132057   2.144   0.806  13.247 -1.3880 -2.0426  1.2590
 3522TIP3    H232058   2.157   0.800  13.097 -3.4251 -2.6439  1.0958
 3523TIP3   OH232059   4.878   5.716   0.257  0.0643  0.0743  0.5258
 3523TIP3    H132060   4.797   5.743   0.300 -0.0000 -1.7537  1.6222
 3523TIP3    H232061   4.946   5.733   0.322  0.5820  1.6296 -0.4022
 3524TIP3   OH232062   1.869   3.201  13.364 -0.1012  0.0983 -0.0579
 3524TIP3    H132063   1.806   3.129  13.359 -1.0487  1.0012 -1.7218
 3524TIP3    H232064   1.859   3.236  13.452  0.0603 -1.5231  0.6191
 3525TIP3   OH232065   1.387   5.295  14.537  0.4422 -0.0567 -0.2385
 3525TIP3    H132066   1.447   5.234  14.496  1.0088  0.0274  0.4554
 3525TIP3    H232067   1.312   5.241  14.564  0.5553 -0.2930 -0.4036
 3526TIP3   OH232068   5.103   0.915  16.499  0.3824  0.1984  0.0768
 3526TIP3    H132069   5.040   0.957  16.440 -0.1571  0.7141  1.0020
 3526TIP3    H232070   5.049   0.870  16.563  0.9688 -1.6664 -0.7299
 3527TIP3   OH232071   1.227   4.663   3.400 -0.5908  0.8408  0.2080
 3527TIP3    H132072   1.176   4.606   3.458  0.7964  0.0635  0.6826
 3527TIP3    H232073   1.307   4.683   3.449  0.2589  0.8030 -1.1297
 3528TIP3   OH232074   5.046   1.040  17.196  0.0661 -0.6520  0.0182
 3528TIP3    H132075   5.055   1.005  17.107  1.6287  1.5695 -0.7609
 3528TIP3    H232076   5.136   1.064  17.221 -0.6001  0.3681  1.4792
 3529TIP3   OH232077   6.602   2.995  12.875 -0.1804  0.0459  0.1849
 3529TIP3    H132078   6.544   3.054  12.924  0.3264 -0.9167  2.0132
 3529TIP3    H232079   6.679   2.986  12.931  0.9585 -0.1207 -1.3938
 3530TIP3   OH232080   1.806   2.676   5.869 -0.1308 -0.0786  0.2907
 3530TIP3    H132081   1.746   2.737   5.826  0.1857 -0.5236 -0.8207
 3530TIP3    H232082   1.810   2.705   5.960 -0.8547  0.8695  0.0247
 3531TIP3   OH232083   0.217   5.614  12.600 -0.0430 -0.0532  0.7451
 3531TIP3    H132084   0.272   5.537  12.611 -0.2294 -0.4964 -1.2329
 3531TIP3    H232085   0.214   5.628  12.505 -3.0552  0.1296  0.8126
 3532TIP3   OH232086   2.583   3.613  11.335 -0.9883  0.0640 -0.2848
 3532TIP3    H132087   2.503   3.665  11.344 -1.0482 -0.2461  1.2251
 3532TIP3    H232088   2.654   3.677  11.346 -1.0283  0.3491 -1.6903
 3533TIP3   OH232089   6.269   4.451  15.159 -0.1812 -0.7741 -0.1870
 3533TIP3    H132090   6.183   4.491  15.146 -0.0463 -0.6543 -0.7412
 3533TIP3    H232091   6.322   4.521  15.197  0.2035 -0.2496 -1.6589
 3534TIP3   OH232092   3.314   3.113  11.898  0.1402 -0.4617  0.2902
 3534TIP3    H132093   3.355   3.165  11.829  1.2925 -1.0769  0.5095
 3534TIP3    H232094   3.232   3.159  11.917  0.9972  1.0780  0.2618
 3535TIP3   OH232095   0.070   1.628  16.020  0.1952 -0.2236  0.4178
 3535TIP3    H132096   0.055   1.715  15.983  0.7638 -0.3555 -0.1385
 3535TIP3    H232097   0.130   1.643  16.093  1.1660 -0.2798 -0.3644
 3536TIP3   OH232098   6.348   0.967   2.645 -0.2471 -0.0364 -0.2829
 3536TIP3    H132099   6.435   0.963   2.684  0.0751 -2.4034 -1.2169
 3536TIP3    H232100   6.359   1.020   2.566  0.3390 -0.3584 -0.4173
 3537TIP3   OH232101   5.946   3.406  12.113  0.2924 -0.1966 -0.0431
 3537TIP3    H132102   5.947   3.445  12.025 -3.6794  0.7659  0.2859
 3537TIP3    H232103   5.970   3.314  12.098  0.3192  0.1135 -2.0424
 3538TIP3   OH232104   3.108   3.556  11.849 -0.3708  0.5393  0.7571
 3538TIP3    H132105   3.090   3.647  11.872 -1.5037  1.1488 -2.3367
 3538TIP3    H232106   3.204   3.552  11.841 -0.2281  1.1496  1.9720
 3539TIP3   OH232107   1.301   1.767  16.619 -0.2902  0.2711 -0.5654
 3539TIP3    H132108   1.375   1.762  16.559  1.7977 -0.2504  1.9242
 3539TIP3    H232109   1.299   1.682  16.662 -1.0619  0.9792  0.8551
 3540TIP3   OH232110   5.496   3.732   1.343 -0.1027 -0.2642 -0.0876
 3540TIP3    H132111   5.558   3.693   1.403 -0.6417 -1.8062 -0.5128
 3540TIP3    H232112   5.509   3.685   1.260  0.5657  1.7455 -1.1635
 3541TIP3   OH232113   4.259   0.287  14.647  0.0866 -0.1462 -0.0590
 3541TIP3    H132114   4.252   0.296  14.552 -1.7300  1.2416  0.1875
 3541TIP3    H232115   4.242   0.194  14.664 -0.1238 -0.2904 -1.0356
 3542TIP3   OH232116   5.108   1.579   1.407 -0.1205  0.1331 -0.6502
 3542TIP3    H132117   5.032   1.593   1.464  0.9197 -0.3790  0.9036
 3542TIP3    H232118   5.074   1.592   1.318 -1.8438  0.6667  0.0584
 3543TIP3   OH232119   5.890   4.241  16.379 -0.4621  1.1027  0.2096
 3543TIP3    H132120   5.854   4.257  16.292 -1.8349  1.6679  0.8513
 3543TIP3    H232121   5.831   4.176  16.417  1.7775 -1.2744 -0.3019
 3544TIP3   OH232122   2.719   0.154  16.096  0.2143 -0.0373 -0.2811
 3544TIP3    H132123   2.813   0.174  16.096  0.1162  0.4360 -0.7538
 3544TIP3    H232124   2.715   0.059  16.112  0.7505  0.0146  0.2197
 3545TIP3   OH232125   6.149   6.488   0.410  0.0694  0.1451  0.4722
 3545TIP3    H132126   6.102   6.413   0.445  0.6613 -1.2364 -1.6027
 3545TIP3    H232127   6.212   6.512   0.478 -0.4889 -0.8909  1.3674
 3546TIP3   OH232128   1.706   4.844   6.473  0.3794  0.3778  0.4073
 3546TIP3    H132129   1.787   4.824   6.519  0.5193 -2.2524 -0.8933
 3546TIP3    H232130   1.721   4.930   6.434  2.1764  0.3395  0.9637
 3547TIP3   OH232131   4.073   5.000   5.772  0.3503 -0.0390 -0.0095
 3547TIP3    H132132   4.116   4.959   5.848  2.1772  1.5224 -0.1863
 3547TIP3    H232133   3.979   4.990   5.791  0.7611 -1.7094  1.3437
 3548TIP3   OH232134   1.226   5.361  16.071 -0.3405 -0.4475 -0.2605
 3548TIP3    H132135   1.260   5.447  16.093 -0.7437 -0.9890  2.7272
 3548TIP3    H232136   1.188   5.328  16.153 -1.4648 -2.8713 -1.6778
 3549TIP3   OH232137   2.154   5.264   2.034  0.3319 -0.4173 -0.1707
 3549TIP3    H132138   2.162   5.337   1.973  0.4048 -0.5031 -0.2636
 3549TIP3    H232139   2.207   5.194   1.996  1.1150 -0.1666  0.4533
 3550TIP3   OH232140   5.982   4.590  14.264  0.0296  0.6943  0.4040
 3550TIP3    H132141   5.893   4.570  14.294  1.0301  0.2918  3.2878
 3550TIP3    H232142   6.025   4.504  14.260  0.7370  1.0397  0.5480
 3551TIP3   OH232143   4.050   0.135  15.188 -0.0575  0.1135  0.4058
 3551TIP3    H132144   3.959   0.164  15.192  0.0166  0.2764  0.9855
 3551TIP3    H232145   4.082   0.166  15.103 -0.0932  1.4141  0.8547
 3552TIP3   OH232146   2.728   3.786   1.462 -0.4358 -0.2349 -0.5638
 3552TIP3    H132147   2.821   3.765   1.469 -0.9562 -1.9652  1.7497
 3552TIP3    H232148   2.721   3.838   1.382  2.2571 -1.5149 -1.6852
 3553TIP3   OH232149   2.514   3.257  11.689  0.1788 -0.2853 -0.2987
 3553TIP3    H132150   2.582   3.307  11.645  1.3054 -2.1271 -0.6903
 3553TIP3    H232151   2.549   3.240  11.776  0.7129 -2.1946 -0.8749
 3554TIP3   OH232152   5.510   0.364   0.509  0.1630  0.6931  0.1679
 3554TIP3    H132153   5.471   0.280   0.530 -2.0325  1.5923 -0.2107
 3554TIP3    H232154   5.568   0.346   0.434 -2.1765 -0.0538 -1.5128
 3555TIP3   OH232155   1.469   6.100   5.531  0.1708 -0.2804 -0.1902
 3555TIP3    H132156   1.446   6.188   5.502 -0.9676 -0.1123  1.2134
 3555TIP3    H232157   1.558   6.109   5.565 -0.1153  0.4398  0.3856
 3556TIP3   OH232158   3.104   5.134   3.395  0.1440  0.1065 -0.2758
 3556TIP3    H132159   3.177   5.093   3.349  0.8052  0.8340  0.1198
 3556TIP3    H232160   3.135   5.146   3.484 -0.6215  0.0195  0.0052
 3557TIP3   OH232161   3.624   2.890   0.343 -0.1732  0.3603 -0.2328
 3557TIP3    H132162   3.643   2.799   0.318  1.2258  0.7148 -0.5008
 3557TIP3    H232163   3.658   2.942   0.270 -0.6492  1.1249  0.0851
 3558TIP3   OH232164   5.038   0.694   0.837 -0.6071 -0.0311 -0.4423
 3558TIP3    H132165   5.032   0.707   0.742 -0.5193  2.3471 -0.1653
 3558TIP3    H232166   4.951   0.718   0.870 -0.4426 -0.2170  0.1304
 3559TIP3   OH232167   0.776   2.007  15.390  0.4636  0.2707 -0.4078
 3559TIP3    H132168   0.745   2.098  15.390 -0.9678 -0.2014 -0.0850
 3559TIP3    H232169   0.784   1.985  15.297  2.2666  1.1840 -0.4979
 3560TIP3   OH232170   6.211   5.398   2.191  0.4273 -0.4477 -0.2418
 3560TIP3    H132171   6.143   5.433   2.133 -0.6367 -1.5742  0.2973
 3560TIP3    H232172   6.164   5.378   2.273  1.7330  0.3177  0.7170
 3561TIP3   OH232173   5.922   5.110  15.526  0.5022 -0.4683  0.5925
 3561TIP3    H132174   5.970   5.166  15.465  0.3679  0.3798  1.2624
 3561TIP3    H232175   5.834   5.146  15.528  0.4632 -0.5970  1.1687
 3562TIP3   OH232176   2.514   6.456  12.008  0.1417  0.0559 -0.4953
 3562TIP3    H132177   2.598   6.429  12.046 -0.5126  0.7889  1.5593
 3562TIP3    H232178   2.472   6.374  11.982  2.3333 -0.2082 -3.4973
 3563TIP3   OH232179   3.775   2.872   3.275 -0.1619 -0.1369 -0.0126
 3563TIP3    H132180   3.739   2.885   3.188  1.8588 -1.7064 -1.1168
 3563TIP3    H232181   3.707   2.906   3.334 -0.7113  2.8259 -2.2195
 3564TIP3   OH232182   5.280   1.955  17.280  0.5238  0.2475  0.0650
 3564TIP3    H132183   5.236   1.998  17.207  1.2810 -0.0840 -0.5807
 3564TIP3    H232184   5.348   2.017  17.308 -0.3561  0.7784  1.0981
 3565TIP3   OH232185   1.087   6.253   3.185 -0.2590  0.5041  0.1146
 3565TIP3    H132186   1.106   6.305   3.263 -0.6869 -1.3341  1.4875
 3565TIP3    H232187   1.124   6.304   3.113 -0.5404  2.6176  1.4162
 3566TIP3   OH232188   0.591   2.264  14.597  0.0475  0.0653  0.1439
 3566TIP3    H132189   0.682   2.278  14.621 -0.0234 -1.0046  1.1044
 3566TIP3    H232190   0.544   2.259  14.681 -0.3480 -2.7940 -0.1732
 3567TIP3   OH232191   5.160   4.934   2.588 -0.6914 -0.0235  0.1927
 3567TIP3    H132192   5.234   4.982   2.624 -1.1651 -0.8614  2.3542
 3567TIP3    H232193   5.199   4.873   2.526  0.3344  0.1681  0.6387
 3568TIP3   OH232194   4.078   4.093   2.778  0.1712 -0.2035  0.1338
 3568TIP3    H132195   4.106   4.182   2.796  0.3387 -0.2835  0.2642
 3568TIP3    H232196   4.008   4.103   2.713  0.0966  0.0302  0.2513
 3569TIP3   OH232197   5.953   0.384  14.684 -0.4114  0.1838 -0.3238
 3569TIP3    H132198   5.966   0.447  14.755  1.8838 -0.2422 -0.3223
 3569TIP3    H232199   5.979   0.432  14.605  0.8047 -0.5706 -0.3916
 3570TIP3   OH232200   1.707   3.832  14.846 -0.5152  0.4071 -0.0233
 3570TIP3    H132201   1.753   3.776  14.784 -0.6089 -0.8771  1.0380
 3570TIP3    H232202   1.632   3.779  14.874 -2.8586  2.5685 -1.9609
 3571TIP3   OH232203   6.780   1.132  16.984  0.4483  0.2132  0.0843
 3571TIP3    H132204   6.845   1.090  17.040  0.0371  0.2774  0.6179
 3571TIP3    H232205   6.829   1.163  16.908  0.9332 -0.2938  0.1891
 3572TIP3   OH232206   6.248   2.795  11.330  0.3716  0.0709 -0.0204
 3572TIP3    H132207   6.275   2.885  11.313  2.7756 -0.6327 -0.1208
 3572TIP3    H232208   6.274   2.746  11.251 -2.3470 -0.4686 -0.6506
 3573TIP3   OH232209   1.304   6.797  12.158 -0.1237  0.1804  0.2575
 3573TIP3    H132210   1.270   6.709  12.173 -0.4814  0.4710  1.2054
 3573TIP3    H232211   1.274   6.820  12.070 -1.7316  0.1276  0.7719
 3574TIP3   OH232212   3.473   1.000  17.039  0.5965  0.2604 -0.0012
 3574TIP3    H132213   3.458   1.030  16.950  0.6308 -2.7869 -1.0983
 3574TIP3    H232214   3.391   0.957  17.064  0.4782  1.3717  1.5532
 3575TIP3   OH232215   5.447   6.391   1.068  0.5112 -0.1794  0.3532
 3575TIP3    H132216   5.514   6.392   0.999 -0.3849  0.6733 -0.5214
 3575TIP3    H232217   5.412   6.480   1.069 -0.3316 -0.5146  1.0864
 3576TIP3   OH232218   1.094   3.216  12.232 -0.2110  0.0395 -0.1092
 3576TIP3    H132219   1.148   3.214  12.311 -0.6551  0.0664  0.2026
 3576TIP3    H232220   1.018   3.163  12.254 -0.4371  0.2216 -0.4441
 3577TIP3   OH232221   2.359   2.206   0.438 -0.5413  0.4141  0.1739
 3577TIP3    H132222   2.449   2.240   0.446 -0.4383  0.4715 -1.2450
 3577TIP3    H232223   2.351   2.181   0.347 -1.0312 -2.2855  0.9294
 3578TIP3   OH232224   2.560   4.951  16.867  0.1480  0.0505  0.3397
 3578TIP3    H132225   2.492   4.883  16.866 -0.3950  0.6048 -0.4133
 3578TIP3    H232226   2.635   4.909  16.825 -0.4255  0.1529 -0.8184
 3579TIP3   OH232227   5.589   5.591   1.273 -0.9794 -0.7363  0.0711
 3579TIP3    H132228   5.545   5.610   1.356 -0.1566  0.1117  0.3168
 3579TIP3    H232229   5.573   5.669   1.219  0.7278 -0.1650  0.3802
 3580TIP3   OH232230   3.489   4.339   1.785 -0.3659 -0.4460  0.7543
 3580TIP3    H132231   3.400   4.312   1.764 -0.2748 -0.2114  0.0461
 3580TIP3    H232232   3.543   4.298   1.717 -0.3049  2.0427 -0.7761
 3581TIP3   OH232233   6.784   5.687  12.409 -0.0187  0.3220  0.0378
 3581TIP3    H132234   6.695   5.653  12.397 -0.8084  2.3868 -0.2185
 3581TIP3    H232235   6.832   5.655  12.333 -0.8847  0.2295 -0.4786
 3582TIP3   OH232236   6.704   1.469  16.681 -0.1865 -0.2986 -0.2998
 3582TIP3    H132237   6.622   1.420  16.688  0.1379 -1.0163 -1.5396
 3582TIP3    H232238   6.693   1.526  16.605 -0.6161  1.7042  1.2042
 3583TIP3   OH232239   5.605   6.006  12.252  0.1125  0.1010  0.1727
 3583TIP3    H132240   5.561   5.990  12.168  0.7687 -0.9187  0.0133
 3583TIP3    H232241   5.537   6.044  12.308 -0.4693  0.2839 -0.6500
 3584TIP3   OH232242   4.134   0.826  12.298 -0.5478  0.2391  0.2889
 3584TIP3    H132243   4.225   0.808  12.321 -0.2760 -1.6002 -2.0808
 3584TIP3    H232244   4.084   0.799  12.375  0.7026 -1.1604  0.6293
 3585TIP3   OH232245   5.454   6.702   5.923  0.2620  0.0966 -0.1790
 3585TIP3    H132246   5.392   6.629   5.918 -1.1496  1.3067 -0.9244
 3585TIP3    H232247   5.489   6.708   5.834  1.3171 -0.4510  0.1921
 3586TIP3   OH232248   6.404   3.121   0.315 -0.0370  0.2910 -0.4355
 3586TIP3    H132249   6.485   3.154   0.355 -0.4125  0.7227 -0.0182
 3586TIP3    H232250   6.406   3.154   0.225  0.1207  0.5340 -0.3422
 3587TIP3   OH232251   2.199   0.302   1.375  0.2017 -0.1600  0.2336
 3587TIP3    H132252   2.120   0.249   1.389 -1.2392  1.8803 -0.0540
 3587TIP3    H232253   2.187   0.379   1.431  1.9691  0.2058  0.1391
 3588TIP3   OH232254   4.471   4.278   4.430 -0.3846  0.1283 -0.3920
 3588TIP3    H132255   4.450   4.366   4.462  0.5160  0.4910 -0.7876
 3588TIP3    H232256   4.546   4.291   4.371  1.7856 -1.2707  1.9474
 3589TIP3   OH232257   3.286   0.385  16.999 -0.4358  0.3468  0.3729
 3589TIP3    H132258   3.229   0.326  17.049  1.3845 -1.7217  0.0909
 3589TIP3    H232259   3.371   0.341  16.998  0.0472  1.2131 -2.9918
 3590TIP3   OH232260   4.071   3.605  12.832 -0.1245  0.0847  0.3442
 3590TIP3    H132261   3.985   3.579  12.864 -0.4775 -1.1720 -1.5389
 3590TIP3    H232262   4.053   3.677  12.772  0.1648 -0.0020  0.1532
 3591TIP3   OH232263   0.115   4.503  17.260 -0.5512 -0.4526  0.1966
 3591TIP3    H132264   0.131   4.465  17.346 -1.2078 -1.6039 -0.1860
 3591TIP3    H232265   0.045   4.450  17.223 -1.7148  1.3525 -0.2125
 3592TIP3   OH232266   0.464   2.619  17.176  0.0335 -0.0982  0.3417
 3592TIP3    H132267   0.513   2.701  17.163 -0.4078  0.2442  0.8282
 3592TIP3    H232268   0.381   2.634  17.131 -0.0627 -0.2643  0.4679
 3593TIP3   OH232269   5.895   0.601   0.025  0.1837 -0.0555 -0.4501
 3593TIP3    H132270   5.872   0.537   0.092  0.2743 -0.7101 -1.0243
 3593TIP3    H232271   5.888   0.552  -0.057  0.1014  0.7243 -0.9070
 3594TIP3   OH232272   4.709   6.093  15.978 -0.0211 -0.2867  0.1665
 3594TIP3    H132273   4.805   6.089  15.979  0.0059  0.0621 -0.6018
 3594TIP3    H232274   4.685   6.106  16.070  0.7207  0.8953  0.2073
 3595TIP3   OH232275   5.451   2.974   4.450 -0.2764 -0.0248  0.0340
 3595TIP3    H132276   5.473   2.881   4.455  2.1074  0.5194  0.4968
 3595TIP3    H232277   5.528   3.019   4.487  0.6411  2.3067 -4.3085
 3596TIP3   OH232278   4.820   5.654   0.847  0.3910  0.1364  0.0245
 3596TIP3    H132279   4.894   5.689   0.796  0.0559 -0.5012 -0.9157
 3596TIP3    H232280   4.821   5.560   0.829 -0.3466  0.0514  0.4045
 3597TIP3   OH232281   6.415   5.308   5.649  0.1015 -0.0060  0.6183
 3597TIP3    H132282   6.381   5.222   5.675  1.1223 -0.0660  1.8083
 3597TIP3    H232283   6.409   5.360   5.729  0.5495  0.6915  0.1952
 3598TIP3   OH232284   0.717   0.409  14.442  0.3404 -0.0395  0.5764
 3598TIP3    H132285   0.800   0.390  14.485  0.8294 -0.3490 -0.4857
 3598TIP3    H232286   0.729   0.496  14.403  0.2807 -0.2133  0.1651
 3599TIP3   OH232287   6.492   0.524  16.427  0.1598 -0.5291 -0.1906
 3599TIP3    H132288   6.412   0.472  16.426 -1.3065  1.5908  1.4155
 3599TIP3    H232289   6.526   0.514  16.516 -0.5113  1.7010  0.3565
 3600TIP3   OH232290   5.137   0.127  11.067  0.2041  0.1967  0.3914
 3600TIP3    H132291   5.071   0.059  11.084  0.3893  0.3885  1.9164
 3600TIP3    H232292   5.091   0.192  11.015 -0.5363 -0.1631  0.5858
 3601TIP3   OH232293   1.824   2.803   0.084 -0.2722 -0.1252 -0.1311
 3601TIP3    H132294   1.789   2.785  -0.003  0.3506 -1.1177 -0.1988
 3601TIP3    H232295   1.916   2.826   0.068 -0.6896  1.7645  0.0958
 3602TIP3   OH232296   1.984   0.601   3.498  1.1047 -0.3855 -0.0901
 3602TIP3    H132297   1.944   0.521   3.532  1.0756 -0.3019  0.0707
 3602TIP3    H232298   1.979   0.664   3.570  1.5632 -0.3840 -0.0585
 3603TIP3   OH232299   6.027   0.944   2.497 -0.1006  0.7452 -0.2176
 3603TIP3    H132300   5.962   1.003   2.459  0.6909  1.4638 -0.4780
 3603TIP3    H232301   6.069   0.995   2.566 -1.0223 -0.3092  1.1455
 3604TIP3   OH232302   2.323   2.585   2.338 -0.1685  0.2101  0.2429
 3604TIP3    H132303   2.364   2.672   2.338  0.5261 -0.0954 -0.7583
 3604TIP3    H232304   2.274   2.582   2.255 -0.5985 -0.1652  0.5102
 3605TIP3   OH232305   0.311   3.489   0.221  0.3702  0.1265  0.0721
 3605TIP3    H132306   0.274   3.439   0.293 -0.1979  2.2853  1.3258
 3605TIP3    H232307   0.356   3.563   0.263  3.7316 -0.8840 -1.5671
 3606TIP3   OH232308   1.017   3.936   4.276 -0.4629  0.0684 -0.1071
 3606TIP3    H132309   1.063   4.001   4.222 -1.1289  0.9322  0.3665
 3606TIP3    H232310   0.940   3.913   4.225  0.0105 -0.6991 -0.4833
 3607TIP3   OH232311   1.471   2.290   0.723 -0.1194  0.1214 -0.6430
 3607TIP3    H132312   1.412   2.215   0.733  2.4560 -2.0305 -1.1880
 3607TIP3    H232313   1.511   2.278   0.637 -0.3199  2.6439 -1.1412
 3608TIP3   OH232314   4.456   1.403  13.249 -0.2527 -0.2281 -0.6861
 3608TIP3    H132315   4.503   1.320  13.251  0.0444 -0.0129  1.1515
 3608TIP3    H232316   4.365   1.378  13.231 -0.1548 -0.9385 -0.1992
 3609TIP3   OH232317   2.794   5.323   0.548  0.3250  0.0151  0.0644
 3609TIP3    H132318   2.771   5.411   0.520  1.7804 -0.5986 -3.3070
 3609TIP3    H232319   2.853   5.335   0.621 -0.2267  1.8079  0.2267
 3610TIP3   OH232320   6.392   2.094   4.653 -0.0234 -0.4650 -0.0881
 3610TIP3    H132321   6.447   2.033   4.702 -0.0178 -0.2981  0.1157
 3610TIP3    H232322   6.449   2.125   4.582  0.3458  0.1669  0.4797
 3611TIP3   OH232323   5.323   1.442  14.345 -0.4900  0.1849 -0.1277
 3611TIP3    H132324   5.246   1.403  14.385  0.5640 -2.5281 -0.6841
 3611TIP3    H232325   5.315   1.424  14.252  0.4355  0.5268 -0.2852
 3612TIP3   OH232326   5.324   4.440  11.232  0.2288  0.1545  0.0948
 3612TIP3    H132327   5.232   4.435  11.258 -0.1501  0.8314 -1.0867
 3612TIP3    H232328   5.369   4.472  11.311 -0.9100  2.2530 -0.0636
 3613TIP3   OH232329   2.896   6.283   3.942 -0.2119 -0.3563  0.7050
 3613TIP3    H132330   2.805   6.296   3.969 -0.4050 -1.5401  0.6245
 3613TIP3    H232331   2.932   6.372   3.938 -1.4236  0.1362  0.5044
 3614TIP3   OH232332   3.454   1.835  14.412 -0.3638 -0.0424 -0.1089
 3614TIP3    H132333   3.488   1.831  14.323  1.9732 -0.6998  0.7717
 3614TIP3    H232334   3.493   1.914  14.450 -1.3100  0.2125  0.3504
 3615TIP3   OH232335   2.508   4.097   3.342  0.0320 -0.0313 -0.0199
 3615TIP3    H132336   2.522   4.188   3.368  0.8771 -0.0471 -0.3989
 3615TIP3    H232337   2.578   4.079   3.280  0.9826 -1.5147  1.4428
 3616TIP3   OH232338   0.346   5.296   1.683  0.0334  0.6455  0.1305
 3616TIP3    H132339   0.341   5.361   1.613 -1.0237 -1.1133 -1.4588
 3616TIP3    H232340   0.255   5.287   1.714  0.4410  1.1670  1.5180
 3617TIP3   OH232341   0.312   3.453  16.514 -0.6973  0.2091  0.2121
 3617TIP3    H132342   0.269   3.380  16.557 -0.5668 -1.4685 -2.3842
 3617TIP3    H232343   0.248   3.524  16.516 -1.0631 -0.1664  2.1941
 3618TIP3   OH232344   6.021   2.789   1.627  0.4679 -0.0441  0.1926
 3618TIP3    H132345   5.954   2.799   1.559  0.9725  2.9582  0.0604
 3618TIP3    H232346   5.971   2.782   1.708 -0.0346  0.8216 -0.0389
 3619TIP3   OH232347   0.450   0.677   4.348  0.0110 -0.4734 -0.1984
 3619TIP3    H132348   0.450   0.710   4.437 -0.1563 -0.5674 -0.1638
 3619TIP3    H232349   0.462   0.582   4.357 -1.6634 -0.7049 -0.1946
 3620TIP3   OH232350   6.593   3.876  14.951  0.2650 -0.2573  0.2834
 3620TIP3    H132351   6.551   3.950  14.906  1.0261  0.4753  0.7647
 3620TIP3    H232352   6.661   3.847  14.891  1.3332  0.7708  0.9684
 3621TIP3   OH232353   2.439   5.635   5.299 -1.0212  0.4097 -0.0608
 3621TIP3    H132354   2.387   5.570   5.346 -1.9328  0.9116 -0.3516
 3621TIP3    H232355   2.425   5.616   5.206 -0.3890  0.3220 -0.1432
 3622TIP3   OH232356   3.083   6.708  10.831  0.8007 -0.3909 -0.1087
 3622TIP3    H132357   3.164   6.729  10.878  0.7733 -0.2278 -0.1350
 3622TIP3    H232358   3.056   6.790  10.791  0.3639 -0.3359  0.2934
 3623TIP3   OH232359   2.014   3.301  15.365  0.1078 -0.4202  0.0742
 3623TIP3    H132360   2.094   3.262  15.330  0.6582 -0.1201  0.9941
 3623TIP3    H232361   2.044   3.359  15.435 -0.9722 -0.8584  0.9047
 3624TIP3   OH232362   2.824   5.414   5.504  0.2832 -0.1453  0.0103
 3624TIP3    H132363   2.744   5.396   5.454 -0.2012 -1.3887  1.2105
 3624TIP3    H232364   2.835   5.509   5.498 -0.1343 -0.1916 -1.8816
 3625TIP3   OH232365   5.525   6.108  13.284  0.1745  0.5053 -0.0225
 3625TIP3    H132366   5.547   6.140  13.371 -0.1003  2.1949 -0.5624
 3625TIP3    H232367   5.589   6.149  13.226 -1.3551  1.6403 -0.9647
 3626TIP3   OH232368   5.860   5.768  15.714  0.1502  0.4364 -0.1454
 3626TIP3    H132369   5.876   5.677  15.742 -0.6083  0.3492  0.0290
 3626TIP3    H232370   5.780   5.762  15.662 -1.1099  1.3326  1.6648
 3627TIP3   OH232371   1.536   1.660   2.862  0.0562  0.1674  0.6019
 3627TIP3    H132372   1.562   1.590   2.801  2.6866 -0.3425  2.2558
 3627TIP3    H232373   1.494   1.725   2.806 -2.1984 -2.5726 -1.0245
 3628TIP3   OH232374   2.782   5.959   1.976  0.3662  0.0136  0.2989
 3628TIP3    H132375   2.847   6.015   1.935 -0.9136 -0.1762 -2.0869
 3628TIP3    H232376   2.795   5.873   1.936  0.5197 -0.7233  1.9042
 3629TIP3   OH232377   0.881   0.825   5.209 -0.4524 -0.1451  0.4072
 3629TIP3    H132378   0.846   0.912   5.225  0.4246 -0.0574  1.8749
 3629TIP3    H232379   0.895   0.822   5.114  2.0656  2.3111  0.6298
 3630TIP3   OH232380   4.964   0.426  16.089 -0.1355 -0.2718  0.0492
 3630TIP3    H132381   4.925   0.392  16.170 -1.1712 -1.0427 -0.7723
 3630TIP3    H232382   4.983   0.518  16.109 -2.2078  0.0726  0.5127
 3631TIP3   OH232383   0.845   1.768   2.092  0.0459  0.0688  0.4837
 3631TIP3    H132384   0.765   1.743   2.137 -1.0346 -0.1142 -1.4891
 3631TIP3    H232385   0.822   1.846   2.043  0.9192 -0.2689 -0.4897
 3632TIP3   OH232386   3.986   1.325  13.071 -0.4339  0.0684 -0.3962
 3632TIP3    H132387   3.913   1.369  13.026 -1.3824 -0.6120  0.4691
 3632TIP3    H232388   4.043   1.295  13.000 -0.2012  1.9394 -1.0374
 3633TIP3   OH232389   3.359   6.340   0.419 -0.3984  0.0651 -0.0184
 3633TIP3    H132390   3.295   6.342   0.348 -1.4735  0.6063  0.9593
 3633TIP3    H232391   3.442   6.362   0.376 -0.8312 -0.6997 -1.3021
 3634TIP3   OH232392   5.596   5.541   0.427 -0.0010  0.1230  0.0058
 3634TIP3    H132393   5.644   5.566   0.507  1.1304  0.3751 -0.7378
 3634TIP3    H232394   5.645   5.582   0.356 -0.3798 -0.9928 -0.9162
 3635TIP3   OH232395   1.412   2.458   1.064 -0.7020  0.3348  0.0090
 3635TIP3    H132396   1.501   2.472   1.096 -0.4989 -1.8086  0.4208
 3635TIP3    H232397   1.359   2.452   1.143 -0.6545 -1.9776 -0.1126
 3636TIP3   OH232398   0.782   3.686  11.859  0.2954  0.3928 -0.6548
 3636TIP3    H132399   0.865   3.692  11.812 -0.5965 -0.4537 -2.3717
 3636TIP3    H232400   0.725   3.751  11.817  0.8651  2.9195  2.2632
 3637TIP3   OH232401   1.550   0.957   3.299  0.4002  0.4906  0.7623
 3637TIP3    H132402   1.529   0.866   3.321  1.8093  0.4459  2.0794
 3637TIP3    H232403   1.470   0.992   3.261 -0.0283 -1.4234 -0.1670
 3638TIP3   OH232404   5.924   6.653   5.040  0.6510  0.3975  0.1173
 3638TIP3    H132405   5.833   6.661   5.014  0.3521 -2.8204 -0.0269
 3638TIP3    H232406   5.974   6.677   4.962 -0.0899  0.4727 -0.3353
 3639TIP3   OH232407   2.523   0.157  12.159 -0.2044  0.3237  0.9966
 3639TIP3    H132408   2.433   0.126  12.171 -1.1442  2.2302 -0.7865
 3639TIP3    H232409   2.529   0.176  12.066  2.4920 -1.0489  0.8637
 3640TIP3   OH232410   5.259   4.077   4.549  0.2161  0.2612 -0.0187
 3640TIP3    H132411   5.210   3.995   4.551 -1.4463  1.2426  0.3167
 3640TIP3    H232412   5.251   4.108   4.459  0.6194  0.1904 -0.0796
 3641TIP3   OH232413   5.215   0.362   5.921 -0.1681 -0.2051  0.0166
 3641TIP3    H132414   5.131   0.322   5.944  1.4417 -1.6090  3.9771
 3641TIP3    H232415   5.200   0.456   5.927 -1.6797 -0.4049 -0.3664
 3642TIP3   OH232416   2.002   6.536   2.377 -0.0997 -0.2066  0.2931
 3642TIP3    H132417   1.974   6.494   2.296  0.7475  0.3254 -0.2788
 3642TIP3    H232418   2.066   6.475   2.414  1.1491  0.5821 -0.5498
 3643TIP3   OH232419   5.669   4.758   0.783 -0.5691  0.2881 -0.0378
 3643TIP3    H132420   5.650   4.666   0.764 -0.4196 -0.4244  3.0073
 3643TIP3    H232421   5.759   4.771   0.754 -0.2335 -0.8439  0.4667
 3644TIP3   OH232422   2.515   3.949   0.585 -0.5802 -0.1383 -0.1050
 3644TIP3    H132423   2.585   3.911   0.532  1.3427 -0.2724  2.4767
 3644TIP3    H232424   2.498   4.035   0.545  1.5364  0.1929 -0.3143
 3645TIP3   OH232425   3.872   4.569   6.076  0.4114 -0.1606 -0.6416
 3645TIP3    H132426   3.876   4.665   6.081 -0.5438 -0.1670  0.4371
 3645TIP3    H232427   3.802   4.551   6.013  0.1673 -0.1563 -0.3700
 3646TIP3   OH232428   0.268   5.116   0.179  0.0997 -0.5664  0.5104
 3646TIP3    H132429   0.354   5.079   0.158 -0.2118 -1.1046  0.1758
 3646TIP3    H232430   0.223   5.046   0.227 -0.6527 -0.7732 -0.4964
 3647TIP3   OH232431   4.571   1.404  15.240 -0.1994  0.6913  0.2029
 3647TIP3    H132432   4.516   1.328  15.221  1.9660 -0.7981 -0.2329
 3647TIP3    H232433   4.608   1.429  15.155 -0.0907  1.6136  0.5085
 3648TIP3   OH232434   4.075   2.800   2.305 -0.1273 -0.2821 -0.2890
 3648TIP3    H132435   4.089   2.758   2.221  2.2338 -1.8672  0.8470
 3648TIP3    H232436   4.080   2.729   2.369 -1.1261  1.0011  1.2543
 3649TIP3   OH232437   1.973   2.480   1.414  0.5171  0.3610  0.2244
 3649TIP3    H132438   2.037   2.423   1.458  0.5472  0.0423 -0.2297
 3649TIP3    H232439   2.005   2.569   1.431  2.5487  0.1461 -2.1737
 3650TIP3   OH232440   4.630   1.847  16.197 -0.8807  0.1194  0.1922
 3650TIP3    H132441   4.632   1.939  16.224 -0.2112  0.4819 -1.0799
 3650TIP3    H232442   4.661   1.799  16.274  2.5593  1.2547 -0.3945
 3651TIP3   OH232443   0.881   4.831  14.896 -0.6002 -0.1032  0.3166
 3651TIP3    H132444   0.928   4.749  14.876 -0.8975 -0.2959  0.3971
 3651TIP3    H232445   0.947   4.899  14.886 -0.3345 -0.3596  0.2994
 3652TIP3   OH232446   3.570   0.215   2.388  0.6726  0.1304  0.4923
 3652TIP3    H132447   3.608   0.127   2.384 -0.5229 -0.4285  1.2131
 3652TIP3    H232448   3.626   0.261   2.450  1.4740 -0.0314 -0.0990
 3653TIP3   OH232449   3.294   5.674   6.578  0.1493  0.0075  0.4290
 3653TIP3    H132450   3.254   5.761   6.573 -0.8463 -0.4059  1.1624
 3653TIP3    H232451   3.367   5.686   6.639 -0.2461  0.2325  0.8639
 3654TIP3   OH232452   6.018   1.091   0.216  0.0179  0.1211 -0.1510
 3654TIP3    H132453   6.031   1.126   0.127 -1.7603 -1.0549 -0.8913
 3654TIP3    H232454   6.103   1.052   0.238  0.2438 -0.2725 -1.6331
 3655TIP3   OH232455   3.092   1.673  12.749  0.3286 -0.5829  0.4257
 3655TIP3    H132456   3.081   1.765  12.770  0.3512 -0.4999  0.0826
 3655TIP3    H232457   3.167   1.671  12.689 -0.8506 -0.6283 -1.0496
 3656TIP3   OH232458   1.147   2.025  13.321  0.1449 -0.4494 -0.3441
 3656TIP3    H132459   1.074   2.048  13.378 -1.1086 -0.6744 -1.8289
 3656TIP3    H232460   1.225   2.054  13.369 -0.9342  0.2314  1.0369
 3657TIP3   OH232461   6.517   1.271   2.967 -0.1086 -0.1854 -0.3893
 3657TIP3    H132462   6.548   1.235   3.049  0.3062 -0.4377 -0.6577
 3657TIP3    H232463   6.590   1.262   2.906 -0.0753  0.8852 -0.5297
 3658TIP3   OH232464   4.574   0.542   4.267 -0.3843 -0.3402  0.0751
 3658TIP3    H132465   4.555   0.454   4.235 -0.2859  0.6441 -2.8657
 3658TIP3    H232466   4.499   0.594   4.237  0.0614  0.7846  0.8932
 3659TIP3   OH232467   2.987   1.458   2.280  0.1824  0.3196 -0.8073
 3659TIP3    H132468   3.060   1.496   2.231 -0.0793 -0.0882 -1.5318
 3659TIP3    H232469   2.951   1.392   2.221  0.1422 -0.4983  0.1280
 3660TIP3   OH232470   1.518   5.485  14.103  0.1611  0.2050  0.3730
 3660TIP3    H132471   1.468   5.421  14.153  0.0303  1.0550  1.3405
 3660TIP3    H232472   1.453   5.534  14.054  0.0715  0.9114  1.1722
 3661TIP3   OH232473   2.211   5.597   4.163  0.1621  0.4505  0.3730
 3661TIP3    H132474   2.122   5.589   4.197  1.0395 -2.4246  2.1822
 3661TIP3    H232475   2.247   5.675   4.206 -0.3163 -0.4306  2.4120
 3662TIP3   OH232476   1.066   3.976   2.514  0.0670 -0.4401  0.8959
 3662TIP3    H132477   1.128   3.902   2.513  0.5582 -0.0318  1.0405
 3662TIP3    H232478   0.980   3.934   2.518  0.3164 -1.0192  0.3675
 3663TIP3   OH232479   6.736   4.022  14.230 -0.3211 -0.0138 -0.1961
 3663TIP3    H132480   6.661   3.967  14.254 -0.7778  0.0892 -1.3921
 3663TIP3    H232481   6.812   3.966  14.244 -0.6434 -0.2474  0.6447
 3664TIP3   OH232482   4.278   6.284   2.986 -0.1584 -0.1605  0.3735
 3664TIP3    H132483   4.270   6.226   2.910 -4.9361 -0.2420  0.8209
 3664TIP3    H232484   4.259   6.371   2.951 -0.4690  0.0659  1.0927
 3665TIP3   OH232485   4.743   5.960   1.919 -0.0404 -0.1569 -0.3843
 3665TIP3    H132486   4.755   5.945   1.825  1.2780 -0.1600 -0.2282
 3665TIP3    H232487   4.690   6.040   1.924 -0.5035 -0.4093 -1.1310
 3666TIP3   OH232488   5.532   6.122  14.425 -0.2853  0.1608 -0.4837
 3666TIP3    H132489   5.465   6.055  14.439 -1.9143  1.4143 -2.0332
 3666TIP3    H232490   5.592   6.111  14.499 -1.8895 -1.3593  0.6496
 3667TIP3   OH232491   0.395   1.234   1.232  0.2701  0.4567  0.5019
 3667TIP3    H132492   0.455   1.295   1.191  1.3353 -1.3842 -0.7274
 3667TIP3    H232493   0.427   1.225   1.322  1.2127  0.2948  0.1524
 3668TIP3   OH232494   0.570   0.698   3.340 -0.2440  0.6804 -0.0899
 3668TIP3    H132495   0.661   0.689   3.314 -0.1107 -0.6163  0.7982
 3668TIP3    H232496   0.574   0.732   3.430 -0.6246 -0.3826  0.3283
 3669TIP3   OH232497   1.191   5.957  15.403  0.0725  0.6768  0.1166
 3669TIP3    H132498   1.114   5.918  15.360  0.2705  1.2759 -0.7922
 3669TIP3    H232499   1.159   5.983  15.489 -0.8944  1.4346 -0.4657
 3670TIP3   OH232500   4.025   0.245   4.928 -0.1401  0.3197 -0.5397
 3670TIP3    H132501   4.094   0.208   4.873 -1.5656 -0.4729 -1.8562
 3670TIP3    H232502   4.006   0.176   4.992 -1.4910 -0.5313 -1.8165
 3671TIP3   OH232503   4.060   5.742  11.956  0.0419  0.4633 -0.0391
 3671TIP3    H132504   4.027   5.653  11.970 -0.1127  0.4023 -0.7420
 3671TIP3    H232505   4.132   5.751  12.018  1.3274 -0.8582 -1.2861
 3672TIP3   OH232506   6.311   4.959   1.270  0.4900  0.2240  0.5189
 3672TIP3    H132507   6.391   5.012   1.258  1.5244 -1.4352 -0.0561
 3672TIP3    H232508   6.343   4.876   1.306 -0.8600 -0.8551 -0.7298
 3673TIP3   OH232509   1.734   2.483   2.631 -0.2713 -0.4512 -0.4672
 3673TIP3    H132510   1.723   2.415   2.564 -0.3059  0.5890 -1.5350
 3673TIP3    H232511   1.794   2.546   2.591  0.6644 -0.4140  0.9575
 3674TIP3   OH232512   5.983   4.086  14.310 -0.1252  0.7811  0.0234
 3674TIP3    H132513   5.949   4.027  14.243 -0.7997  0.6468  0.4739
 3674TIP3    H232514   5.916   4.085  14.379  1.2583 -0.2986  1.3949
 3675TIP3   OH232515   1.666   6.034  13.615  0.0991 -0.3895  0.0940
 3675TIP3    H132516   1.667   6.130  13.619  1.4254 -0.3453 -0.9926
 3675TIP3    H232517   1.612   6.014  13.539 -1.5047 -0.5698  1.2403
 3676TIP3   OH232518   1.432   4.050   0.075  0.3577  0.4551  0.0348
 3676TIP3    H132519   1.467   3.967   0.108  2.7528  1.1693 -0.6505
 3676TIP3    H232520   1.374   4.080   0.145 -1.2109 -2.1970 -0.0759
 3677TIP3   OH232521   5.955   0.435  15.193  0.4750 -0.0775  0.0314
 3677TIP3    H132522   5.899   0.506  15.162  0.9041 -0.3472 -1.3686
 3677TIP3    H232523   5.953   0.444  15.289 -0.4706  1.0466 -0.0769
 3678TIP3   OH232524   2.928   2.261   1.473 -0.7188  0.0860 -0.0586
 3678TIP3    H132525   2.833   2.261   1.485 -1.1172  2.6939 -2.5165
 3678TIP3    H232526   2.958   2.341   1.517  0.2727 -0.4300  0.2232
 3679TIP3   OH232527   1.026   6.648   1.709 -0.4437  0.1152 -0.7015
 3679TIP3    H132528   1.031   6.735   1.749  0.7098 -0.9558  1.6229
 3679TIP3    H232529   1.043   6.663   1.616  1.0897  2.2278 -0.1333
 3680TIP3   OH232530   1.395   4.798  13.864 -0.3593  0.4625 -0.3507
 3680TIP3    H132531   1.394   4.702  13.865  0.5343  0.4548 -0.1204
 3680TIP3    H232532   1.355   4.824  13.947 -1.8382  0.3036 -0.9981
 3681TIP3   OH232533   4.220   1.001   4.266 -0.3114 -0.7536  0.1064
 3681TIP3    H132534   4.187   0.997   4.176  0.3744 -2.7616 -0.0810
 3681TIP3    H232535   4.306   1.042   4.259  0.1765 -1.8396 -0.2868
 3682TIP3   OH232536   1.284   0.678  13.202 -0.6148 -0.3305 -0.0296
 3682TIP3    H132537   1.304   0.585  13.208  1.9489  0.1254 -1.0682
 3682TIP3    H232538   1.368   0.722  13.213 -1.5791  1.8119 -0.9257
 3683TIP3   OH232539   0.429   4.436   0.229 -0.3396 -0.3179  0.4183
 3683TIP3    H132540   0.485   4.474   0.296 -1.4620  0.2915  1.0172
 3683TIP3    H232541   0.489   4.390   0.171  0.5382 -2.0047  2.5881
 3684TIP3   OH232542   0.216   5.372  12.880  0.2764 -0.5565  0.9569
 3684TIP3    H132543   0.263   5.403  12.802  1.6217 -2.1773  1.1133
 3684TIP3    H232544   0.263   5.412  12.953 -1.3667  1.4776  0.9573
 3685TIP3   OH232545   0.778   6.566  15.358  0.2790  0.7502  0.1270
 3685TIP3    H132546   0.700   6.540  15.407 -0.8213  0.2874 -1.7910
 3685TIP3    H232547   0.746   6.635  15.299  1.4322  0.9157 -0.3032
 3686TIP3   OH232548   3.917   0.615  15.467  0.0172  0.2216  0.3253
 3686TIP3    H132549   3.979   0.625  15.539 -1.1196  1.9200  1.1066
 3686TIP3    H232550   3.855   0.549  15.498  0.6521 -0.4924  0.0889
 3687TIP3   OH232551   3.169   5.453   5.274 -0.2266  0.2878 -0.1582
 3687TIP3    H132552   3.247   5.482   5.322 -0.6311  0.3696  0.4484
 3687TIP3    H232553   3.135   5.533   5.233  0.0775  0.2299 -0.5298
 3688TIP3   OH232554   0.507   5.332  13.731  0.9430 -0.0445 -0.1987
 3688TIP3    H132555   0.466   5.332  13.644 -0.6986 -0.2404  0.5664
 3688TIP3    H232556   0.493   5.244  13.764  1.6975 -0.0137  0.2086
 3689TIP3   OH232557   2.006   3.836   4.705  0.0645  0.2715  0.2671
 3689TIP3    H132558   1.951   3.777   4.654 -0.6119 -0.5585  1.9107
 3689TIP3    H232559   1.992   3.809   4.796  0.3356  2.4962  0.9852
 3690TIP3   OH232560   0.198   1.555   4.400  0.1698 -0.1147 -0.7287
 3690TIP3    H132561   0.210   1.465   4.370 -1.3813 -0.3461 -0.6866
 3690TIP3    H232562   0.167   1.602   4.323 -3.1868 -0.5680  0.2837
 3691TIP3   OH232563   1.227   6.777   4.068 -0.6433 -0.0299 -0.3079
 3691TIP3    H132564   1.212   6.684   4.084  0.5752 -0.5656 -2.0684
 3691TIP3    H232565   1.320   6.782   4.043 -0.7548  1.6206 -0.4532
 3692TIP3   OH232566   2.436   0.541  11.584  0.3732 -0.0170 -0.3961
 3692TIP3    H132567   2.529   0.523  11.571  0.5474  1.4214 -1.2520
 3692TIP3    H232568   2.415   0.606  11.516 -0.7121  1.3037  1.1735
 3693TIP3   OH232569   4.623   2.076  16.755  0.0163 -0.6502  0.4093
 3693TIP3    H132570   4.695   2.114  16.703  1.5082 -0.2495  2.6981
 3693TIP3    H232571   4.662   1.999  16.796 -1.0582 -0.7657  1.2138
 3694TIP3   OH232572   4.320   3.004  14.068  0.1249 -0.2661 -0.0718
 3694TIP3    H132573   4.262   2.935  14.102 -1.2091  0.8859  0.0313
 3694TIP3    H232574   4.278   3.085  14.095  0.7848  0.6161 -1.6573
 3695TIP3   OH232575   2.712   6.515   2.470  0.3174 -0.0083  0.1944
 3695TIP3    H132576   2.672   6.443   2.422  1.1873 -1.4360  1.5985
 3695TIP3    H232577   2.664   6.593   2.440 -1.5205 -1.3182 -0.3317
 3696TIP3   OH232578   4.717   5.680  11.386 -0.0728  0.3125 -0.5592
 3696TIP3    H132579   4.739   5.756  11.331  0.6139 -1.0493 -2.2262
 3696TIP3    H232580   4.657   5.629  11.331 -0.7535 -0.2100  0.6691
 3697TIP3   OH232581   6.577   3.071  13.697  0.2344  0.3543  0.4370
 3697TIP3    H132582   6.517   2.997  13.687  0.2652  0.6057 -1.8950
 3697TIP3    H232583   6.661   3.031  13.719 -0.2639 -0.1367  1.5079
 3698TIP3   OH232584   0.311   3.180   2.831 -0.1546  0.2843  0.0118
 3698TIP3    H132585   0.346   3.107   2.780  3.4458  1.0767  1.2419
 3698TIP3    H232586   0.296   3.143   2.918 -1.4870  0.2076 -0.2417
 3699TIP3   OH232587   2.099   2.700   0.548  0.1067 -0.2506  0.5181
 3699TIP3    H132588   2.023   2.755   0.528  1.3418  0.9400 -0.9861
 3699TIP3    H232589   2.103   2.637   0.475  1.0360  0.2001  0.1839
 3700TIP3   OH232590   4.541   0.754  12.796 -0.2383  0.2523 -0.0247
 3700TIP3    H132591   4.557   0.833  12.746  1.2004 -0.9355 -1.4997
 3700TIP3    H232592   4.461   0.716  12.757  0.3435 -0.1783 -0.8052
 3701TIP3   OH232593   0.165   0.638   5.986 -0.2015  0.2358 -0.9271
 3701TIP3    H132594   0.113   0.707   5.946  0.7967  0.5761 -1.6453
 3701TIP3    H232595   0.194   0.583   5.913  2.0175  1.1371 -0.7611
 3702TIP3   OH232596   1.315   1.886  11.589  0.1224 -0.0975 -0.3494
 3702TIP3    H132597   1.360   1.933  11.519  0.1119  1.8800  0.9187
 3702TIP3    H232598   1.263   1.954  11.634 -0.4472 -1.4524  1.1114
 3703TIP3   OH232599   2.568   6.765   1.028  0.2411  0.2943  0.0661
 3703TIP3    H132600   2.542   6.673   1.027 -0.9371  0.6191 -0.4459
 3703TIP3    H232601   2.663   6.764   1.034  0.3033 -0.9645 -1.1350
 3704TIP3   OH232602   6.131   3.288  16.202  0.3395 -1.1514  0.5238
 3704TIP3    H132603   6.194   3.217  16.218 -0.0185 -2.2103 -2.5143
 3704TIP3    H232604   6.063   3.248  16.148 -1.6110  0.6852  1.5419
 3705TIP3   OH232605   3.223   5.878   2.612  0.1171  0.1798  0.0835
 3705TIP3    H132606   3.218   5.873   2.516 -0.8957 -0.3474  0.1578
 3705TIP3    H232607   3.134   5.902   2.639  0.1581 -0.6402  0.9505
 3706TIP3   OH232608   4.404   4.556  16.878 -0.4158  0.3582  0.2932
 3706TIP3    H132609   4.345   4.547  16.953 -0.5519 -0.4528  0.0861
 3706TIP3    H232610   4.392   4.647  16.850 -2.0909  0.0177 -0.1622
 3707TIP3   OH232611   1.726   4.449  11.996  0.1845  0.9981  0.5084
 3707TIP3    H132612   1.691   4.393  12.065  0.5766  0.6819  0.4494
 3707TIP3    H232613   1.810   4.410  11.973 -0.1474  0.8352 -0.4722
 3708TIP3   OH232614   4.187   1.303  13.260 -0.5300  0.4781 -0.4585
 3708TIP3    H132615   4.125   1.333  13.193  1.2831  2.2878 -1.3789
 3708TIP3    H232616   4.182   1.207  13.256 -3.4820  0.5684 -0.2670
 3709TIP3   OH232617   4.940   3.016   5.063  0.3769 -0.2213  0.2795
 3709TIP3    H132618   4.910   3.107   5.060  1.2844  0.0771  0.1456
 3709TIP3    H232619   4.930   2.990   5.155 -2.1080 -0.7550 -0.1154
 3710TIP3   OH232620   6.690   3.755  12.537 -0.0677  0.0692  0.1069
 3710TIP3    H132621   6.708   3.846  12.514  1.9969 -0.1794  0.6672
 3710TIP3    H232622   6.689   3.754  12.632 -0.1341 -0.4967  0.1006
 3711TIP3   OH232623   6.184   1.933  16.576 -0.3787  0.0995  0.4599
 3711TIP3    H132624   6.130   2.008  16.552  0.7979  1.4266  1.7781
 3711TIP3    H232625   6.274   1.961  16.558 -0.1193 -2.2502 -2.1778
 3712TIP3   OH232626   3.905   3.059  14.878  0.1196 -0.3050 -0.3439
 3712TIP3    H132627   3.908   3.147  14.918 -1.3107 -1.1539  1.7087
 3712TIP3    H232628   3.839   3.066  14.809  1.4369  0.7348 -1.5468
 3713TIP3   OH232629   2.041   0.116  12.602 -0.1479 -0.3642  0.1289
 3713TIP3    H132630   2.043   0.097  12.509  1.4821  0.3322  0.0031
 3713TIP3    H232631   2.039   0.211  12.608 -0.8164 -0.4083  0.8085
 3714TIP3   OH232632   0.545   0.139  14.565  0.4803  0.2426 -0.2935
 3714TIP3    H132633   0.566   0.180  14.649  0.4202 -0.2764 -0.0198
 3714TIP3    H232634   0.624   0.089  14.543  0.4620  0.3056 -0.4999
 3715TIP3   OH232635   3.105   6.522   1.899 -0.0084 -0.4000  0.6658
 3715TIP3    H132636   3.182   6.487   1.856  0.9510  1.5427  0.7505
 3715TIP3    H232637   3.051   6.556   1.827 -0.2710 -0.7643  0.6905
 3716TIP3   OH232638   1.143   4.263  11.516  0.1269  0.3057 -0.1951
 3716TIP3    H132639   1.064   4.317  11.524 -0.8411 -1.2635  1.0358
 3716TIP3    H232640   1.185   4.269  11.601  0.6069  0.0070 -0.4101
 3717TIP3   OH232641   0.348   3.372   4.852  0.0417  0.6330 -0.1204
 3717TIP3    H132642   0.438   3.390   4.880 -0.2835  2.2918 -0.0454
 3717TIP3    H232643   0.295   3.430   4.907 -0.9172  1.0083 -1.4253
 3718TIP3   OH232644   3.631   1.615   5.419  0.0222 -0.5466 -0.8039
 3718TIP3    H132645   3.589   1.566   5.490  3.0580  0.0762  1.5442
 3718TIP3    H232646   3.680   1.549   5.370  1.6334 -0.3262  0.4929
 3719TIP3   OH232647   5.027   4.111   0.828  0.1139  0.4731 -0.3051
 3719TIP3    H132648   5.062   4.032   0.789 -1.6430  0.4936 -2.0189
 3719TIP3    H232649   5.032   4.096   0.922  0.8337 -1.2107 -0.6013
 3720TIP3   OH232650   6.420   6.344  16.579 -0.2031 -0.1800  0.4461
 3720TIP3    H132651   6.513   6.334  16.557 -0.3820 -2.1769  0.5206
 3720TIP3    H232652   6.420   6.368  16.671  0.2880  1.3792  0.0580
 3721TIP3   OH232653   2.252   5.542   2.348 -0.2599 -0.0569 -0.3191
 3721TIP3    H132654   2.229   5.465   2.399  1.7918 -1.0053 -0.7654
 3721TIP3    H232655   2.183   5.605   2.367 -0.8458 -1.2619  1.6979
 3722TIP3   OH232656   1.825   2.923  15.370  0.5281  0.0484  0.6881
 3722TIP3    H132657   1.740   2.966  15.378  0.3890 -0.4176  1.7898
 3722TIP3    H232658   1.806   2.830  15.381  1.1105 -0.1066  0.4003
 3723TIP3   OH232659   2.685   4.039   5.799 -0.0603 -0.4364  0.0215
 3723TIP3    H132660   2.731   3.965   5.840  0.2694 -0.8478 -1.0745
 3723TIP3    H232661   2.605   4.002   5.764  0.4834 -0.4534 -1.2424
 3724TIP3   OH232662   5.007   5.511   2.713 -0.1013 -0.1441 -0.6014
 3724TIP3    H132663   5.035   5.600   2.693 -0.5157 -0.2677 -1.7313
 3724TIP3    H232664   5.089   5.462   2.721  0.1706  0.5128  0.9409
 3725TIP3   OH232665   4.677   1.590   2.445 -0.6164 -0.6353 -0.0739
 3725TIP3    H132666   4.680   1.665   2.386 -0.8648 -0.2207  0.4349
 3725TIP3    H232667   4.689   1.514   2.388 -1.6368 -0.2915 -0.7522
 3726TIP3   OH232668   2.590   2.239  10.866 -0.2463 -0.3050  0.5254
 3726TIP3    H132669   2.535   2.187  10.806 -1.3529  1.5252 -0.0986
 3726TIP3    H232670   2.567   2.329  10.846  1.1543  0.4085  2.0750
 3727TIP3   OH232671   5.920   4.193   4.190 -0.1495  0.2819  0.0187
 3727TIP3    H132672   5.957   4.231   4.111  0.5680 -1.4589 -0.5239
 3727TIP3    H232673   5.972   4.230   4.262  0.3125  0.5797 -0.4659
 3728TIP3   OH232674   0.119   1.189  13.785 -0.2368  0.3887  0.2427
 3728TIP3    H132675   0.069   1.163  13.707 -0.4194 -1.3166  0.8948
 3728TIP3    H232676   0.155   1.275  13.763 -0.7492  0.1814 -1.5082
 3729TIP3   OH232677   2.270   5.223   3.218 -0.0214 -0.2741  0.1385
 3729TIP3    H132678   2.238   5.305   3.254 -0.8366 -0.2737 -0.5613
 3729TIP3    H232679   2.321   5.184   3.289  1.9771  1.7006 -0.1645
 3730TIP3   OH232680   4.420   2.222  16.871 -0.3786  0.4973 -0.1173
 3730TIP3    H132681   4.438   2.302  16.920 -1.0460 -0.6652  2.1004
 3730TIP3    H232682   4.504   2.199  16.831  0.6710  0.4518  2.0496
 3731TIP3   OH232683   3.122   4.614   4.271 -0.6869  0.0535  0.6708
 3731TIP3    H132684   3.198   4.619   4.329 -0.6940 -0.5207  0.7369
 3731TIP3    H232685   3.048   4.633   4.327 -0.6299  0.1732  0.7055
 3732TIP3   OH232686   1.966   5.469  14.748  0.2812  0.3157 -0.7283
 3732TIP3    H132687   2.030   5.441  14.814  1.3006  1.0968 -1.3825
 3732TIP3    H232688   1.989   5.419  14.670  1.1275  1.7806 -1.4410
 3733TIP3   OH232689   6.283   3.491  16.630  0.0397  0.3831  0.4906
 3733TIP3    H132690   6.274   3.485  16.535 -0.7500  0.2505  0.5674
 3733TIP3    H232691   6.194   3.477  16.664  0.5845 -1.2410  1.3250
 3734TIP3   OH232692   6.493   3.676  15.398  0.2018  0.9403  0.4499
 3734TIP3    H132693   6.409   3.712  15.370  0.0089  0.9933  1.0972
 3734TIP3    H232694   6.555   3.703  15.330 -0.5334 -0.1623 -0.6805
 3735TIP3   OH232695   2.650   1.563   2.799 -0.3895  0.4134 -0.3317
 3735TIP3    H132696   2.706   1.639   2.809  0.4897 -0.3291  0.5495
 3735TIP3    H232697   2.604   1.555   2.883  0.6557 -0.8878  0.1444
 3736TIP3   OH232698   4.330   6.170  11.498  0.1377  0.5189 -0.2866
 3736TIP3    H132699   4.272   6.229  11.451 -1.2145  0.9300  1.7988
 3736TIP3    H232700   4.397   6.144  11.434 -0.7695  2.2143 -1.9478
 3737TIP3   OH232701   2.559   2.179   3.456  0.5946  0.0184 -0.5310
 3737TIP3    H132702   2.574   2.142   3.369 -1.6858  2.0028 -1.8593
 3737TIP3    H232703   2.496   2.120   3.497  1.1179 -0.5322 -0.5258
 3738TIP3   OH232704   3.720   2.442   0.557  0.5936 -0.0794  0.7900
 3738TIP3    H132705   3.725   2.481   0.470  1.3444  0.8555  1.2442
 3738TIP3    H232706   3.635   2.470   0.591  0.7922  0.5083  0.8025
 3739TIP3   OH232707   0.917   3.646  14.215 -0.2640  0.7845  0.4509
 3739TIP3    H132708   0.964   3.682  14.291 -1.5587  0.8160  1.2514
 3739TIP3    H232709   0.898   3.556  14.239  1.5989  0.0067 -0.9161
 3740TIP3   OH232710   1.990   0.968  11.741 -0.1273 -0.3447 -0.2910
 3740TIP3    H132711   2.034   0.897  11.790  0.1761 -1.2655 -1.8661
 3740TIP3    H232712   1.922   0.924  11.691  0.6794  0.3267 -2.0254
 3741TIP3   OH232713   0.260   4.705   0.276  0.2387 -0.2057  0.6957
 3741TIP3    H132714   0.184   4.661   0.313 -0.0637  0.3488  0.7522
 3741TIP3    H232715   0.334   4.648   0.296 -0.3405 -1.3927 -0.4921
 3742TIP3   OH232716   3.689   2.974   5.070  0.1920  0.5843  0.3663
 3742TIP3    H132717   3.613   2.952   5.124  0.9858  1.5071  1.9229
 3742TIP3    H232718   3.699   3.068   5.081  1.5418  0.4744  0.1883
 3743TIP3   OH232719   6.588   5.535  16.823 -0.3758  0.1287 -0.8936
 3743TIP3    H132720   6.649   5.483  16.875 -1.2537  1.7600  1.8269
 3743TIP3    H232721   6.510   5.479  16.815  0.1122 -0.5021 -1.3010
 3744TIP3   OH232722   2.578   4.325   2.253  0.0131 -0.3916  0.4494
 3744TIP3    H132723   2.560   4.247   2.306  0.6360 -1.4539 -0.8840
 3744TIP3    H232724   2.492   4.366   2.242 -0.1252 -0.1184  2.3061
 3745TIP3   OH232725   4.300   6.204  14.538 -0.1200  0.2065  0.5941
 3745TIP3    H132726   4.257   6.138  14.592 -0.0221 -0.2038  0.1790
 3745TIP3    H232727   4.230   6.264  14.512 -0.6059 -0.9761 -0.8434
 3746TIP3   OH232728   5.453   6.110   3.910  0.4400 -0.2457 -0.4978
 3746TIP3    H132729   5.497   6.171   3.969 -0.4930  0.4535 -0.5132
 3746TIP3    H232730   5.502   6.116   3.828  0.1500  0.7362 -0.6025
 3747TIP3   OH232731   4.699   0.561   2.693 -0.2858 -0.5866  0.0095
 3747TIP3    H132732   4.742   0.487   2.736  0.4524  0.6048  1.3751
 3747TIP3    H232733   4.765   0.594   2.631 -0.2973 -0.5400  0.0220
 3748TIP3   OH232734   1.602   0.505  17.139 -0.4242 -0.0149 -0.3454
 3748TIP3    H132735   1.520   0.505  17.187 -1.0249  0.3985 -1.3671
 3748TIP3    H232736   1.667   0.535  17.203 -1.6342  3.1371 -0.5107
 3749TIP3   OH232737   1.554   0.246  11.274  0.6910 -0.4932  0.6152
 3749TIP3    H132738   1.579   0.327  11.231  0.4624  0.8283  2.8850
 3749TIP3    H232739   1.522   0.189  11.204 -0.7362  2.0007 -0.7982
 3750TIP3   OH232740   0.741   3.198  11.193  0.2605  0.0384 -0.4995
 3750TIP3    H132741   0.647   3.184  11.195 -0.0591  1.7480 -2.0816
 3750TIP3    H232742   0.758   3.255  11.269 -0.0136 -0.0105 -0.4025
 3751TIP3   OH232743   1.955   3.149   5.494  0.0709  0.1834  0.3300
 3751TIP3    H132744   2.021   3.089   5.529 -0.0516 -0.9638 -1.3404
 3751TIP3    H232745   1.987   3.236   5.517  2.4823 -0.3310 -0.9497
 3752TIP3   OH232746   0.447   2.658  13.182 -0.7321 -0.4143  0.0020
 3752TIP3    H132747   0.384   2.586  13.184 -0.8134 -0.4931 -2.9254
 3752TIP3    H232748   0.529   2.620  13.215 -0.8339 -1.8001 -1.3189
 3753TIP3   OH232749   0.639   2.614  15.689 -0.0689  0.5287 -0.0069
 3753TIP3    H132750   0.691   2.649  15.762  1.9624  1.1835 -1.7271
 3753TIP3    H232751   0.600   2.534  15.724  2.1972 -0.0347  1.3065
 3754TIP3   OH232752   4.447   3.242   4.596 -0.6858  0.4749  0.1205
 3754TIP3    H132753   4.499   3.309   4.640  0.7380  0.4494 -1.4684
 3754TIP3    H232754   4.415   3.284   4.517 -0.5901 -0.4297 -0.4043
 3755TIP3   OH232755   6.604   3.514  12.710  0.4134 -0.1372 -0.1093
 3755TIP3    H132756   6.674   3.578  12.725 -0.1655  0.7112 -1.0227
 3755TIP3    H232757   6.528   3.551  12.755 -0.1764  0.2828 -1.4552
 3756TIP3   OH232758   0.082   1.790  14.214 -0.6306  0.2466 -0.0725
 3756TIP3    H132759   0.093   1.702  14.250  0.6085  0.6560  0.5841
 3756TIP3    H232760   0.133   1.790  14.133  1.9162  1.2497  1.4671
 3757TIP3   OH232761   2.415   4.149  12.787  0.1930 -0.9022 -0.3240
 3757TIP3    H132762   2.424   4.228  12.733  0.3740 -0.9266 -0.3307
 3757TIP3    H232763   2.361   4.090  12.734 -2.2208  0.2320  0.7912
 3758TIP3   OH232764   1.946   0.256   1.024 -0.0180  0.1304 -0.0741
 3758TIP3    H132765   2.034   0.227   0.999  0.0862  0.3465  0.0450
 3758TIP3    H232766   1.907   0.179   1.065  0.4187  0.2931  0.6508
 3759TIP3   OH232767   3.960   4.314  16.587  0.0003 -0.2974  0.2017
 3759TIP3    H132768   3.884   4.324  16.644  0.4383 -0.0064  0.7445
 3759TIP3    H232769   4.016   4.388  16.609  1.0680 -1.2681  0.7959
 3760TIP3   OH232770   2.324   6.285   6.515  0.2104  0.0173  0.6337
 3760TIP3    H132771   2.397   6.266   6.456 -1.3018  1.8833 -1.9386
 3760TIP3    H232772   2.254   6.227   6.486 -0.6268  1.1383  0.3817
 3761TIP3   OH232773   3.333   3.206  15.483 -0.2590  0.3912 -0.3459
 3761TIP3    H132774   3.387   3.273  15.525 -0.6302 -0.1115  0.9623
 3761TIP3    H232775   3.395   3.153  15.433  0.6232 -0.7119  1.8274
 3762TIP3   OH232776   3.948   4.641   3.949  0.2795  0.6129 -0.6712
 3762TIP3    H132777   3.958   4.613   3.858 -0.1638  0.5761 -0.7108
 3762TIP3    H232778   4.026   4.608   3.993 -0.3810 -0.9723 -0.6600
 3763TIP3   OH232779   3.688   3.378   4.925  0.3367 -0.1957  0.0204
 3763TIP3    H132780   3.598   3.350   4.910 -0.0213  0.8457  0.1394
 3763TIP3    H232781   3.713   3.335   5.007 -0.1764 -0.2185  0.1666
 3764TIP3   OH232782   6.516   4.771  13.672  0.2261  0.0289 -0.5060
 3764TIP3    H132783   6.490   4.811  13.755 -0.4552  0.1608 -0.7813
 3764TIP3    H232784   6.518   4.677  13.690 -0.0196  0.0500 -0.3669
 3765TIP3   OH232785   3.684   1.621   4.762  0.3372  0.1142 -0.1435
 3765TIP3    H132786   3.720   1.565   4.830 -0.3349 -2.1506 -1.5878
 3765TIP3    H232787   3.596   1.643   4.793  2.1991  4.2327  2.5701
 3766TIP3   OH232788   5.883   5.076   3.665  0.1985  0.3126  0.2463
 3766TIP3    H132789   5.975   5.099   3.650  0.8973 -1.5200  1.5360
 3766TIP3    H232790   5.840   5.159   3.685  1.2150  1.4315 -2.0224
 3767TIP3   OH232791   1.024   0.168   3.874 -0.6046  0.6100 -0.0011
 3767TIP3    H132792   1.111   0.179   3.836 -0.8228  1.4741 -0.2525
 3767TIP3    H232793   0.994   0.257   3.892 -1.3967  0.3095  0.1743
 3768TIP3   OH232794   1.085   0.316  16.194  0.4298 -0.1851  0.0404
 3768TIP3    H132795   1.167   0.290  16.152  0.2035  2.6443 -2.2889
 3768TIP3    H232796   1.026   0.241  16.182  1.7400 -1.0869 -0.8355
 3769TIP3   OH232797   5.345   1.817  16.727  0.4849 -0.7587 -0.2818
 3769TIP3    H132798   5.311   1.902  16.754 -0.2817 -0.8637 -0.8820
 3769TIP3    H232799   5.336   1.761  16.805  1.1100 -0.2612  0.1503
 3770TIP3   OH232800   3.018   1.442  17.283  0.7428 -0.5962  0.0343
 3770TIP3    H132801   3.024   1.477  17.372 -1.6282  0.9531 -0.3927
 3770TIP3    H232802   3.085   1.490  17.234 -2.1555  3.1563 -0.4387
 3771TIP3   OH232803   6.285   1.373   6.609  0.0267  0.4247 -0.0678
 3771TIP3    H132804   6.374   1.338   6.607  0.1814  0.7980  0.1842
 3771TIP3    H232805   6.265   1.390   6.517  0.3017  0.5506 -0.1062
 3772TIP3   OH232806   5.200   1.243   3.624 -0.3007 -0.1654  0.0854
 3772TIP3    H132807   5.142   1.312   3.592  0.9576  1.0283  0.3244
 3772TIP3    H232808   5.194   1.174   3.558 -2.5828 -0.4187  0.4907
 3773TIP3   OH232809   5.433   6.394  14.378 -0.2125 -0.2425 -0.5200
 3773TIP3    H132810   5.434   6.387  14.473  1.6399  0.4296 -0.4613
 3773TIP3    H232811   5.456   6.307  14.346  0.3923 -0.1542 -0.3223
 3774TIP3   OH232812   6.303   3.026  11.900  0.6172  0.3869 -0.0441
 3774TIP3    H132813   6.240   2.963  11.936 -1.7167  1.4957 -1.9987
 3774TIP3    H232814   6.287   3.106  11.950  0.4988  0.6510 -0.5029
 3775TIP3   OH232815   4.438   4.287   0.786 -0.6164 -0.3595  0.1214
 3775TIP3    H132816   4.380   4.277   0.711  0.5920 -2.0255 -0.6225
 3775TIP3    H232817   4.428   4.205   0.835  0.0311 -0.0761  0.7366
 3776TIP3   OH232818   0.088   1.905  12.273 -0.4158 -0.4460 -0.4015
 3776TIP3    H132819   0.117   1.814  12.278  0.6450  0.0268  2.5682
 3776TIP3    H232820   0.168   1.955  12.258 -0.8836  0.1132 -1.1152
 3777TIP3   OH232821   0.646   5.882  16.232 -0.1094 -0.1708  0.6659
 3777TIP3    H132822   0.610   5.964  16.267 -0.2618 -0.2901  0.7875
 3777TIP3    H232823   0.691   5.909  16.151 -0.4455 -0.0159  0.5279
 3778TIP3   OH232824   2.482   1.083  14.578  0.1709  0.2949  0.0072
 3778TIP3    H132825   2.540   1.053  14.508  0.2104 -0.1995  0.2478
 3778TIP3    H232826   2.526   1.159  14.616  1.6666 -1.2944  1.5325
 3779TIP3   OH232827   2.302   6.521   5.046 -0.3709 -0.4680  0.0463
 3779TIP3    H132828   2.309   6.432   5.014  1.7552 -0.9233  1.6347
 3779TIP3    H232829   2.331   6.516   5.137 -0.0258  1.8629  0.1063
 3780TIP3   OH232830   3.855   0.741   1.504 -0.4288  0.0717  0.2320
 3780TIP3    H132831   3.917   0.673   1.476  1.0695  1.7362 -0.6570
 3780TIP3    H232832   3.770   0.711   1.472  0.2064 -1.3604 -0.1551
 3781TIP3   OH232833   0.995   6.112   1.606 -0.0565  0.3058 -0.0848
 3781TIP3    H132834   1.057   6.182   1.586  0.0386  0.5583  1.0526
 3781TIP3    H232835   1.045   6.049   1.657  0.0592 -0.9833 -1.7447
 3782TIP3   OH232836   1.809   0.788   3.286 -0.3273 -0.3470 -0.2015
 3782TIP3    H132837   1.788   0.773   3.378 -0.9889 -0.1040 -0.3098
 3782TIP3    H232838   1.900   0.757   3.276  0.4378  1.4697  0.9721
 3783TIP3   OH232839   1.037   3.899   1.210  0.3339  0.5831  0.2214
 3783TIP3    H132840   1.116   3.856   1.175 -1.1008 -1.2545 -0.8285
 3783TIP3    H232841   1.017   3.967   1.146  0.4777  0.3902 -0.0319
 3784TIP3   OH232842   4.757   3.790  14.273  0.0821 -0.2966  0.1007
 3784TIP3    H132843   4.839   3.747  14.247  0.1483 -0.2969  0.3044
 3784TIP3    H232844   4.728   3.836  14.195  0.6651  0.3168  0.2369
 3785TIP3   OH232845   5.277   6.290   2.183 -0.2262  0.3498 -0.3572
 3785TIP3    H132846   5.328   6.239   2.246 -0.4506 -0.7460 -1.0482
 3785TIP3    H232847   5.266   6.231   2.108 -0.6276  1.3618 -1.1024
 3786TIP3   OH232848   1.211   1.780  12.468 -0.6906 -0.1455 -0.0001
 3786TIP3    H132849   1.266   1.858  12.458  0.9722 -1.3598 -0.5092
 3786TIP3    H232850   1.125   1.814  12.495  0.0446  1.8401 -0.1192
 3787TIP3   OH232851   6.720   5.516   3.841 -0.1380  0.1381 -0.6102
 3787TIP3    H132852   6.730   5.421   3.849 -1.1489  0.0898  0.2192
 3787TIP3    H232853   6.625   5.529   3.834  0.1238  0.8519 -3.9732
 3788TIP3   OH232854   3.701   3.613   4.140  0.0798 -0.2964  0.0706
 3788TIP3    H132855   3.783   3.564   4.146  1.6041  2.2475  0.4840
 3788TIP3    H232856   3.720   3.687   4.082 -1.6642  0.8387  0.8885
 3789TIP3   OH232857   2.489   1.376  16.382 -0.4758  0.2778 -0.5333
 3789TIP3    H132858   2.501   1.443  16.315 -2.5163  1.1171 -0.0974
 3789TIP3    H232859   2.485   1.294  16.333 -0.0241  0.6879 -1.2577
 3790TIP3   OH232860   2.889   6.264  15.409 -0.3649  0.1041 -0.5292
 3790TIP3    H132861   2.882   6.329  15.479  0.6136  0.5436 -0.8413
 3790TIP3    H232862   2.874   6.313  15.328 -2.2445 -0.5378 -0.6014
 3791TIP3   OH232863   5.186   0.934   3.040  0.1919 -0.4230 -0.2234
 3791TIP3    H132864   5.092   0.942   3.059  0.4933  0.5249  0.9668
 3791TIP3    H232865   5.209   1.017   2.999  0.4744 -0.7420 -0.7183
 3792TIP3   OH232866   4.962   5.849   5.711  0.3109 -0.4026  0.0915
 3792TIP3    H132867   4.891   5.914   5.716  0.7007  0.0596 -0.2911
 3792TIP3    H232868   4.962   5.820   5.620  0.0577 -1.0353  0.2897
 3793TIP3   OH232869   1.736   2.768  11.295  0.1494 -0.4923  0.0745
 3793TIP3    H132870   1.680   2.693  11.275 -0.0995 -0.7973  1.8465
 3793TIP3    H232871   1.705   2.837  11.237 -1.2067 -1.0484  0.1140
 3794TIP3   OH232872   4.410   5.263  14.158 -0.2034 -0.0548 -0.3012
 3794TIP3    H132873   4.439   5.172  14.154 -0.9773 -0.2975 -0.5028
 3794TIP3    H232874   4.315   5.258  14.145 -0.2185  0.7969 -0.5009
 3795TIP3   OH232875   1.606   5.077  15.964  0.3550  0.2700  0.4351
 3795TIP3    H132876   1.578   5.168  15.966 -1.2285 -0.1942 -0.3896
 3795TIP3    H232877   1.700   5.081  15.981  0.4711  2.1310 -0.5059
 3796TIP3   OH232878   1.320   3.978   4.354  0.1085 -0.4010  0.3572
 3796TIP3    H132879   1.333   3.904   4.414 -0.5403 -0.0198  0.9786
 3796TIP3    H232880   1.297   4.051   4.411 -0.1910  0.0489 -0.3327
 3797TIP3   OH232881   1.325   3.497  10.940 -0.7879 -0.5845 -0.1585
 3797TIP3    H132882   1.231   3.515  10.940 -0.8850 -1.0720 -0.7891
 3797TIP3    H232883   1.335   3.418  10.887 -0.0085 -0.4543 -0.2173
 3798TIP3   OH232884   2.275   4.451  10.946  0.1641 -0.2570 -0.4371
 3798TIP3    H132885   2.291   4.544  10.932 -0.0943 -0.6581 -3.9318
 3798TIP3    H232886   2.363   4.413  10.952  0.2986  0.0391 -0.4981
 3799TIP3   OH232887   6.227   2.600  16.535 -0.5679 -0.0921  0.2873
 3799TIP3    H132888   6.305   2.594  16.589  0.7444 -0.3741 -1.5894
 3799TIP3    H232889   6.260   2.611  16.445 -2.6715  0.3098 -0.4776
 3800TIP3   OH232890   3.759   2.103   1.769 -0.3070 -0.0569 -0.5022
 3800TIP3    H132891   3.724   2.105   1.680 -0.3655 -2.0909 -0.5330
 3800TIP3    H232892   3.682   2.090   1.825 -0.0042 -1.2250 -0.3394
 3801TIP3   OH232893   5.217   2.560  13.217  0.2241 -0.1418  0.2310
 3801TIP3    H132894   5.217   2.654  13.235  0.1018  0.0222 -0.5948
 3801TIP3    H232895   5.310   2.538  13.204  0.1366  0.1518 -0.9806
 3802TIP3   OH232896   1.305   3.339   0.887  0.8124 -0.3929 -0.2936
 3802TIP3    H132897   1.349   3.272   0.939 -0.0089 -0.7566 -0.0471
 3802TIP3    H232898   1.280   3.294   0.806 -0.3831 -0.5925  0.1749
 3803TIP3   OH232899   0.823   5.008   3.189  0.8123 -0.2044  0.3567
 3803TIP3    H132900   0.835   5.099   3.160 -0.1936 -0.6449 -1.5515
 3803TIP3    H232901   0.832   4.956   3.109 -1.1866 -1.5603  0.9659
 3804TIP3   OH232902   0.075   1.792   3.230 -0.2329 -0.3698  0.2485
 3804TIP3    H132903   0.010   1.861   3.216 -0.9530 -0.7085  1.8162
 3804TIP3    H232904   0.025   1.718   3.262  0.7012 -1.2548 -0.2916
 3805TIP3   OH232905   5.165   3.072  15.032  0.2533 -0.5448  0.5159
 3805TIP3    H132906   5.257   3.065  15.056 -0.0598 -0.0402  1.8843
 3805TIP3    H232907   5.137   2.982  15.016  1.1890 -0.6317 -0.7153
 3806TIP3   OH232908   1.629   4.317  16.577 -0.2618 -0.1251 -0.1109
 3806TIP3    H132909   1.688   4.246  16.553 -1.2004 -1.4814  1.4784
 3806TIP3    H232910   1.549   4.299  16.528 -0.9111 -0.8500  1.1943
 3807TIP3   OH232911   3.817   4.044   0.785 -0.7406 -0.4858 -0.1176
 3807TIP3    H132912   3.904   4.024   0.750 -0.3974 -0.5769  0.7811
 3807TIP3    H232913   3.761   4.050   0.708  0.2976  0.7680 -0.7867
 3808TIP3   OH232914   0.902   5.060   1.122 -0.1136  0.5029  0.0831
 3808TIP3    H132915   0.871   4.979   1.164  2.4653 -0.6457 -0.1460
 3808TIP3    H232916   0.893   5.044   1.028  1.5783 -0.0313 -0.0006
 3809TIP3   OH232917   4.599   0.827  16.591  0.2321  0.0098  0.3489
 3809TIP3    H132918   4.601   0.733  16.611 -0.0539  0.4012  2.2446
 3809TIP3    H232919   4.514   0.857  16.620  0.0695  0.7576 -0.8456
 3810TIP3   OH232920   2.751   1.816  11.516  0.8780  0.1231 -0.1907
 3810TIP3    H132921   2.741   1.898  11.564 -0.5563 -0.8631  1.2561
 3810TIP3    H232922   2.734   1.839  11.425  0.6479  1.4569  0.1785
 3811TIP3   OH232923   4.007   5.789  13.109  0.0946 -0.3152  0.4983
 3811TIP3    H132924   3.935   5.820  13.164 -0.4789  0.5320 -0.6898
 3811TIP3    H232925   4.085   5.797  13.164 -0.5619 -0.0776  1.3960
 3812TIP3   OH232926   6.515   6.520  13.810 -0.5339 -0.2342 -0.1284
 3812TIP3    H132927   6.581   6.453  13.825 -0.5025 -0.5685 -1.7123
 3812TIP3    H232928   6.443   6.496  13.869 -0.2938 -1.3388 -0.2775
 3813TIP3   OH232929   1.006   0.453  13.896 -0.3862  0.0669 -0.3608
 3813TIP3    H132930   1.019   0.359  13.910 -1.1022  0.3005  1.9906
 3813TIP3    H232931   1.075   0.495  13.949 -1.1633  0.9081 -0.0028
 3814TIP3   OH232932   5.596   0.523  13.276 -0.4496  0.1585 -0.1839
 3814TIP3    H132933   5.604   0.484  13.189 -2.6818 -0.1806 -0.2723
 3814TIP3    H232934   5.541   0.600  13.264 -2.2825 -0.8843  1.1757
 3815TIP3   OH232935   2.129   4.299  11.286 -0.0896 -0.1896  0.5854
 3815TIP3    H132936   2.085   4.215  11.276  2.4128 -1.3068 -1.8503
 3815TIP3    H232937   2.082   4.358  11.228  0.2904 -0.8525 -0.4195
 3816TIP3   OH232938   1.353   1.193  13.668  0.1854  0.3037 -0.3623
 3816TIP3    H132939   1.352   1.172  13.762  0.4471  1.2842 -0.1385
 3816TIP3    H232940   1.285   1.260  13.658  1.5401  1.6685 -0.5206
 3817TIP3   OH232941   2.476   1.941   2.945  0.1762  0.3757 -0.0623
 3817TIP3    H132942   2.405   1.878   2.934  0.4163  0.4655 -2.4393
 3817TIP3    H232943   2.456   2.012   2.883  1.6579  1.0036  0.1376
 3818TIP3   OH232944   5.683   4.158  16.077  0.6103 -0.1605 -0.0375
 3818TIP3    H132945   5.630   4.223  16.122 -2.1700 -2.6789  0.4171
 3818TIP3    H232946   5.642   4.148  15.991  1.4070 -0.8673 -0.3482
 3819TIP3   OH232947   6.640   4.139  13.581  0.2105 -0.1062 -0.5871
 3819TIP3    H132948   6.552   4.104  13.595 -0.2403  1.1770 -0.0622
 3819TIP3    H232949   6.635   4.182  13.495  0.9511 -1.8842 -1.5337
 3820TIP3   OH232950   0.385   5.384  14.410  0.1266 -0.5625 -0.2761
 3820TIP3    H132951   0.371   5.293  14.385  0.6519 -0.5844 -0.4875
 3820TIP3    H232952   0.339   5.435  14.343 -2.0825 -0.7028  1.0647
 3821TIP3   OH232953   0.971   1.651  14.713  0.0869 -0.6242 -0.0447
 3821TIP3    H132954   1.011   1.737  14.700 -0.5040 -0.2535  0.5300
 3821TIP3    H232955   1.014   1.617  14.792 -2.0415  0.5984  1.7222
 3822TIP3   OH232956   5.761   3.687   0.310  0.1396  0.1686  0.0552
 3822TIP3    H132957   5.762   3.756   0.376 -0.0421  1.1227 -0.9289
 3822TIP3    H232958   5.668   3.667   0.296  0.1413  0.4539 -0.3966
 3823TIP3   OH232959   0.988   3.645   3.589 -0.0827  0.3703 -0.3262
 3823TIP3    H132960   1.077   3.667   3.618 -0.1509 -0.0841  0.2329
 3823TIP3    H232961   0.988   3.666   3.495  1.0907 -1.0791 -0.6784
 3824TIP3   OH232962   2.614   5.007   2.417 -0.2695  0.2307 -0.3758
 3824TIP3    H132963   2.703   4.973   2.405  0.1115  0.2044  2.1117
 3824TIP3    H232964   2.585   4.968   2.499 -1.9762  1.5093 -0.3441
 3825TIP3   OH232965   6.621   1.549   3.616 -0.3631 -0.3650  0.0031
 3825TIP3    H132966   6.632   1.644   3.618 -0.0935 -0.3507 -1.7239
 3825TIP3    H232967   6.705   1.516   3.582 -1.0460 -1.1093 -0.9657
 3826TIP3   OH232968   5.678   4.258   5.281  0.1007 -0.0616 -0.0266
 3826TIP3    H132969   5.599   4.218   5.317 -0.2491  1.4081  0.8908
 3826TIP3    H232970   5.646   4.335   5.234  0.7731 -0.7695 -1.6796
 3827TIP3   OH232971   4.071   2.822  15.762 -0.0430  0.3039  0.1609
 3827TIP3    H132972   3.984   2.845  15.727  0.8701  1.1193 -1.6382
 3827TIP3    H232973   4.125   2.898  15.741  1.4434 -0.7900  0.0056
 3828TIP3   OH232974   6.166   3.277   4.465 -0.6872  0.0667  0.1011
 3828TIP3    H132975   6.241   3.316   4.512 -1.1392  1.1861 -0.0839
 3828TIP3    H232976   6.205   3.242   4.385 -0.5234  1.7528 -0.5907
 3829TIP3   OH232977   5.483   3.962  16.172  0.2055  0.4482  0.2400
 3829TIP3    H132978   5.435   4.043  16.156 -0.1920  0.0836 -0.4556
 3829TIP3    H232979   5.491   3.957  16.267 -0.5757  0.8333  0.3304
 3830TIP3   OH232980   6.762   6.564   1.780 -0.0308  0.5760  0.0185
 3830TIP3    H132981   6.800   6.515   1.707  0.7836 -0.2276  0.9781
 3830TIP3    H232982   6.774   6.656   1.755  0.7955  0.3135 -0.5912
 3831TIP3   OH232983   3.007   1.526   3.715  0.1788  0.3993  0.0847
 3831TIP3    H132984   2.914   1.547   3.722  0.1753  0.2325  0.4891
 3831TIP3    H232985   3.026   1.469   3.789 -0.1856 -2.4184 -1.8899
 3832TIP3   OH232986   2.789   1.917   5.630 -0.3546  0.2395  0.4227
 3832TIP3    H132987   2.849   1.845   5.649  0.9427  1.1518 -0.1725
 3832TIP3    H232988   2.734   1.924   5.709  2.2112  1.2470  2.2002
 3833TIP3   OH232989   2.460   4.027   5.640 -0.2118 -0.2825  0.3257
 3833TIP3    H132990   2.428   3.938   5.626  2.0944 -1.0946 -0.0243
 3833TIP3    H232991   2.442   4.072   5.557 -0.5202 -0.7131  0.1552
 3834TIP3   OH232992   0.102   4.456  12.997 -0.3830  0.3077 -0.5711
 3834TIP3    H132993   0.042   4.490  13.063  0.6016 -0.1770  0.5977
 3834TIP3    H232994   0.054   4.385  12.955 -0.9373  0.4703 -0.2204
 3835TIP3   OH232995   6.474   2.122   0.837  0.3259 -0.0767  0.0124
 3835TIP3    H132996   6.486   2.082   0.923 -1.4846  0.9716  0.7846
 3835TIP3    H232997   6.480   2.216   0.853 -0.7101  0.1514 -0.8651
 3836TIP3   OH232998   6.049   2.084   2.344 -0.0014 -0.3092 -0.0341
 3836TIP3    H132999   6.043   2.018   2.275  2.1601 -0.0154 -0.5205
 3836TIP3    H233000   6.137   2.073   2.381 -0.6882  0.3315  1.8865
 3837TIP3   OH233001   5.852   1.046   5.762  0.1171 -0.0709  0.1761
 3837TIP3    H133002   5.756   1.046   5.752  0.0509 -0.2867  0.8105
 3837TIP3    H233003   5.881   1.123   5.714 -0.3618 -0.0927 -0.1560
 3838TIP3   OH233004   2.163   5.297   1.477  0.2203 -1.0886  0.3356
 3838TIP3    H133005   2.221   5.284   1.402 -1.6706  0.7850 -1.5235
 3838TIP3    H233006   2.177   5.389   1.502  0.3520 -1.5137  1.8888
 3839TIP3   OH233007   6.743   6.469  15.704  0.1787  0.1895 -0.2978
 3839TIP3    H133008   6.751   6.402  15.772  1.1050  0.6212  0.0250
 3839TIP3    H233009   6.696   6.425  15.633  0.2140 -0.6082  0.1648
 3840TIP3   OH233010   1.686   2.390  11.056 -0.1966 -0.1323  0.1757
 3840TIP3    H133011   1.730   2.319  11.009  1.0654 -0.4561  1.7674
 3840TIP3    H233012   1.626   2.428  10.992 -0.4007 -2.1971 -0.8928
 3841TIP3   OH233013   4.925   6.789   2.492  0.0367  0.2674 -0.3291
 3841TIP3    H133014   4.998   6.743   2.450  2.6072  3.2610  0.7282
 3841TIP3    H233015   4.870   6.818   2.418  1.4772  0.5357 -1.3205
 3842TIP3   OH233016   5.664   5.373   0.709  0.0628 -0.4520 -0.3552
 3842TIP3    H133017   5.716   5.454   0.703  1.2953 -1.0260  2.0219
 3842TIP3    H233018   5.720   5.306   0.670 -0.3399 -0.4132 -0.9852
 3843TIP3   OH233019   5.988   3.714  16.436  0.2972  0.3555 -0.1322
 3843TIP3    H133020   6.049   3.701  16.364 -0.3724  0.4251 -0.7138
 3843TIP3    H233021   5.959   3.626  16.460  0.3292  0.3530 -0.1001
 3844TIP3   OH233022   6.744   5.833  17.100  0.6955  0.0594  0.4565
 3844TIP3    H133023   6.700   5.826  17.185  1.0302 -0.6643  0.5755
 3844TIP3    H233024   6.683   5.794  17.038 -0.1173  1.7776  0.1560
 3845TIP3   OH233025   1.856   3.826  11.116 -0.3893  0.1122 -0.2664
 3845TIP3    H133026   1.835   3.880  11.039 -0.8653  1.7713  0.9950
 3845TIP3    H233027   1.949   3.840  11.130 -0.4372  0.3255 -0.1575
 3846TIP3   OH233028   0.256   5.171  15.821 -0.9533 -0.4130  0.5565
 3846TIP3    H133029   0.177   5.164  15.768 -0.1847  0.0911 -0.6911
 3846TIP3    H233030   0.275   5.082  15.849 -0.6901 -0.8818 -1.0634
 3847TIP3   OH233031   4.827   3.873   5.457  0.2000  0.3445 -0.2395
 3847TIP3    H133032   4.767   3.833   5.394 -1.0224  1.5922  0.0990
 3847TIP3    H233033   4.807   3.966   5.453  2.9535  0.9479 -0.9634
 3848TIP3   OH233034   2.866   1.188   1.489 -0.1208  0.2742 -0.2227
 3848TIP3    H133035   2.835   1.116   1.544  1.0492 -0.8515 -1.0005
 3848TIP3    H233036   2.873   1.262   1.549  1.0674 -0.9082  1.1629
 3849TIP3   OH233037   6.575   6.506  17.123  0.0666 -0.3232  0.4689
 3849TIP3    H133038   6.611   6.536  17.207 -0.0777 -1.6694  1.0318
 3849TIP3    H233039   6.581   6.582  17.066  0.9311  0.3777  1.4672
 3850TIP3   OH233040   1.933   1.442   4.960 -0.0376  0.0144  0.4739
 3850TIP3    H133041   1.878   1.450   5.038  0.8628  0.1231  1.1028
 3850TIP3    H233042   1.871   1.426   4.889 -0.8644 -0.1323  1.2151
 3851TIP3   OH233043   1.654   3.313  12.201  0.0462  0.0753 -0.9133
 3851TIP3    H133044   1.747   3.337  12.198  0.4420 -1.2664  0.5829
 3851TIP3    H233045   1.609   3.397  12.206  1.2053  0.7080 -0.7539
 3852TIP3   OH233046   2.559   4.892   6.215 -0.4931 -0.0157 -0.3952
 3852TIP3    H133047   2.550   4.824   6.282 -0.5745  0.9569  0.5957
 3852TIP3    H233048   2.492   4.957   6.238  0.8472  1.3178 -0.2125
 3853TIP3   OH233049   2.763   1.112   0.676  0.3910  0.0275 -0.2487
 3853TIP3    H133050   2.858   1.113   0.688  0.1972  2.1594  1.2653
 3853TIP3    H233051   2.733   1.196   0.710 -2.1187 -0.8684 -0.1404
 3854TIP3   OH233052   0.246   1.045   5.965 -0.0449 -0.0556  0.4515
 3854TIP3    H133053   0.184   1.118   5.969  0.1721  0.1631 -0.1565
 3854TIP3    H233054   0.251   1.013   6.055 -1.7550 -0.6641  0.3567
 3855TIP3   OH233055   5.059   5.974   6.003  0.2782  0.1877 -0.7430
 3855TIP3    H133056   5.043   5.883   5.980 -1.0590  0.1082  0.4322
 3855TIP3    H233057   5.124   5.971   6.073  0.7671  0.1747 -1.1975
 3856TIP3   OH233058   2.570   1.823   4.437  0.0450  0.3604  0.0008
 3856TIP3    H133059   2.595   1.899   4.490  0.9987  0.8881 -1.1877
 3856TIP3    H233060   2.584   1.748   4.495  0.0606  0.9988  0.8423
 3857TIP3   OH233061   4.985   1.423   6.294 -0.3487 -0.0448  0.5562
 3857TIP3    H133062   4.940   1.339   6.302  1.2776 -1.2609 -2.1831
 3857TIP3    H233063   4.915   1.485   6.270 -1.1268 -1.1993 -0.2355
 3858TIP3   OH233064   1.799   2.768  11.917 -0.1431 -0.1072  0.3164
 3858TIP3    H133065   1.871   2.798  11.972  0.9909 -1.8088 -0.2032
 3858TIP3    H233066   1.776   2.682  11.952 -0.1774 -0.7043 -1.1538
 3859TIP3   OH233067   2.134   6.295  14.552  0.7337  0.2991 -0.1303
 3859TIP3    H133068   2.057   6.346  14.527 -0.3426 -1.0261  0.3907
 3859TIP3    H233069   2.151   6.238  14.477  2.8864  2.4363 -1.3556
 3860TIP3   OH233070   6.167   5.842   6.699 -0.1002  0.4093  0.7698
 3860TIP3    H133071   6.140   5.914   6.755  2.1154  1.5868  0.3882
 3860TIP3    H233072   6.103   5.841   6.628  0.3314  2.6261  0.3001
 3861TIP3   OH233073   0.453   2.375  16.624  0.0438  0.4516  0.0714
 3861TIP3    H133074   0.401   2.455  16.633 -0.6205  0.1278 -0.8887
 3861TIP3    H233075   0.473   2.349  16.714 -0.7021  1.0691  0.4158
 3862TIP3   OH233076   2.054   1.826   2.088  0.2827  1.1255  0.7981
 3862TIP3    H133077   2.033   1.733   2.088  0.8148  0.9618 -2.0741
 3862TIP3    H233078   2.053   1.851   2.180 -0.2967 -1.6146  1.5725
 3863TIP3   OH233079   1.323   5.979   5.797  0.3694  0.1165  0.8242
 3863TIP3    H133080   1.363   5.942   5.719 -0.7144  0.6938 -0.0163
 3863TIP3    H233081   1.311   5.903   5.855 -2.0753 -0.9747 -0.9914
 3864TIP3   OH233082   5.538   0.449  15.219  0.4683  0.5707  0.0199
 3864TIP3    H133083   5.590   0.464  15.140  1.2031 -0.2985  0.3307
 3864TIP3    H233084   5.601   0.418  15.283 -0.7252 -2.2080 -0.1188
 3865TIP3   OH233085   6.568   4.142   0.857 -0.5787  0.0216  0.1826
 3865TIP3    H133086   6.532   4.226   0.830 -1.1372 -0.7735 -1.6165
 3865TIP3    H233087   6.652   4.135   0.812 -0.3545 -0.2176  0.6300
 3866TIP3   OH233088   0.094   3.082  12.452  0.5186 -0.2914  0.1666
 3866TIP3    H133089   0.098   3.078  12.356  1.0566 -0.6420  0.1956
 3866TIP3    H233090   0.111   3.173  12.473  1.1628 -0.3552 -0.0499
 3867TIP3   OH233091   2.279   2.770  13.857 -0.2807  0.6545 -0.7607
 3867TIP3    H133092   2.279   2.853  13.905 -1.8837  0.6921 -0.7805
 3867TIP3    H233093   2.266   2.704  13.925 -2.7934  0.7247 -1.1154
 3868TIP3   OH233094   2.661   6.421   0.195 -0.3616 -0.0787 -0.4306
 3868TIP3    H133095   2.681   6.353   0.259 -1.0085  1.2539  1.2293
 3868TIP3    H233096   2.587   6.385   0.145 -0.1764 -0.9303 -0.1018
 3869TIP3   OH233097   0.964   5.137   1.740 -0.3628  0.4895 -0.5875
 3869TIP3    H133098   0.921   5.161   1.657  0.6876  1.4482 -0.8631
 3869TIP3    H233099   1.022   5.210   1.759  0.0654 -0.1359  0.5470
 3870TIP3   OH233100   0.991   1.189   2.788  0.2852 -0.0521 -0.1614
 3870TIP3    H133101   1.011   1.278   2.818  2.0987 -0.5077  0.0685
 3870TIP3    H233102   1.046   1.177   2.711 -0.0262 -0.9424 -0.2552
 3871TIP3   OH233103   4.930   2.156  16.548 -0.1707  0.0051 -0.4491
 3871TIP3    H133104   4.992   2.135  16.478  0.6652  2.3742 -0.4435
 3871TIP3    H233105   4.872   2.223  16.511 -0.9018 -0.0737  0.5199
 3872TIP3   OH233106   4.293   2.780   3.840  0.1731  0.0500 -0.4055
 3872TIP3    H133107   4.369   2.774   3.782  0.3337  0.4698 -0.2404
 3872TIP3    H233108   4.232   2.838   3.794 -0.3127 -0.7932 -0.8298
 3873TIP3   OH233109   2.802   4.102  15.029  0.0479  0.3162 -0.4143
 3873TIP3    H133110   2.835   4.191  15.031  0.2129  0.3068 -1.9050
 3873TIP3    H233111   2.817   4.068  15.117 -1.9644  2.4449  0.7696
 3874TIP3   OH233112   3.442   1.818   3.888  0.4196  0.0063 -0.7525
 3874TIP3    H133113   3.396   1.855   3.964  0.6009 -2.7006  0.7474
 3874TIP3    H233114   3.373   1.774   3.838  0.9040 -1.8708  0.1563
 3875TIP3   OH233115   0.965   6.304  10.920  0.2494  0.0650  0.0352
 3875TIP3    H133116   1.052   6.346  10.919 -0.1962  0.9951 -1.0067
 3875TIP3    H233117   0.970   6.240  10.991  2.0996 -0.5469 -0.6141
 3876TIP3   OH233118   5.764   6.704   5.768  0.3061 -0.2278  0.4256
 3876TIP3    H133119   5.690   6.724   5.711 -1.2892  0.8595  2.7986
 3876TIP3    H233120   5.809   6.787   5.779  2.7035 -1.1285 -2.0227
 3877TIP3   OH233121   6.686   6.722  13.777  0.0653 -0.1974  0.0347
 3877TIP3    H133122   6.765   6.667  13.784 -0.8809 -1.7534 -1.3321
 3877TIP3    H233123   6.614   6.660  13.766 -1.2465  1.2623  0.2327
 3878TIP3   OH233124   6.558   5.960   0.706 -0.2654  0.0063  0.1145
 3878TIP3    H133125   6.654   5.952   0.703 -0.2298  0.7176 -1.2563
 3878TIP3    H233126   6.530   5.929   0.619 -1.2295  0.3651  0.3028
 3879TIP3   OH233127   6.781   5.163  12.459  0.0581 -0.4110  0.3217
 3879TIP3    H133128   6.869   5.124  12.460 -0.1508 -0.8733  1.1424
 3879TIP3    H233129   6.727   5.101  12.508 -0.9524 -0.6529 -1.0828
 3880TIP3   OH233130   4.122   4.904   1.415  0.4787 -0.0647  0.2527
 3880TIP3    H133131   4.176   4.844   1.365  0.6307 -0.4168  0.8423
 3880TIP3    H233132   4.047   4.852   1.444  0.3089  0.1767  0.2561
 3881TIP3   OH233133   2.721   3.983   1.663  0.4514 -0.1847  0.2971
 3881TIP3    H133134   2.658   4.046   1.629  0.6559  0.3421  0.8947
 3881TIP3    H233135   2.706   3.904   1.611 -1.2166 -0.3044  0.9453
 3882TIP3   OH233136   4.863   5.564   1.449  0.7631 -0.0224  0.1699
 3882TIP3    H133137   4.804   5.489   1.445  0.3428  0.2704  0.7392
 3882TIP3    H233138   4.839   5.617   1.373 -0.5865  0.7326  1.1084
 3883TIP3   OH233139   2.321   4.241   6.186 -0.4315 -0.4203 -0.6499
 3883TIP3    H133140   2.395   4.300   6.174 -0.0094 -1.2028 -1.9203
 3883TIP3    H233141   2.299   4.210   6.098 -1.6682 -0.9267 -0.1802
 3884TIP3   OH233142   5.892   5.802  11.551 -0.3424 -0.0005 -0.6138
 3884TIP3    H133143   5.873   5.895  11.556  2.1053  0.5018  0.0152
 3884TIP3    H233144   5.888   5.781  11.458 -0.0411  0.9348 -0.8395
 3885TIP3   OH233145   0.308   3.685  14.348  0.3332 -0.4806 -0.8544
 3885TIP3    H133146   0.399   3.714  14.345  0.7787 -1.7768 -0.0569
 3885TIP3    H233147   0.281   3.698  14.439 -0.1787 -0.4124 -1.0146
 3886TIP3   OH233148   1.059   4.333   4.313 -0.1520 -0.1751 -0.1961
 3886TIP3    H133149   1.006   4.411   4.299  0.7067  0.6584  1.1370
 3886TIP3    H233150   1.147   4.366   4.331  0.5546 -1.5070 -1.1213
 3887TIP3   OH233151   6.399   1.135  11.227 -0.0623  0.3983 -0.5574
 3887TIP3    H133152   6.321   1.082  11.237  0.5887 -0.3638  0.5989
 3887TIP3    H233153   6.471   1.072  11.225  0.5389  1.1031 -1.3837
 3888TIP3   OH233154   1.909   5.568   0.102  0.4711 -0.2973  0.4086
 3888TIP3    H133155   1.889   5.602   0.015  1.0764 -0.3153  0.2608
 3888TIP3    H233156   1.825   5.539   0.137 -0.4457  3.3071  1.3962
 3889TIP3   OH233157   0.067   3.302   6.659 -0.3312 -0.1489  0.2172
 3889TIP3    H133158   0.045   3.231   6.598 -0.0012  0.0203 -0.0992
 3889TIP3    H233159   0.162   3.301   6.663 -0.3099  0.5103 -0.0660
 3890TIP3   OH233160   0.946   5.653  14.979  0.0403 -0.4574  0.2608
 3890TIP3    H133161   0.874   5.646  15.042 -0.8072 -0.4247 -0.6834
 3890TIP3    H233162   0.906   5.692  14.901  1.1349 -0.2297 -0.1989
 3891TIP3   OH233163   4.954   2.432   4.765  0.3100 -0.1739  0.0940
 3891TIP3    H133164   5.005   2.476   4.834  1.5073  0.3299 -1.0994
 3891TIP3    H233165   4.885   2.494   4.743  1.9835  1.1167 -1.5714
 3892TIP3   OH233166   2.407   5.145  13.546 -0.0932 -0.8186  0.2788
 3892TIP3    H133167   2.496   5.152  13.510  0.7603  3.7859  2.8491
 3892TIP3    H233168   2.356   5.207  13.493 -0.7562 -0.3003  1.5171
 3893TIP3   OH233169   5.356   1.850   5.807 -0.3861 -0.1763  0.0024
 3893TIP3    H133170   5.350   1.903   5.728 -2.2730 -0.1599  0.1393
 3893TIP3    H233171   5.450   1.832   5.817  0.0105  1.0179 -1.4296
 3894TIP3   OH233172   0.996   1.702  12.070 -0.1815  0.3653 -0.0428
 3894TIP3    H133173   0.963   1.685  11.981 -1.0260  0.1961  0.2971
 3894TIP3    H233174   0.986   1.619  12.115 -2.7755  1.2421  1.1396
 3895TIP3   OH233175   2.625   4.219   1.899  0.0693  0.0374  0.1143
 3895TIP3    H133176   2.654   4.211   1.808 -0.0318 -1.2018  0.1793
 3895TIP3    H233177   2.550   4.159   1.905 -1.1099  1.5144  0.5297
 3896TIP3   OH233178   0.376   4.856  14.000 -0.1832  0.5846 -0.4591
 3896TIP3    H133179   0.281   4.849  14.006 -0.0901  1.0250  1.8092
 3896TIP3    H233180   0.405   4.876  14.089  1.9839  1.0699 -1.2328
 3897TIP3   OH233181   2.362   4.244   5.189  0.1098  0.3948 -0.1622
 3897TIP3    H133182   2.335   4.176   5.127  1.6454  0.9307 -1.4270
 3897TIP3    H233183   2.386   4.319   5.134  0.5019  1.2284  1.1262
 3898TIP3   OH233184   6.076   3.751   6.069 -0.0939 -0.0564 -0.3980
 3898TIP3    H133185   6.005   3.706   6.024  0.9172 -0.6327 -1.4498
 3898TIP3    H233186   6.100   3.694   6.141  0.7405 -0.9028 -1.3341
 3899TIP3   OH233187   4.108   6.253   6.447 -0.2519  0.0803  0.1951
 3899TIP3    H133188   4.082   6.162   6.436  0.9711 -0.1774 -0.5908
 3899TIP3    H233189   4.041   6.303   6.399 -1.5827 -0.3076  1.6095
 3900TIP3   OH233190   1.337   3.929   4.070 -0.0089 -0.2473 -0.1311
 3900TIP3    H133191   1.332   3.836   4.045 -0.5126 -0.0137 -0.9168
 3900TIP3    H233192   1.307   3.930   4.161  0.1510 -0.8801 -0.0645
 3901TIP3   OH233193   3.095   4.050  10.846  0.7008  0.0770 -0.0471
 3901TIP3    H133194   3.017   4.057  10.791  1.4297  2.8495 -0.7976
 3901TIP3    H233195   3.139   3.971  10.815 -2.1479 -2.0154  0.9203
 3902TIP3   OH233196   4.578   3.819  13.418 -0.0219  0.8778  0.0143
 3902TIP3    H133197   4.594   3.907  13.385  1.5865  0.5980  0.0462
 3902TIP3    H233198   4.620   3.817  13.504 -1.1175  0.4623  0.5655
 3903TIP3   OH233199   2.001   6.406   5.052  0.1210  0.0258 -0.2907
 3903TIP3    H133200   2.093   6.379   5.045 -0.4802 -1.8964 -1.1566
 3903TIP3    H233201   1.967   6.357   5.127  0.1393  1.7773  0.8812
 3904TIP3   OH233202   4.697   0.096   3.488  0.4630 -0.0712 -0.5908
 3904TIP3    H133203   4.737   0.160   3.546  0.4975 -0.0832 -0.6011
 3904TIP3    H233204   4.639   0.147   3.432  0.1811 -0.1045 -0.3277
 3905TIP3   OH233205   1.826   2.511  16.974  0.1608 -0.1638 -0.3451
 3905TIP3    H133206   1.835   2.603  16.998  1.5886  0.2396 -2.2505
 3905TIP3    H233207   1.780   2.471  17.048  0.5873  1.8276  1.0509
 3906TIP3   OH233208   3.363   1.785   3.279  0.1052 -0.0970 -0.2632
 3906TIP3    H133209   3.393   1.780   3.188  0.0340  1.2845 -0.3762
 3906TIP3    H233210   3.295   1.853   3.278  1.2172  1.0786  1.0915
 3907TIP3   OH233211   1.614   2.970  14.525  0.4127  0.0612 -0.2003
 3907TIP3    H133212   1.539   2.911  14.531  1.7888 -1.6432  0.8545
 3907TIP3    H233213   1.653   2.952  14.439  1.6073 -1.5840  0.6552
 3908TIP3   OH233214   1.827   3.325   0.825  0.2114 -0.4195  0.3013
 3908TIP3    H133215   1.788   3.398   0.776 -0.7765 -1.1775 -0.0751
 3908TIP3    H233216   1.865   3.365   0.903  0.1268  0.5651 -0.1618
 3909TIP3   OH233217   0.726   0.337   4.402 -0.2407  0.2892 -0.5496
 3909TIP3    H133218   0.789   0.396   4.361 -0.2943  1.5211  1.0700
 3909TIP3    H233219   0.654   0.394   4.428 -0.5757 -0.5964  0.5086
 3910TIP3   OH233220   4.321   4.102  14.495 -0.4119 -1.0921  0.2318
 3910TIP3    H133221   4.323   4.141  14.583 -0.4183 -0.4361 -0.0518
 3910TIP3    H233222   4.391   4.146  14.448  0.0528 -1.9563  0.1143
 3911TIP3   OH233223   6.101   2.521  17.124  0.1191  0.2108 -0.1798
 3911TIP3    H133224   6.127   2.453  17.062  0.9643 -1.5824  2.0535
 3911TIP3    H233225   6.053   2.585  17.071 -1.7461 -2.6986 -2.1448
 3912TIP3   OH233226   6.707   2.916  11.440  0.1570  0.3731 -0.0716
 3912TIP3    H133227   6.723   2.904  11.534  1.8484  1.1217 -0.2534
 3912TIP3    H233228   6.613   2.935  11.435 -0.0580 -0.1816  1.4157
 3913TIP3   OH233229   3.998   4.349  16.053  0.5506 -0.1326  0.1786
 3913TIP3    H133230   4.091   4.338  16.073  0.5688  0.6605  0.5407
 3913TIP3    H233231   3.979   4.441  16.074 -0.1928 -0.1500 -0.3787
 3914TIP3   OH233232   6.425   2.560   1.840 -0.1752 -0.0339  1.3671
 3914TIP3    H133233   6.356   2.494   1.836 -0.4442  0.2900  0.6493
 3914TIP3    H233234   6.381   2.640   1.867 -0.4502  0.6532 -0.9693
 3915TIP3   OH233235   1.574   3.861  12.580 -1.2033  0.5997 -0.2363
 3915TIP3    H133236   1.635   3.835  12.510 -0.5041 -0.3252  0.7128
 3915TIP3    H233237   1.529   3.938  12.545 -0.6563  0.3126 -1.5986
 3916TIP3   OH233238   3.002   0.049  16.583  0.2807  0.4261  0.2976
 3916TIP3    H133239   2.914   0.039  16.548  0.2428 -0.6637  0.6781
 3916TIP3    H233240   2.991   0.047  16.678  0.9077 -1.6317  0.3508
 3917TIP3   OH233241   6.257   4.938  16.917 -0.1172 -0.8090 -0.1363
 3917TIP3    H133242   6.329   4.953  16.979 -1.5539 -0.7601  1.5511
 3917TIP3    H233243   6.296   4.885  16.847  1.2627 -1.7832  1.3349
 3918TIP3   OH233244   0.578   0.696   6.028 -0.1719  0.0378 -0.2577
 3918TIP3    H133245   0.563   0.767   6.089  0.1874 -0.6691  0.6636
 3918TIP3    H233246   0.519   0.626   6.057  0.9152 -0.7643  0.0687
 3919TIP3   OH233247   5.434   6.127  11.265  0.1468  0.1700 -0.7764
 3919TIP3    H133248   5.383   6.133  11.346  0.9343 -0.6115 -0.2021
 3919TIP3    H233249   5.370   6.113  11.196 -0.5311  0.8173 -0.2793
 3920TIP3   OH233250   4.703   4.616  12.815 -0.1056  0.1381  0.5479
 3920TIP3    H133251   4.787   4.589  12.776  0.1861  1.3157  0.3199
 3920TIP3    H233252   4.640   4.608  12.743  0.4890  2.6117 -0.3304
 3921TIP3   OH233253   4.536   4.653  14.613 -0.4211 -0.6960  0.0528
 3921TIP3    H133254   4.561   4.695  14.530  1.7601  1.9818  1.9321
 3921TIP3    H233255   4.451   4.691  14.634 -1.5611 -2.3213 -1.5373
 3922TIP3   OH233256   5.640   4.658   6.276 -0.1526  0.3494 -0.0752
 3922TIP3    H133257   5.696   4.582   6.258 -1.5808 -0.5319 -0.9174
 3922TIP3    H233258   5.688   4.708   6.342  0.1839 -2.0053  1.5405
 3923TIP3   OH233259   0.597   2.030  12.189  0.0613 -0.0142  0.2203
 3923TIP3    H133260   0.596   2.125  12.206  1.4305  0.0707 -0.0992
 3923TIP3    H233261   0.620   2.024  12.096 -0.2144 -0.6606  0.1970
 3924TIP3   OH233262   2.936   5.890   4.040 -0.1824  0.6371 -0.0021
 3924TIP3    H133263   3.005   5.952   4.017  0.8800 -0.0019  1.3670
 3924TIP3    H233264   2.896   5.926   4.119  0.6852 -0.5788  1.0181
 3925TIP3   OH233265   0.548   3.227   5.728  0.4656 -0.4585  0.5095
 3925TIP3    H133266   0.499   3.151   5.698  1.2725  0.1089 -2.4405
 3925TIP3    H233267   0.622   3.191   5.777 -0.4681 -1.4553  1.1997
 3926TIP3   OH233268   3.380   1.375   5.278  0.2306 -0.6320 -0.1100
 3926TIP3    H133269   3.384   1.282   5.254  0.4975 -0.9390  1.0925
 3926TIP3    H233270   3.412   1.378   5.368 -0.3408  0.5571  0.0661
 3927TIP3   OH233271   0.906   1.977  11.165  0.2752  0.2329 -0.1975
 3927TIP3    H133272   0.842   2.030  11.212  0.1494  0.3371 -0.4906
 3927TIP3    H233273   0.855   1.929  11.100  0.7628  1.8565 -1.8181
 3928TIP3   OH233274   2.954   6.406   4.560  1.3185  0.6688 -0.7017
 3928TIP3    H133275   2.906   6.426   4.641  0.0510 -1.6185 -0.8753
 3928TIP3    H233276   3.046   6.424   4.583  0.8330  1.3363  0.8216
 3929TIP3   OH233277   2.390   6.063  16.186 -0.4964 -0.1856  0.0552
 3929TIP3    H133278   2.386   5.979  16.142 -1.1302 -0.5969  0.9070
 3929TIP3    H233279   2.385   6.043  16.279 -0.8618  0.8077  0.2615
 3930TIP3   OH233280   4.871   0.292   2.724  0.4403  0.2040 -0.2554
 3930TIP3    H133281   4.908   0.319   2.640  0.4435  0.7131 -0.0933
 3930TIP3    H233282   4.946   0.255   2.772  0.5612  0.4408 -0.2585
 3931TIP3   OH233283   2.429   2.597  14.693  0.0001 -0.0284  0.0451
 3931TIP3    H133284   2.509   2.650  14.687  1.2921 -1.6260  2.3680
 3931TIP3    H233285   2.358   2.661  14.704  1.3452  1.2841  1.2474
 3932TIP3   OH233286   4.370   2.188   5.537  0.2054  0.3051 -0.6338
 3932TIP3    H133287   4.461   2.168   5.556 -0.2272 -2.2162 -1.0083
 3932TIP3    H233288   4.365   2.193   5.442  0.2035  1.8008 -0.5644
 3933TIP3   OH233289   1.547   2.917  10.827 -0.5712 -0.3841  0.5894
 3933TIP3    H133290   1.624   2.863  10.810  0.6775  1.8402 -1.1419
 3933TIP3    H233291   1.528   2.959  10.743 -1.5729  1.7416  1.8166
 3934TIP3   OH233292   0.077   4.285  14.825  0.2095 -0.0693  0.0614
 3934TIP3    H133293   0.111   4.319  14.908  2.0183  0.5232 -0.8835
 3934TIP3    H233294  -0.006   4.331  14.813  1.6338  2.5524 -0.1816
 3935TIP3   OH233295   0.794   6.549   5.830  0.0057  0.0699 -0.0306
 3935TIP3    H133296   0.829   6.613   5.768 -0.3888 -0.6944 -1.0487
 3935TIP3    H233297   0.862   6.482   5.837 -1.4589 -1.7834 -2.5537
 3936TIP3   OH233298   5.572   3.589  16.035 -0.3249 -0.0921  0.1463
 3936TIP3    H133299   5.522   3.508  16.028 -1.8566  0.8810 -0.4637
 3936TIP3    H233300   5.627   3.578  16.113 -0.9507 -1.4683  0.3892
 3937TIP3   OH233301   0.529   4.266  14.476 -0.0868  0.5256  0.3487
 3937TIP3    H133302   0.548   4.276  14.569  1.3690 -0.0175  0.1205
 3937TIP3    H233303   0.459   4.201  14.473 -1.4620  1.9429  1.1573
 3938TIP3   OH233304   3.295   2.637   3.931 -0.0754  0.3933  0.0218
 3938TIP3    H133305   3.340   2.558   3.961  0.4515  0.5802 -0.2606
 3938TIP3    H233306   3.349   2.669   3.858 -0.3813  0.9106  0.0187
 3939TIP3   OH233307   3.630   3.209   3.709  0.8528  0.0888  0.1239
 3939TIP3    H133308   3.718   3.177   3.687  0.2125 -0.9543 -1.0276
 3939TIP3    H233309   3.586   3.133   3.746  0.2679  0.4595  0.1844
 3940TIP3   OH233310   4.065   0.054  14.343  0.4526 -0.0142 -0.2422
 3940TIP3    H133311   4.123   0.079  14.415  0.8141  0.0277 -0.5491
 3940TIP3    H233312   4.092  -0.035  14.320  1.3556  0.5363 -1.3451
 3941TIP3   OH233313   0.696   6.802   2.249 -0.0528 -0.1825  0.4602
 3941TIP3    H133314   0.655   6.717   2.267  1.1850 -1.1742 -1.2758
 3941TIP3    H233315   0.626   6.866   2.266 -1.6406 -1.6851 -0.2788
 3942TIP3   OH233316   2.783   4.793   0.791  0.5436  0.1614  0.1370
 3942TIP3    H133317   2.720   4.856   0.757  0.8039 -0.5140 -1.6615
 3942TIP3    H233318   2.869   4.834   0.777  0.7674 -0.9104 -1.8278
 3943TIP3   OH233319   3.297   5.619   1.784  0.0180  0.4357 -0.0024
 3943TIP3    H133320   3.208   5.582   1.786  0.5221 -0.8760 -0.8055
 3943TIP3    H233321   3.286   5.706   1.747 -0.9142  0.1851 -0.3430
 3944TIP3   OH233322   1.058   4.314  12.353 -0.0089  0.0435 -0.3014
 3944TIP3    H133323   0.968   4.318  12.319  0.4210 -0.1251 -1.4937
 3944TIP3    H233324   1.063   4.388  12.413 -1.0038 -0.0488 -0.0821
 3945TIP3   OH233325   0.275   4.759  13.006 -0.3761  0.3548  0.0667
 3945TIP3    H133326   0.182   4.756  13.029 -0.1986 -0.3732  0.7227
 3945TIP3    H233327   0.298   4.668  12.987 -0.1850  0.7605 -1.6926
 3946TIP3   OH233328   2.581   5.476  14.368 -0.0328 -0.2224 -0.0548
 3946TIP3    H133329   2.659   5.529  14.383  1.6510 -2.1643 -1.7247
 3946TIP3    H233330   2.570   5.475  14.273  0.5093 -3.5837 -0.1309
 3947TIP3   OH233331   6.801   4.650  13.659 -0.1103  0.3515 -0.5949
 3947TIP3    H133332   6.856   4.573  13.643  2.1785  1.9608 -0.7211
 3947TIP3    H233333   6.712   4.616  13.659  0.9289 -2.5626  0.8853
 3948TIP3   OH233334   3.888   5.400   4.283 -0.0819 -0.3821 -0.5368
 3948TIP3    H133335   3.824   5.331   4.300  1.3995 -1.3573  1.1186
 3948TIP3    H233336   3.846   5.455   4.216 -2.3075 -1.4543 -0.0587
 3949TIP3   OH233337   3.679   2.022  14.513  0.0370 -0.7056 -0.5297
 3949TIP3    H133338   3.673   2.023  14.608 -0.7509  0.4348 -0.5769
 3949TIP3    H233339   3.744   1.955  14.493 -0.0773 -1.2145  0.7928
 3950TIP3   OH233340   3.200   5.353  13.522 -0.0577  0.4216 -0.1079
 3950TIP3    H133341   3.210   5.421  13.456 -0.1937  0.3874 -0.1655
 3950TIP3    H233342   3.191   5.272  13.472  1.9736  0.1100  0.0020
 3951TIP3   OH233343   6.572   2.642   3.296 -0.4055  0.7580  0.0243
 3951TIP3    H133344   6.588   2.694   3.217  0.4828  0.9637  0.3313
 3951TIP3    H233345   6.482   2.610   3.287 -0.2343  0.6113 -1.1664
 3952TIP3   OH233346   6.264   2.422  12.913 -0.2190 -0.4325 -0.1431
 3952TIP3    H133347   6.303   2.492  12.861 -1.1608  0.3937  0.2396
 3952TIP3    H233348   6.334   2.357  12.922  0.0987 -0.3649 -2.0113
 3953TIP3   OH233349   4.066   1.895   5.231  0.7908 -0.8062 -0.1261
 3953TIP3    H133350   4.060   1.936   5.144 -0.3643 -0.9263 -0.1140
 3953TIP3    H233351   4.077   1.968   5.291  1.6046 -0.7210 -0.3675
 3954TIP3   OH233352   6.737   0.826   6.681  0.2170  0.2186  0.1002
 3954TIP3    H133353   6.749   0.911   6.723  0.5754  0.1612  0.1195
 3954TIP3    H233354   6.802   0.825   6.610  0.7308 -0.3457  0.5801
 3955TIP3   OH233355   1.402   4.793   1.185 -0.2313  0.4560 -0.4942
 3955TIP3    H133356   1.379   4.873   1.232 -0.8907  0.3603 -0.6414
 3955TIP3    H233357   1.487   4.812   1.145  0.7509  0.2404  1.4214
 3956TIP3   OH233358   3.427   3.205   2.992 -0.3227 -0.2397 -0.0893
 3956TIP3    H133359   3.511   3.158   2.994 -0.3725 -0.2942  1.1376
 3956TIP3    H233360   3.450   3.296   3.007 -0.3124  0.0212 -1.6136
 3957TIP3   OH233361   3.592   2.013   0.736  0.1315  0.3482  0.5901
 3957TIP3    H133362   3.637   1.980   0.814  0.7460  0.7268  0.3996
 3957TIP3    H233363   3.657   2.067   0.691  0.3966 -1.4039 -1.2005
 3958TIP3   OH233364   3.795   2.259   2.401 -0.2355 -0.6180 -0.0498
 3958TIP3    H133365   3.753   2.298   2.478  1.4050 -0.1384  0.6145
 3958TIP3    H233366   3.745   2.180   2.384 -1.0466 -0.3683  1.0987
 3959TIP3   OH233367   6.577   5.543  13.315  0.0834 -0.0853 -0.0601
 3959TIP3    H133368   6.585   5.491  13.394  1.8411 -0.5175 -0.5093
 3959TIP3    H233369   6.585   5.481  13.243 -0.4925  0.4417 -0.5951
 3960TIP3   OH233370   3.855   1.278  15.376 -0.1588 -0.4389 -0.2410
 3960TIP3    H133371   3.769   1.260  15.338 -0.8918 -2.6990  2.3293
 3960TIP3    H233372   3.917   1.240  15.313 -1.1018 -0.1832 -1.3518
 3961TIP3   OH233373   0.029   2.390  15.177  0.0500  0.1156  0.2257
 3961TIP3    H133374   0.025   2.407  15.271  2.4120 -1.4447  0.6536
 3961TIP3    H233375  -0.045   2.331  15.161  0.3331 -0.5568  1.3300
 3962TIP3   OH233376   1.414   5.790  11.335 -0.5543  0.7125  0.1247
 3962TIP3    H133377   1.495   5.764  11.378 -1.1822 -0.7856  0.4353
 3962TIP3    H233378   1.436   5.793  11.242 -1.1507 -3.8655 -0.2587
 3963TIP3   OH233379   6.227   3.485  10.651 -0.0400  0.2821  0.7302
 3963TIP3    H133380   6.241   3.507  10.743  0.7733  1.2087  0.3938
 3963TIP3    H233381   6.258   3.562  10.603  0.5022 -0.5974 -0.3615
 3964TIP3   OH233382   4.985   3.098   1.631  0.3541  0.6272  0.2991
 3964TIP3    H133383   5.057   3.105   1.568 -1.1712 -1.2394 -1.7294
 3964TIP3    H233384   4.972   3.003   1.642 -1.3060  0.9436  1.1903
 3965TIP3   OH233385   6.407   4.010  16.375 -0.0182  0.3967 -0.1407
 3965TIP3    H133386   6.373   4.048  16.294 -0.2070  1.0333  0.2361
 3965TIP3    H233387   6.367   3.923  16.380 -1.5239  1.0995  0.2524
 3966TIP3   OH233388   0.885   5.062  15.898  0.4455  0.6609  0.9789
 3966TIP3    H133389   0.892   4.994  15.830 -0.4530 -1.0105  2.4968
 3966TIP3    H233390   0.939   5.134  15.866 -0.2749  0.0785 -1.6964
 3967TIP3   OH233391   0.729   5.560  16.562  0.5062 -0.5112  0.0259
 3967TIP3    H133392   0.823   5.570  16.578  0.5428  0.7874 -0.9646
 3967TIP3    H233393   0.694   5.649  16.565 -0.5159 -0.8738 -0.7360
 3968TIP3   OH233394   3.387   2.322   0.255  0.8215  0.1603 -0.5498
 3968TIP3    H133395   3.460   2.350   0.201  1.3384 -1.1616 -0.5503
 3968TIP3    H233396   3.394   2.227   0.257  1.1995  0.2025  2.3422
 3969TIP3   OH233397   5.920   4.477  15.016  0.0927 -0.2926 -0.3167
 3969TIP3    H133398   5.834   4.494  14.978 -0.2740 -1.1176  0.1095
 3969TIP3    H233399   5.947   4.393  14.978  2.0137  1.3419 -2.6830
 3970TIP3   OH233400   4.175   1.671   2.871 -0.6246  0.0589  0.4707
 3970TIP3    H133401   4.109   1.665   2.940 -0.1707 -2.7437  0.7262
 3970TIP3    H233402   4.138   1.623   2.798  0.4372 -0.1386  0.0474
 3971TIP3   OH233403   2.310   2.591   0.659  0.3518 -0.0808  0.3732
 3971TIP3    H133404   2.231   2.636   0.629 -0.1149 -1.5829 -0.7113
 3971TIP3    H233405   2.381   2.632   0.609 -0.1668 -1.0656 -1.2230
 3972TIP3   OH233406   4.892   2.105  13.211 -0.4333  0.0644 -0.2297
 3972TIP3    H133407   4.959   2.120  13.278  1.4804 -0.2953 -1.9998
 3972TIP3    H233408   4.893   2.185  13.158  0.9119 -1.1933 -2.1804
 3973TIP3   OH233409   2.411   0.882  16.117 -0.2331 -0.1894  0.1414
 3973TIP3    H133410   2.335   0.919  16.072  0.0897  0.9732  0.5331
 3973TIP3    H233411   2.431   0.802  16.069  0.6074  1.4105 -2.3285
 3974TIP3   OH233412   3.037   2.088  15.055 -0.4765  0.1271 -0.4011
 3974TIP3    H133413   3.012   2.180  15.067  0.1652  0.5226 -1.9452
 3974TIP3    H233414   3.078   2.063  15.137 -1.4984  0.9519  0.3693
 3975TIP3   OH233415   6.686   6.355   6.352 -0.5298 -0.8064 -0.0869
 3975TIP3    H133416   6.755   6.361   6.418 -0.5014 -0.7359 -0.1220
 3975TIP3    H233417   6.686   6.263   6.326  0.9729 -0.4221 -1.5930
 3976TIP3   OH233418   6.722   2.618   2.340 -0.3774 -0.0172 -0.0103
 3976TIP3    H133419   6.674   2.675   2.400 -2.8612 -2.5960  0.5201
 3976TIP3    H233420   6.681   2.634   2.255 -1.8731 -1.7881  0.3411
 3977TIP3   OH233421   3.784   1.606  12.067  0.2547 -0.2798  0.0093
 3977TIP3    H133422   3.800   1.643  12.154 -1.9465  0.0830  0.2777
 3977TIP3    H233423   3.765   1.514  12.084 -1.0667 -0.0186  0.0298
 3978TIP3   OH233424   6.813   4.269   5.204 -0.0948  0.4309 -0.5258
 3978TIP3    H133425   6.721   4.249   5.188 -0.1127  1.3822 -1.6879
 3978TIP3    H233426   6.845   4.301   5.119  0.6244  2.6795  0.5641
 3979TIP3   OH233427   6.802   6.219  12.536 -0.2625  0.0379  0.3477
 3979TIP3    H133428   6.711   6.241  12.514 -0.6355 -1.6933  0.0813
 3979TIP3    H233429   6.801   6.124  12.548  1.6988 -0.1200 -0.5567
 3980TIP3   OH233430   4.902   0.767   5.457 -0.1810 -0.5368 -0.2482
 3980TIP3    H133431   4.911   0.862   5.468 -2.6263 -0.3204  0.1351
 3980TIP3    H233432   4.889   0.734   5.545 -0.6701 -1.0574 -0.5132
 3981TIP3   OH233433   1.742   3.875  13.132  0.0139  0.3615  0.0657
 3981TIP3    H133434   1.728   3.965  13.160 -2.7798  0.1716 -0.5113
 3981TIP3    H233435   1.654   3.837  13.129  1.0706 -2.1723 -0.4015
 3982TIP3   OH233436   4.143   6.327  11.394 -0.4121  0.2269 -0.5108
 3982TIP3    H133437   4.150   6.404  11.451 -4.5013  0.0930  0.3298
 3982TIP3    H233438   4.129   6.364  11.307  0.4599  0.4276 -0.5695
 3983TIP3   OH233439   2.427   6.155   1.579 -0.2115 -0.4004 -0.1522
 3983TIP3    H133440   2.488   6.128   1.510 -0.6109  1.9283 -1.4648
 3983TIP3    H233441   2.341   6.154   1.538 -0.3372  2.0312 -0.0460
 3984TIP3   OH233442   5.934   3.122   4.276  0.1864  0.3903  0.2021
 3984TIP3    H133443   5.926   3.168   4.359  0.4602  0.1579  0.3582
 3984TIP3    H233444   5.847   3.128   4.237  0.1076  0.6648  0.4166
 3985TIP3   OH233445   4.896   3.746  13.044 -0.3544  0.0993 -0.0305
 3985TIP3    H133446   4.836   3.817  13.070 -1.0669  0.4085 -2.4363
 3985TIP3    H233447   4.843   3.691  12.987  0.6694 -1.5471  0.5950
 3986TIP3   OH233448   0.724   2.508   0.121  0.0205  0.3731  0.0601
 3986TIP3    H133449   0.804   2.554   0.147  0.2638  0.5662 -0.9905
 3986TIP3    H233450   0.744   2.472   0.035  0.0001 -2.1610  1.0868
 3987TIP3   OH233451   3.783   4.216  15.271 -0.0268  0.4590 -0.4560
 3987TIP3    H133452   3.829   4.292  15.234  0.4013  0.0665 -0.7340
 3987TIP3    H233453   3.853   4.156  15.296 -0.2795  0.9486  1.5202
 3988TIP3   OH233454   5.777   6.705  15.528 -0.1087 -0.2963 -0.2128
 3988TIP3    H133455   5.724   6.772  15.572  3.1394  1.2341  1.5205
 3988TIP3    H233456   5.747   6.623  15.566 -0.5674  0.6293  1.5102
 3989TIP3   OH233457   1.504   4.272   1.467  0.0993 -0.5758 -0.9476
 3989TIP3    H133458   1.464   4.356   1.448  0.7306 -0.4229 -1.6430
 3989TIP3    H233459   1.450   4.234   1.537  0.0663  0.5756 -0.3472
 3990TIP3   OH233460   2.675   3.085  16.094  0.2798  0.0275  0.5263
 3990TIP3    H133461   2.616   3.087  16.169  0.8665  1.0585  0.9638
 3990TIP3    H233462   2.625   3.126  16.023 -0.4070 -1.2708  0.2361
 3991TIP3   OH233463   6.594   2.212  12.363 -0.3501 -0.3185 -0.1945
 3991TIP3    H133464   6.502   2.236  12.363 -0.9157 -2.3633 -2.2588
 3991TIP3    H233465   6.612   2.187  12.454 -1.4116  1.4560  0.5375
 3992TIP3   OH233466   0.181   1.540   2.450 -0.2736 -0.2926 -0.4361
 3992TIP3    H133467   0.221   1.622   2.421 -0.0292 -0.4112 -0.4405
 3992TIP3    H233468   0.117   1.520   2.382 -0.1413 -0.2453 -0.5764
 3993TIP3   OH233469   2.506   3.951  15.627 -0.1913 -0.1497 -0.2436
 3993TIP3    H133470   2.454   4.006  15.569  0.0261 -0.4379 -0.7170
 3993TIP3    H233471   2.573   4.009  15.661 -1.1524  0.3667  0.8118
 3994TIP3   OH233472   1.725   3.874   3.435 -0.2939 -0.6742 -0.3939
 3994TIP3    H133473   1.738   3.962   3.471  0.5195 -0.6115 -0.8452
 3994TIP3    H233474   1.642   3.879   3.388 -0.0843 -0.0554 -0.7012
 3995TIP3   OH233475   1.367   3.209   0.297 -0.1132 -0.8181 -1.1641
 3995TIP3    H133476   1.302   3.246   0.237  0.1932 -0.2347 -1.1422
 3995TIP3    H233477   1.366   3.115   0.279 -1.2179 -0.8599 -0.9149
 3996TIP3   OH233478   0.610   6.508   4.589 -0.1253 -0.1767 -0.1127
 3996TIP3    H133479   0.654   6.578   4.637 -0.0625 -0.1433 -0.2176
 3996TIP3    H233480   0.520   6.540   4.577  0.5155  0.9282 -2.1995
 3997TIP3   OH233481   0.171   5.373   0.350  0.4903 -0.4456 -0.0280
 3997TIP3    H133482   0.079   5.355   0.367  1.2179 -2.9043  1.7210
 3997TIP3    H233483   0.201   5.298   0.298  1.5642  0.2061 -0.3744
 3998TIP3   OH233484   2.803   2.678  14.644 -0.3043  0.4328 -0.3813
 3998TIP3    H133485   2.832   2.598  14.688 -1.8128 -0.7391 -1.4460
 3998TIP3    H233486   2.872   2.742  14.661  0.6756 -0.9449  0.9235
 3999TIP3   OH233487   1.592   6.054  11.274 -0.3162  0.1626 -0.4120
 3999TIP3    H133488   1.529   6.119  11.305  0.6561  0.1025  1.8142
 3999TIP3    H233489   1.539   5.992  11.223 -2.4267 -0.7485  2.7123
 4000TIP3   OH233490   1.577   1.120   0.926  0.1249 -0.2353  0.3404
 4000TIP3    H133491   1.645   1.097   0.863  0.0846 -0.2954  0.3196
 4000TIP3    H233492   1.552   1.037   0.967 -1.0124 -0.4370 -0.7281
 4001TIP3   OH233493   0.193   4.350   1.964  0.2805  0.2705  0.3021
 4001TIP3    H133494   0.264   4.290   1.942  0.3152 -0.0602  1.2775
 4001TIP3    H233495   0.150   4.369   1.881 -0.1751 -1.6463  0.0773
 4002TIP3   OH233496   3.333   5.179   1.340 -0.5266 -0.2100 -0.0706
 4002TIP3    H133497   3.353   5.194   1.432  0.2115  0.2312 -0.2978
 4002TIP3    H233498   3.340   5.084   1.329  1.0942 -0.1157 -0.0506
 4003TIP3   OH233499   6.176   6.106   4.666 -0.5413  0.6499  0.0147
 4003TIP3    H133500   6.234   6.147   4.730 -1.3228  1.0065  0.5097
 4003TIP3    H233501   6.181   6.013   4.686 -0.5809  0.7360  0.4340
 4004TIP3   OH233502   5.302   0.351  13.389  0.4117  0.3234  0.0818
 4004TIP3    H133503   5.261   0.431  13.357 -0.8620  0.0103  0.9008
 4004TIP3    H233504   5.299   0.359  13.484  0.0089 -0.8355  0.1754
 4005TIP3   OH233505   6.144   2.887   2.436 -0.6695 -0.1496  0.3509
 4005TIP3    H133506   6.169   2.805   2.393  2.7060  1.5735 -1.0858
 4005TIP3    H233507   6.155   2.869   2.530 -2.3776 -2.0619  0.2270
 4006TIP3   OH233508   5.199   4.159   1.819  0.6324 -0.3394  0.6183
 4006TIP3    H133509   5.172   4.122   1.735  1.1491  0.5285  0.0537
 4006TIP3    H233510   5.169   4.096   1.884 -1.6754 -0.0027 -0.0646
 4007TIP3   OH233511   3.190   5.984  16.840 -0.5165  0.4253  0.6526
 4007TIP3    H133512   3.117   5.932  16.808 -1.1793  1.2372  0.8251
 4007TIP3    H233513   3.184   6.067  16.792  0.8550  0.1588 -0.0312
 4008TIP3   OH233514   2.153   3.931   5.426 -0.4496  0.1000 -0.0786
 4008TIP3    H133515   2.200   4.013   5.442 -2.1039  1.0388  0.0678
 4008TIP3    H233516   2.212   3.863   5.460  1.5367  1.0868 -1.3985
 4009TIP3   OH233517   1.767   1.125   3.715 -0.0487 -0.5843  0.0236
 4009TIP3    H133518   1.747   1.160   3.628  0.9948 -1.5305 -0.6117
 4009TIP3    H233519   1.854   1.159   3.734 -0.4340 -0.0625  0.8813
 4010TIP3   OH233520   0.980   4.080   5.898  0.6408  0.0447  0.4149
 4010TIP3    H133521   1.016   4.038   5.976  1.4670  0.9833  0.5494
 4010TIP3    H233522   1.042   4.058   5.828 -0.8465 -1.9977 -0.3069
 4011TIP3   OH233523   4.503   5.499   5.727 -0.0760 -0.0872 -0.5785
 4011TIP3    H133524   4.480   5.508   5.634  0.9736 -0.0621 -0.8451
 4011TIP3    H233525   4.558   5.576   5.745  0.3399 -0.4901 -0.1305
 4012TIP3   OH233526   1.916   1.752   0.937 -0.2708  0.3010  0.3928
 4012TIP3    H133527   1.978   1.746   0.864  0.8701 -0.7822  1.4190
 4012TIP3    H233528   1.924   1.842   0.967  0.7083  0.2207  0.4093
 4013TIP3   OH233529   6.688   4.428  17.147 -0.2818  0.1917 -0.2945
 4013TIP3    H133530   6.678   4.523  17.140  0.0088  0.2671  0.2848
 4013TIP3    H233531   6.600   4.395  17.165 -0.6941  0.1818 -2.2714
 4014TIP3   OH233532   3.658   5.460  14.321  0.4136  0.1457 -0.2176
 4014TIP3    H133533   3.736   5.441  14.373  0.8927  1.6468 -0.3703
 4014TIP3    H233534   3.678   5.542  14.277 -1.3515  0.6864 -0.0417
 4015TIP3   OH233535   6.120   5.553  10.306  0.4542  0.4172 -0.2334
 4015TIP3    H133536   6.073   5.611  10.365 -0.8962  0.4092 -1.2792
 4015TIP3    H233537   6.084   5.572  10.219  1.9240 -0.0386 -0.9704
 4016TIP3   OH233538   1.809   0.950  14.382 -0.0523 -0.3560 -0.3388
 4016TIP3    H133539   1.786   1.019  14.443 -0.0969 -1.1957  0.6025
 4016TIP3    H233540   1.812   0.993  14.297 -0.2906  0.7534  0.2120
 4017TIP3   OH233541   4.753   6.615   3.796  0.3828  0.2516  0.5997
 4017TIP3    H133542   4.660   6.608   3.775  0.1180  1.4558  1.3743
 4017TIP3    H233543   4.794   6.638   3.712  0.2124 -1.9426 -0.1185
 4018TIP3   OH233544   6.565   6.583   0.114  0.5083 -0.5364 -0.8589
 4018TIP3    H133545   6.474   6.605   0.136  0.5793  0.5775 -1.6057
 4018TIP3    H233546   6.583   6.502   0.161 -0.7613 -0.5658 -0.4144
 4019TIP3   OH233547   0.672   1.048  13.236  0.4197 -0.3648 -0.2225
 4019TIP3    H133548   0.738   1.080  13.174 -0.8628  1.6015 -0.5891
 4019TIP3    H233549   0.717   1.049  13.320  0.5824  1.9864 -0.2963
 4020TIP3   OH233550   2.952   2.895   4.449 -0.6461 -0.4890  0.4148
 4020TIP3    H133551   2.929   2.816   4.498 -1.0474 -1.2066 -0.9178
 4020TIP3    H233552   2.873   2.916   4.400 -0.5101  0.7014  0.7033
 4021TIP3   OH233553   2.896   3.060   0.315 -0.2832  0.4546 -0.2460
 4021TIP3    H133554   2.973   3.114   0.296 -0.4569  0.8016  0.0490
 4021TIP3    H233555   2.839   3.115   0.369 -0.2985 -0.1450  0.3655
 4022TIP3   OH233556   0.184   4.858   5.597  0.5132  0.0856 -0.1715
 4022TIP3    H133557   0.199   4.781   5.652 -0.0451  0.8401  1.0457
 4022TIP3    H233558   0.148   4.924   5.656  1.2821  1.4038 -1.1330
 4023TIP3   OH233559   3.574   1.740  11.922  0.0458 -0.0820 -0.2762
 4023TIP3    H133560   3.648   1.698  11.966 -0.7884  0.6380  1.8566
 4023TIP3    H233561   3.602   1.748  11.830  1.5550 -2.1659 -0.0270
 4024TIP3   OH233562   6.193   2.633   2.332  0.0263 -0.4992  0.1220
 4024TIP3    H133563   6.188   2.569   2.261  0.8337 -1.0544  0.5550
 4024TIP3    H233564   6.154   2.588   2.407  2.8626 -1.4755  1.1051
 4025TIP3   OH233565   3.163   4.727  12.355  0.0605 -0.8201  0.5925
 4025TIP3    H133566   3.158   4.738  12.450 -1.8503  2.4089  0.1781
 4025TIP3    H233567   3.247   4.765  12.330 -1.4218  2.5434  0.5206
 4026TIP3   OH233568   0.738   5.555   0.038 -0.1957  0.0441 -0.2546
 4026TIP3    H133569   0.784   5.591  -0.037 -0.7349 -0.2985 -0.7528
 4026TIP3    H233570   0.665   5.614   0.052  0.4877  0.6930  0.6534
 4027TIP3   OH233571   5.784   6.333   1.191 -0.4715 -0.6290 -0.4064
 4027TIP3    H133572   5.837   6.281   1.252 -0.6429  0.0982  0.3666
 4027TIP3    H233573   5.708   6.360   1.242 -0.3198  0.4913 -0.7558
 4028TIP3   OH233574   4.158   5.429   2.165  0.8975 -0.2234 -0.7803
 4028TIP3    H133575   4.099   5.358   2.191 -0.5121  0.9562 -0.7331
 4028TIP3    H233576   4.178   5.474   2.247  2.8160 -1.3133 -0.6186
 4029TIP3   OH233577   6.481   2.807  12.036 -0.7914 -0.0637 -0.0298
 4029TIP3    H133578   6.402   2.850  12.002 -1.0148  1.1717  2.0159
 4029TIP3    H233579   6.546   2.877  12.042 -0.6266 -0.3543  1.6879
 4030TIP3   OH233580   5.402   1.354  17.047  0.1104 -0.0404  0.1685
 4030TIP3    H133581   5.476   1.403  17.083 -0.6465  0.5644  0.9023
 4030TIP3    H233582   5.395   1.277  17.103  0.1502 -0.0742  0.1285
 4031TIP3   OH233583   2.743   5.601   3.149  0.2962 -0.1646  0.3578
 4031TIP3    H133584   2.748   5.675   3.210 -0.1840 -1.0112  1.4530
 4031TIP3    H233585   2.834   5.585   3.123  0.3599  1.0741 -0.2232
 4032TIP3   OH233586   4.531   0.554  16.607 -0.2739  0.4329 -0.0790
 4032TIP3    H133587   4.522   0.529  16.515  0.9715  0.6695 -0.2754
 4032TIP3    H233588   4.474   0.494  16.655 -0.6705  0.0967 -0.9714
 4033TIP3   OH233589   1.372   0.708   4.057 -0.1161  0.3976 -0.1164
 4033TIP3    H133590   1.403   0.795   4.082  0.0283  0.9893 -2.2619
 4033TIP3    H233591   1.320   0.723   3.977 -1.1798 -1.3142  0.2192
 4034TIP3   OH233592   2.497   1.839  15.907  0.8429  0.4753 -0.2757
 4034TIP3    H133593   2.431   1.771  15.896  0.0800  1.1476  0.0479
 4034TIP3    H233594   2.517   1.838  16.001 -0.0593  1.4979 -0.0609
 4035TIP3   OH233595   6.565   0.462  13.770 -0.0997  0.0340 -0.6399
 4035TIP3    H133596   6.519   0.465  13.685 -0.4943 -2.5971 -0.5697
 4035TIP3    H233597   6.498   0.434  13.832 -0.2302  3.4922  0.9261
 4036TIP3   OH233598   4.195   0.436   3.134  0.1212 -0.5403  0.5619
 4036TIP3    H133599   4.136   0.364   3.153 -1.1450 -0.4739 -2.7494
 4036TIP3    H233600   4.143   0.515   3.149  0.3644 -0.4112  0.7288
 4037TIP3   OH233601   4.902   2.906  13.623 -0.3711 -0.3377  0.0022
 4037TIP3    H133602   4.865   2.817  13.623  2.0090 -1.3841 -1.3242
 4037TIP3    H233603   4.956   2.909  13.701 -0.7322  0.0794  0.2352
 4038TIP3   OH233604   1.692   4.758  15.922  0.0547  0.6741  0.5882
 4038TIP3    H133605   1.719   4.828  15.982  1.4688  1.1422 -0.5686
 4038TIP3    H233606   1.657   4.804  15.845 -0.9771  0.0842  0.6876
 4039TIP3   OH233607   2.245   0.264   2.146  0.3010  0.2170 -0.1065
 4039TIP3    H133608   2.194   0.284   2.225 -1.0721 -2.1439 -0.3436
 4039TIP3    H233609   2.284   0.178   2.164 -1.6479 -1.3068 -2.7291
 4040TIP3   OH233610   2.752   4.755  17.216  0.0019 -0.9648 -0.2468
 4040TIP3    H133611   2.742   4.850  17.226 -0.0708 -1.0465  0.4717
 4040TIP3    H233612   2.689   4.732  17.147  0.9518 -0.3076 -1.3540
 4041TIP3   OH233613   2.925   6.796   4.255 -0.7789 -0.0959 -0.2478
 4041TIP3    H133614   2.830   6.793   4.264 -0.7547 -2.9226 -0.3676
 4041TIP3    H233615   2.953   6.707   4.276  1.7752  0.4944 -1.0328
 4042TIP3   OH233616   1.346   1.745  13.867  0.3328 -0.7606 -0.5664
 4042TIP3    H133617   1.384   1.824  13.829  0.4680 -1.6313 -2.2376
 4042TIP3    H233618   1.282   1.779  13.931  0.5304  0.7020 -1.1175
 4043TIP3   OH233619   4.231   0.900  14.201  0.1867 -0.0595  0.3416
 4043TIP3    H133620   4.136   0.895  14.210  0.0891  2.5371  1.0117
 4043TIP3    H233621   4.246   0.935  14.114  0.5895 -1.4314 -0.1647
 4044TIP3   OH233622   6.542   4.368   3.912  0.4607  0.0705  0.2232
 4044TIP3    H133623   6.511   4.282   3.882 -0.5831  0.3776  0.3964
 4044TIP3    H233624   6.502   4.379   3.999 -0.5960  1.3603 -0.4141
 4045TIP3   OH233625   1.775   4.035  13.836 -0.5520 -0.5267 -0.3196
 4045TIP3    H133626   1.714   3.961  13.842  0.5762 -1.6642 -2.3867
 4045TIP3    H233627   1.861   3.997  13.851 -0.1166  0.6682  0.2778
 4046TIP3   OH233628   3.257   3.007   3.459 -0.4647 -0.4408 -0.4848
 4046TIP3    H133629   3.307   3.006   3.378  0.9030 -0.4144  0.3560
 4046TIP3    H233630   3.275   2.922   3.499  1.7463  0.9194  1.5210
 4047TIP3   OH233631   6.036   6.760  14.918  1.1077  0.2048 -0.5649
 4047TIP3    H133632   6.069   6.813  14.846 -1.1275  1.1786 -0.8995
 4047TIP3    H233633   5.955   6.803  14.945  1.1916 -0.9222  1.6294
 4048TIP3   OH233634   6.126   1.551   5.005 -0.2869  0.4690  0.1966
 4048TIP3    H133635   6.177   1.501   5.068  0.1278  0.5401 -0.0767
 4048TIP3    H233636   6.189   1.574   4.936 -0.0289  2.9665  1.2192
 4049TIP3   OH233637   2.281   3.314   2.890  0.0421 -0.0238  0.0585
 4049TIP3    H133638   2.235   3.305   2.973  0.4041 -2.2468  0.0414
 4049TIP3    H233639   2.372   3.331   2.914 -0.1121  0.7672  0.0996
 4050TIP3   OH233640   1.523   1.582  15.997  0.2594  0.4168 -0.4183
 4050TIP3    H133641   1.437   1.586  15.955 -0.7193  1.2660  1.6007
 4050TIP3    H233642   1.519   1.647  16.067  0.8240 -2.9146  2.8528
 4051TIP3   OH233643   5.626   0.320  15.921  0.1439 -0.3676 -0.4326
 4051TIP3    H133644   5.552   0.373  15.949  0.9760 -0.9363  3.0983
 4051TIP3    H233645   5.599   0.229  15.938  1.3700 -0.6229  0.2212
 4052TIP3   OH233646   3.860   2.402   4.908  0.0131 -0.5940 -0.0497
 4052TIP3    H133647   3.871   2.383   5.001  3.9217 -0.7887 -0.4531
 4052TIP3    H233648   3.811   2.484   4.906 -2.7058 -2.1102  2.0611
 4053TIP3   OH233649   4.555   5.068   0.422  0.1154  0.1145  0.1211
 4053TIP3    H133650   4.559   4.978   0.390  1.6685  0.2371 -0.0448
 4053TIP3    H233651   4.482   5.068   0.484 -0.9159 -0.8628 -1.0713
 4054TIP3   OH233652   3.680   5.660   1.683  0.0478  0.1672 -0.1518
 4054TIP3    H133653   3.721   5.746   1.694  1.2196 -0.1973 -1.5354
 4054TIP3    H233654   3.586   5.679   1.680  0.2350  1.2717  0.6106
 4055TIP3   OH233655   3.244   4.470  15.701 -0.9870  0.5130 -0.3260
 4055TIP3    H133656   3.206   4.556  15.682  2.2004  1.6393 -1.9884
 4055TIP3    H233657   3.314   4.487  15.764 -0.6551 -0.9364 -0.2696
 4056TIP3   OH233658   1.104   0.333  16.709 -0.2940 -0.0905  0.8426
 4056TIP3    H133659   1.162   0.316  16.783 -3.0101 -0.8512  2.8672
 4056TIP3    H233660   1.136   0.275  16.640  1.7594  0.0099  1.6841
 4057TIP3   OH233661   2.599   3.882  16.381 -0.1802 -0.5563 -0.3170
 4057TIP3    H133662   2.578   3.836  16.462  0.6916  0.0317  0.2438
 4057TIP3    H233663   2.688   3.854  16.360 -0.0463  0.0399 -0.5485
 4058TIP3   OH233664   5.881   0.282  13.646 -0.3927 -0.2582  0.4699
 4058TIP3    H133665   5.856   0.317  13.560 -1.5403 -0.5856  0.6647
 4058TIP3    H233666   5.962   0.328  13.668 -0.3737  0.2109 -0.5491
 4059TIP3   OH233667   6.427   5.732   2.302 -0.5431 -0.0756  0.1382
 4059TIP3    H133668   6.338   5.709   2.276 -0.4486 -0.1655 -0.1079
 4059TIP3    H233669   6.448   5.810   2.251  0.6229 -1.7882 -2.0968
 4060TIP3   OH233670   3.073   3.162   5.092 -0.2527 -0.6007 -0.0633
 4060TIP3    H133671   3.049   3.092   5.152 -3.0415 -0.5499 -1.0598
 4060TIP3    H233672   3.104   3.117   5.013  3.5920 -0.6689  1.3770
 4061TIP3   OH233673   2.708   2.019   1.433  0.4325  0.2220 -0.7809
 4061TIP3    H133674   2.626   1.996   1.390  0.8352 -0.0261 -1.4101
 4061TIP3    H233675   2.706   2.115   1.437 -0.3834  0.1682  0.1778
 4062TIP3   OH233676   2.287   4.034   5.022 -0.4868  0.5933  0.1305
 4062TIP3    H133677   2.294   3.962   5.084 -0.6800  0.6860  0.2600
 4062TIP3    H233678   2.302   3.993   4.936  0.2592  0.5479  0.2783
 4063TIP3   OH233679   5.008   4.248   4.716  0.0541 -0.1656 -0.3794
 4063TIP3    H133680   5.017   4.172   4.774 -1.1680 -1.6404 -2.0312
 4063TIP3    H233681   4.952   4.309   4.764 -1.9559 -1.8807 -0.4377
 4064TIP3   OH233682   6.376   5.972   2.658  0.0247  0.4061 -0.2678
 4064TIP3    H133683   6.399   5.968   2.751  0.1550  2.5259 -0.1835
 4064TIP3    H233684   6.348   5.884   2.636  1.3834 -0.4772  1.4285
 4065TIP3   OH233685   6.722   3.237   0.724 -0.0818  0.1724 -0.0385
 4065TIP3    H133686   6.801   3.244   0.670 -0.7496  0.9559 -0.9072
 4065TIP3    H233687   6.753   3.194   0.804  1.2127  0.3877 -0.4038
 4066TIP3   OH233688   3.656   0.078  12.569  0.2192 -0.3127 -0.2061
 4066TIP3    H133689   3.601   0.066  12.491 -0.3258  0.4490  0.0601
 4066TIP3    H233690   3.734   0.025  12.552  1.1155  1.6366 -2.2449
 4067TIP3   OH233691   4.044   2.621   1.555 -0.5693 -0.5745  0.5297
 4067TIP3    H133692   4.083   2.534   1.564 -1.3938 -0.9490  0.5127
 4067TIP3    H233693   4.057   2.661   1.641 -0.3474 -0.7818  0.5945
 4068TIP3   OH233694   3.401   0.333  15.413 -0.0422 -0.3765  0.0613
 4068TIP3    H133695   3.441   0.273  15.477  3.3165  1.3704 -0.2883
 4068TIP3    H233696   3.371   0.407  15.465 -1.7247 -1.0980  0.1553
 4069TIP3   OH233697   5.384   2.467   1.629  0.0477  0.2326 -0.3233
 4069TIP3    H133698   5.346   2.388   1.591 -2.9872  1.8877 -0.9545
 4069TIP3    H233699   5.377   2.454   1.723  0.5383 -0.6951 -0.4138
 4070TIP3   OH233700   3.499   0.962   2.534  0.1657 -0.0320 -0.5040
 4070TIP3    H133701   3.491   0.873   2.500 -1.0475  0.9795 -2.9869
 4070TIP3    H233702   3.591   0.986   2.519  0.5209 -0.8804  0.2684
 4071TIP3   OH233703   3.922   0.071   1.506  0.3327 -0.3080  0.3554
 4071TIP3    H133704   3.907   0.089   1.599  2.0497 -0.7348  0.7186
 4071TIP3    H233705   3.886   0.148   1.461 -0.4822 -0.0896  1.3626
 4072TIP3   OH233706   4.689   1.769   3.201 -0.6491 -0.5960  0.3389
 4072TIP3    H133707   4.773   1.809   3.219 -0.4768 -0.1675 -1.2940
 4072TIP3    H233708   4.625   1.825   3.245 -0.1189 -0.6711  1.2059
 4073TIP3   OH233709   4.630   5.670  17.084 -0.1252 -0.1759  0.8847
 4073TIP3    H133710   4.606   5.580  17.059  1.6648 -0.3926 -0.1079
 4073TIP3    H233711   4.717   5.662  17.122  0.4448  1.2568 -0.0640
 4074TIP3   OH233712   2.396   5.505   6.509 -0.6494 -0.2640 -0.1289
 4074TIP3    H133713   2.424   5.580   6.457  1.6083 -0.9719  0.0027
 4074TIP3    H233714   2.431   5.429   6.462 -1.2189 -1.1054  0.7832
 4075TIP3   OH233715   2.078   2.831  13.142  0.0390 -0.9473  0.4857
 4075TIP3    H133716   2.122   2.906  13.104 -0.9038 -0.3004  0.6628
 4075TIP3    H233717   2.148   2.782  13.185  0.7298 -0.4270 -0.0300
 4076TIP3   OH233718   4.880   2.022  11.804 -0.1937 -0.6649  0.3480
 4076TIP3    H133719   4.806   1.988  11.755  1.3233 -1.5456 -1.4268
 4076TIP3    H233720   4.957   1.984  11.761  1.3452  1.1918  1.3448
 4077TIP3   OH233721   0.265   4.449  10.929 -0.0156 -0.5928  0.0267
 4077TIP3    H133722   0.169   4.456  10.929  0.0289  0.0944 -1.0700
 4077TIP3    H233723   0.294   4.519  10.871  1.1727 -0.6695  0.5098
 4078TIP3   OH233724   5.474   0.987   2.325  0.0296 -0.2445 -0.3484
 4078TIP3    H133725   5.397   0.931   2.320  0.7894 -1.3669  0.1515
 4078TIP3    H233726   5.547   0.928   2.304  0.9882  0.2118  1.6031
 4079TIP3   OH233727   6.544   2.416  11.331 -0.4457 -1.1568  0.0554
 4079TIP3    H133728   6.581   2.333  11.361  0.0129 -1.2769 -0.8421
 4079TIP3    H233729   6.602   2.483  11.368 -0.9146 -1.2133  0.9210
 4080TIP3   OH233730   4.600   1.885   3.679  0.5151 -0.2403 -0.1035
 4080TIP3    H133731   4.589   1.976   3.649 -1.1096 -0.6783 -0.8855
 4080TIP3    H233732   4.690   1.863   3.655  0.6028  0.8484 -0.8231
 4081TIP3   OH233733   4.348   6.289   5.250 -0.0234 -0.1649 -0.5261
 4081TIP3    H133734   4.354   6.372   5.298 -0.0608  0.0920 -0.9561
 4081TIP3    H233735   4.264   6.294   5.204  0.4442  0.0141 -1.3784
 4082TIP3   OH233736   5.415   5.221  16.763 -0.0442  0.3236  0.2687
 4082TIP3    H133737   5.486   5.240  16.701 -0.0772 -0.2369  0.0610
 4082TIP3    H233738   5.335   5.237  16.714 -0.0660  0.9789  0.5085
 4083TIP3   OH233739   3.538   3.129  14.231 -0.0174 -0.0335 -0.9210
 4083TIP3    H133740   3.512   3.095  14.317  1.1864 -0.5873 -0.7716
 4083TIP3    H233741   3.630   3.106  14.223 -0.0727  0.1884 -2.2870
 4084TIP3   OH233742   0.020   4.245   0.360 -0.2378 -0.5662  0.1607
 4084TIP3    H133743   0.045   4.153   0.372  1.6324 -0.4512 -2.4719
 4084TIP3    H233744  -0.067   4.241   0.321  0.1467 -1.2435 -0.6421
 4085TIP3   OH233745   1.369   2.979  13.632 -0.0383  0.2601  0.5600
 4085TIP3    H133746   1.454   3.022  13.622 -0.7301  1.5619  0.1851
 4085TIP3    H233747   1.327   3.025  13.704 -1.0024  0.5727 -0.1917
 4086TIP3   OH233748   0.089   5.762   4.953 -0.5592  0.3534 -0.4560
 4086TIP3    H133749   0.183   5.775   4.944 -0.5205  1.4019  1.1788
 4086TIP3    H233750   0.075   5.757   5.048 -2.2485  1.0808 -0.6474
 4087TIP3   OH233751   5.165   0.665   4.039 -0.7217  0.1004  0.2153
 4087TIP3    H133752   5.259   0.680   4.051 -0.1045 -1.3684 -2.3307
 4087TIP3    H233753   5.139   0.615   4.117  1.3535 -2.3126 -0.5313
 4088TIP3   OH233754   0.844   5.167  12.737 -0.0897 -0.0622 -0.3463
 4088TIP3    H133755   0.792   5.103  12.688  1.1088 -1.2790 -0.0828
 4088TIP3    H233756   0.935   5.136  12.726  0.4611  1.3654  0.1316
 4089TIP3   OH233757   6.802   4.670   6.246  0.1560  0.1899  0.1388
 4089TIP3    H133758   6.821   4.624   6.164 -0.7361 -1.2348  0.7110
 4089TIP3    H233759   6.871   4.736   6.253  1.8269 -1.4643 -0.3791
 4090TIP3   OH233760   1.635   3.323   1.153  0.5481  0.0216  1.0807
 4090TIP3    H133761   1.652   3.239   1.194  1.0799 -0.4212 -0.0411
 4090TIP3    H233762   1.649   3.308   1.060 -0.7292  0.9964  0.7160
 4091TIP3   OH233763   6.522   5.680   0.731  0.1672 -0.3440  0.5605
 4091TIP3    H133764   6.585   5.642   0.669 -1.4403  0.7090 -1.7901
 4091TIP3    H233765   6.545   5.773   0.734 -0.7593 -0.0989  0.2773
 4092TIP3   OH233766   0.103   3.434   1.139  0.6461 -0.4525  0.5534
 4092TIP3    H133767   0.086   3.526   1.116  1.4532 -0.8707 -1.9416
 4092TIP3    H233768   0.195   3.421   1.117  0.0521 -2.3481 -0.9832
 4093TIP3   OH233769   1.132   2.064  10.530 -0.2302  0.5941  0.3418
 4093TIP3    H133770   1.221   2.031  10.537  0.0618  1.2296 -0.3615
 4093TIP3    H233771   1.085   2.022  10.602  0.7859  0.7470  1.0953
 4094TIP3   OH233772   6.678   4.017  12.267 -0.5137 -0.9078  0.5067
 4094TIP3    H133773   6.653   4.060  12.349  2.1726  1.0684  0.3678
 4094TIP3    H233774   6.738   3.947  12.293  1.4932  0.6323  0.2139
 4095TIP3   OH233775   3.991   0.641  13.736  0.2140 -0.1648 -0.0504
 4095TIP3    H133776   4.031   0.724  13.710  2.6682 -0.6574  1.9302
 4095TIP3    H233777   4.060   0.576  13.724  0.0804 -1.0628  3.3881
 4096TIP3   OH233778   6.606   1.450  14.570  0.0285 -0.4359  0.2697
 4096TIP3    H133779   6.535   1.407  14.618 -0.6259  0.8501  0.4830
 4096TIP3    H233780   6.569   1.469  14.484  0.8646 -1.8035 -0.4044
 4097TIP3   OH233781   6.235   5.195   4.794 -0.1804 -0.3379 -0.3385
 4097TIP3    H133782   6.245   5.237   4.709  0.4209  0.1141 -0.0517
 4097TIP3    H233783   6.304   5.234   4.848  0.5456 -1.8653 -0.1280
 4098TIP3   OH233784   1.303   0.973  16.044 -0.4083 -0.1226 -0.1585
 4098TIP3    H133785   1.312   0.898  16.103  0.6279  0.3321  0.2644
 4098TIP3    H233786   1.332   0.940  15.959  2.1489  0.3816  0.4781
 4099TIP3   OH233787   2.732   0.712  11.880 -0.2164  0.4438  0.1215
 4099TIP3    H133788   2.669   0.783  11.890  0.3886  0.7112  2.4148
 4099TIP3    H233789   2.799   0.748  11.821  1.2429  2.6929  2.9722
 4100TIP3   OH233790   4.559   4.022   0.791  0.4165  0.4097 -0.1687
 4100TIP3    H133791   4.632   4.017   0.730 -2.3257 -0.7747 -3.5033
 4100TIP3    H233792   4.566   3.942   0.843  0.5267 -0.5517 -1.6335
 4101TIP3   OH233793   2.628   2.843   0.721  0.0116 -0.1103  0.0522
 4101TIP3    H133794   2.577   2.815   0.645  0.2509  1.7138 -0.8086
 4101TIP3    H233795   2.635   2.765   0.775 -1.7451 -0.9721 -0.9148
 4102TIP3   OH233796   3.377   2.415   5.974 -0.5268  0.3054  0.2265
 4102TIP3    H133797   3.398   2.485   5.912  2.0224  0.2976  1.0440
 4102TIP3    H233798   3.304   2.450   6.025 -1.3716  1.0816 -1.4713
 4103TIP3   OH233799   4.361   6.272   2.032  0.2581  0.5031 -0.2135
 4103TIP3    H133800   4.391   6.185   2.061  1.8991  0.1673 -2.7130
 4103TIP3    H233801   4.384   6.274   1.939 -1.5539  2.8828 -0.6300
 4104TIP3   OH233802   5.758   3.300   5.218 -0.2651 -0.4523  0.3268
 4104TIP3    H133803   5.679   3.330   5.264 -0.1007 -1.1586  1.0915
 4104TIP3    H233804   5.781   3.372   5.160 -0.6264  0.3681  1.1816
 4105TIP3   OH233805   4.385   5.690   1.554  0.2967  0.0412 -0.2887
 4105TIP3    H133806   4.360   5.636   1.629 -1.1063  0.9450 -0.0908
 4105TIP3    H233807   4.338   5.651   1.480 -0.9836  1.1777 -0.0857
 4106TIP3   OH233808   4.435   4.883  12.919 -0.0536 -0.0302  0.0295
 4106TIP3    H133809   4.344   4.885  12.948 -0.1002  1.9182 -0.1617
 4106TIP3    H233810   4.467   4.971  12.937  2.0844 -0.9797  0.9792
 4107TIP3   OH233811   5.893   1.802  14.971  0.1199 -0.0652 -0.2974
 4107TIP3    H133812   5.988   1.798  14.974  0.1018 -0.0106  0.3477
 4107TIP3    H233813   5.874   1.858  14.896  0.5936 -0.1365 -0.4704
 4108TIP3   OH233814   3.043   0.013  13.784  0.2215  0.1738 -0.0731
 4108TIP3    H133815   3.003  -0.031  13.859  2.3736 -2.0701 -0.1954
 4108TIP3    H233816   3.099   0.080  13.822  0.9120 -0.6200  0.3051
 4109TIP3   OH233817   4.826   3.515  12.886  0.7849 -0.3154  0.1156
 4109TIP3    H133818   4.871   3.443  12.931 -0.8545 -1.3449  0.1297
 4109TIP3    H233819   4.832   3.493  12.793 -0.6937 -1.0676  0.1857
 4110TIP3   OH233820   1.496   0.668  10.280 -0.3161 -0.4391 -0.0362
 4110TIP3    H133821   1.433   0.730  10.316  0.4244  0.7685 -0.7748
 4110TIP3    H233822   1.451   0.627  10.206 -1.7862 -2.8119  2.0732
 4111TIP3   OH233823   3.008   3.405  14.929 -0.2142 -0.0262  0.2113
 4111TIP3    H133824   2.943   3.434  14.866 -0.2184 -1.9190 -0.6991
 4111TIP3    H233825   3.092   3.423  14.887 -0.2187 -1.5211 -0.4912
 4112TIP3   OH233826   4.981   0.697  16.063  0.0238  0.2961  0.1724
 4112TIP3    H133827   4.893   0.690  16.027  0.0156 -0.3611  0.2986
 4112TIP3    H233828   5.004   0.789  16.055  0.5908 -0.0620 -2.8182
 4113TIP3   OH233829   1.381   3.891  14.701  0.0852  0.1621 -0.0188
 4113TIP3    H133830   1.440   3.824  14.736  1.9311  1.0860 -1.2838
 4113TIP3    H233831   1.433   3.971  14.701 -0.6727  0.6857 -2.5768
 4114TIP3   OH233832   5.915   2.096  11.191  0.1247 -0.3233  0.2876
 4114TIP3    H133833   5.827   2.131  11.204 -0.3450 -1.8096  1.2226
 4114TIP3    H233834   5.901   2.008  11.156  1.2284 -0.5481  0.3969
 4115TIP3   OH233835   1.071   0.985   2.971 -0.4791 -0.0677  0.4905
 4115TIP3    H133836   1.043   0.980   2.880  1.1964 -0.1634 -0.0242
 4115TIP3    H233837   1.059   0.896   3.005 -1.1783 -0.0128  0.3863
 4116TIP3   OH233838   2.335   4.603   3.148 -0.3297  0.2440 -0.0690
 4116TIP3    H133839   2.298   4.691   3.159  0.5228  0.7255 -0.9979
 4116TIP3    H233840   2.359   4.599   3.055 -1.2093 -1.3044 -0.2467
 4117TIP3   OH233841   0.348   4.301   3.408  0.1924 -0.4017  0.5014
 4117TIP3    H133842   0.296   4.221   3.398 -1.9271  0.6958  2.2214
 4117TIP3    H233843   0.286   4.372   3.391  1.9454  0.9169 -0.6249
 4118TIP3   OH233844   2.060   5.865   3.003 -0.3777 -0.8957 -0.4963
 4118TIP3    H133845   2.095   5.950   3.028  0.3598 -1.9915  2.3268
 4118TIP3    H233846   2.090   5.853   2.913 -0.1069  1.6006 -0.7783
 4119TIP3   OH233847   2.049   1.559  16.461 -0.1506  0.1440 -0.0956
 4119TIP3    H133848   1.970   1.522  16.422 -0.3325  0.0934  0.3186
 4119TIP3    H233849   2.051   1.649  16.429 -0.3564  0.1337 -0.1421
 4120TIP3   OH233850   0.431   2.291   0.312 -0.5256 -0.7030  0.3583
 4120TIP3    H133851   0.519   2.280   0.348 -0.1783 -0.4038 -0.3912
 4120TIP3    H233852   0.377   2.314   0.387  0.3649  0.8719  0.5423
 4121TIP3   OH233853   2.693   1.113  12.776  0.3317 -0.3679  0.3824
 4121TIP3    H133854   2.607   1.116  12.733  0.1485  1.9817  0.8182
 4121TIP3    H233855   2.754   1.138  12.707  0.5044 -0.7003  0.4183
 4122TIP3   OH233856   2.244   5.111  12.606 -0.2817 -0.1484 -0.0150
 4122TIP3    H133857   2.322   5.159  12.580 -0.4199  0.9213  1.4583
 4122TIP3    H233858   2.259   5.088  12.697 -0.8883 -1.5968 -0.2636
 4123TIP3   OH233859   2.635   4.789   4.298  0.0823 -0.3248  0.5306
 4123TIP3    H133860   2.588   4.713   4.263 -1.1941  0.0933  1.3107
 4123TIP3    H233861   2.627   4.781   4.393  0.3572  0.5187  0.6292
 4124TIP3   OH233862   4.400   2.813   2.772  0.4349 -0.0939  1.0980
 4124TIP3    H133863   4.338   2.863   2.826  0.2059  0.7496  0.0692
 4124TIP3    H233864   4.484   2.855   2.786  0.0145  1.4652 -0.7960
 4125TIP3   OH233865   0.053   5.210   2.707 -0.1497  0.0249  0.1149
 4125TIP3    H133866   0.031   5.154   2.632 -1.1066 -0.1998  0.5545
 4125TIP3    H233867   0.111   5.157   2.761  2.5626  1.0796 -1.6944
 4126TIP3   OH233868   3.624   6.238   5.425 -0.1890  0.7071  0.5591
 4126TIP3    H133869   3.689   6.299   5.461  0.5659  1.9250 -2.6679
 4126TIP3    H233870   3.549   6.294   5.402  0.1415  0.3276 -1.5523
 4127TIP3   OH233871   6.588   5.732   1.965  0.5137 -0.3393 -0.4592
 4127TIP3    H133872   6.657   5.763   2.023 -0.2820 -0.3451  0.4924
 4127TIP3    H233873   6.557   5.651   2.005 -1.2459  0.5812  0.0634
 4128TIP3   OH233874   6.444   4.565  14.463 -0.3482  0.6464 -0.0643
 4128TIP3    H133875   6.495   4.599  14.537  2.6604  0.3173 -1.9227
 4128TIP3    H233876   6.431   4.640  14.406 -1.3420  0.5668  0.0485
 4129TIP3   OH233877   6.336   6.701  12.468  0.5041 -0.2959 -0.5021
 4129TIP3    H133878   6.374   6.775  12.514  0.2504  0.5414 -1.6056
 4129TIP3    H233879   6.262   6.738  12.419  0.6632 -1.1726 -1.4356
 4130TIP3   OH233880   1.487   2.909   2.854  0.6480 -0.4741 -0.0450
 4130TIP3    H133881   1.431   2.979   2.887  3.1822  2.2400 -1.2653
 4130TIP3    H233882   1.536   2.879   2.930  0.2698 -0.1969  0.3080
 4131TIP3   OH233883   5.928   1.780  14.148 -0.0967  0.0872 -0.3534
 4131TIP3    H133884   5.878   1.702  14.124  1.5523 -1.4834  1.2556
 4131TIP3    H233885   6.001   1.747  14.200  0.0465  2.7979  1.2441
 4132TIP3   OH233886   4.455   2.847   6.142 -0.4618  0.1104  0.4744
 4132TIP3    H133887   4.529   2.849   6.202 -0.9466 -1.2888  1.1307
 4132TIP3    H233888   4.391   2.906   6.181 -0.3540  0.0387  0.7576
 4133TIP3   OH233889   0.661   1.841   3.325 -0.5486 -0.0143  0.3204
 4133TIP3    H133890   0.738   1.806   3.281  0.6352  1.8004  0.8868
 4133TIP3    H233891   0.631   1.911   3.267  0.0577  1.3069  1.5780
 4134TIP3   OH233892   0.965   4.737   1.926  0.1534 -0.7189  0.2961
 4134TIP3    H133893   1.036   4.770   1.870  0.2195 -0.0577  0.7631
 4134TIP3    H233894   0.991   4.761   2.015  0.0780 -1.8273  0.6258
 4135TIP3   OH233895   5.710   5.466   1.763 -0.6277  0.2470 -0.0591
 4135TIP3    H133896   5.617   5.479   1.780 -1.1613 -0.2950 -2.3807
 4135TIP3    H233897   5.714   5.387   1.709  1.4347 -1.5111  2.4892
 4136TIP3   OH233898   4.405   0.520  14.245 -0.1191 -0.0825  0.1163
 4136TIP3    H133899   4.311   0.508  14.261 -0.0631 -0.0989  0.4381
 4136TIP3    H233900   4.431   0.444  14.193 -0.3020 -0.0276 -0.0584
 4137TIP3   OH233901   6.746   5.428   0.619  0.2852  0.1764  0.1921
 4137TIP3    H133902   6.824   5.394   0.663  1.0966  0.7251 -0.8122
 4137TIP3    H233903   6.688   5.352   0.612  2.1018 -1.0844 -2.0857
 4138TIP3   OH233904   0.687   4.877  13.390  0.0302  0.3983  0.4127
 4138TIP3    H133905   0.644   4.960  13.368 -0.7874 -0.1429 -0.0064
 4138TIP3    H233906   0.743   4.859  13.315 -0.1714  0.3091  0.2846
 4139TIP3   OH233907   5.834   6.527  13.861  0.4229  0.3159  0.0795
 4139TIP3    H133908   5.897   6.549  13.792  1.7973 -1.7782  0.6156
 4139TIP3    H233909   5.752   6.568  13.833  1.8040  2.3992 -1.0544
 4140TIP3   OH233910   5.707   2.593   3.284 -0.9666 -0.2446  0.2440
 4140TIP3    H133911   5.700   2.579   3.189 -2.6705  0.5090  0.2425
 4140TIP3    H233912   5.779   2.655   3.294 -0.4965 -0.6513 -0.5168
 4141TIP3   OH233913   1.797   2.215  15.263 -0.1788  0.1708  0.0159
 4141TIP3    H133914   1.810   2.144  15.201 -1.1384  0.5422 -0.6141
 4141TIP3    H233915   1.807   2.295  15.211 -0.5213  0.4866  0.4268
 4142TIP3   OH233916   2.136   1.754  14.627  0.7423 -0.2129  0.4275
 4142TIP3    H133917   2.227   1.739  14.599  0.2453 -0.9533 -0.8447
 4142TIP3    H233918   2.087   1.758  14.545 -0.7383 -2.2497  1.1833
 4143TIP3   OH233919   6.400   6.646  10.776  0.2111 -0.2926  0.0728
 4143TIP3    H133920   6.458   6.709  10.734  0.2478  2.2922  3.8230
 4143TIP3    H233921   6.322   6.644  10.720  0.8445  1.9332 -0.9199
 4144TIP3   OH233922   2.071   6.591   4.822  0.4584 -0.1004  0.0156
 4144TIP3    H133923   2.048   6.683   4.831 -0.8623 -0.3227 -0.9788
 4144TIP3    H233924   2.066   6.556   4.911 -2.4710  0.0289 -0.0275
 4145TIP3   OH233925   0.626   3.714  11.406 -0.4045 -0.1122  0.1050
 4145TIP3    H133926   0.632   3.684  11.316 -0.5085  0.0005  0.0592
 4145TIP3    H233927   0.537   3.694  11.433 -0.5780  0.4488 -0.0339
 4146TIP3   OH233928   3.016   2.201   2.233  0.0997 -0.3859 -0.2627
 4146TIP3    H133929   3.024   2.115   2.273 -0.3900  0.7683  2.4171
 4146TIP3    H233930   3.042   2.262   2.302  1.2108  1.5870 -2.3526
 4147TIP3   OH233931   1.040   5.703   5.632  0.8583  0.0178 -0.0171
 4147TIP3    H133932   1.057   5.689   5.726 -1.1357  1.2406  0.5497
 4147TIP3    H233933   1.023   5.797   5.624 -1.9259 -0.5084 -1.0693
 4148TIP3   OH233934   3.836   2.434   1.697  0.2110  0.5068  0.3755
 4148TIP3    H133935   3.820   2.504   1.633 -0.0809 -0.7647 -0.9533
 4148TIP3    H233936   3.777   2.455   1.770 -0.5126  1.1600 -0.3913
 4149TIP3   OH233937   2.408   2.843   6.309 -0.0803  0.2818  0.4730
 4149TIP3    H133938   2.375   2.811   6.393 -1.4335 -0.2085 -0.2226
 4149TIP3    H233939   2.501   2.820   6.309 -0.0832  0.2341  1.8077
 4150TIP3   OH233940   6.726   5.978  10.566  0.2352  0.0427 -0.3721
 4150TIP3    H133941   6.698   5.966  10.656  1.1267  1.3572  0.1045
 4150TIP3    H233942   6.687   6.062  10.539  1.2891  0.4559 -0.6533
 4151TIP3   OH233943   1.318   1.871   5.084 -0.0177 -0.3396 -0.1735
 4151TIP3    H133944   1.320   1.899   4.993  0.0494 -0.3941 -0.1888
 4151TIP3    H233945   1.228   1.840   5.097 -0.1184 -0.0320 -0.1301
 4152TIP3   OH233946   5.581   4.965  10.517 -0.3102 -0.2285  0.2831
 4152TIP3    H133947   5.511   4.900  10.509 -1.5614  1.2665 -1.2900
 4152TIP3    H233948   5.573   5.018  10.438  2.3816  0.2031  0.2602
 4153TIP3   OH233949   0.045   2.721  16.534 -0.0393  0.7336  0.2212
 4153TIP3    H133950  -0.006   2.719  16.615  0.3528  0.0855  0.4476
 4153TIP3    H233951  -0.016   2.758  16.469 -0.9787 -0.5291  0.3673
 4154TIP3   OH233952   4.076   2.264   1.627 -0.1946 -0.1634 -0.1470
 4154TIP3    H133953   3.996   2.229   1.586 -0.5074  0.9838 -0.5285
 4154TIP3    H233954   4.056   2.264   1.721 -0.5582 -0.0817 -0.2239
 4155TIP3   OH233955   6.607   1.565  16.130 -0.2347  0.3143  0.0221
 4155TIP3    H133956   6.548   1.522  16.068  0.2867 -1.6236  0.8164
 4155TIP3    H233957   6.685   1.586  16.078 -0.7455  0.8946 -0.5220
 4156TIP3   OH233958   2.395   6.196  10.313 -0.6350 -0.0472 -0.1036
 4156TIP3    H133959   2.321   6.249  10.341  0.3996 -0.0411  2.7082
 4156TIP3    H233960   2.471   6.254  10.321 -0.0654 -0.6198 -1.1971
 4157TIP3   OH233961   6.454   0.641  12.297  0.0740 -0.4913 -0.2575
 4157TIP3    H133962   6.445   0.698  12.220  0.9971  0.1449  0.1048
 4157TIP3    H233963   6.527   0.678  12.346 -0.0753 -1.3023  0.5833
 4158TIP3   OH233964   2.381   0.781  12.601 -0.2946 -0.1293  0.3008
 4158TIP3    H133965   2.446   0.850  12.587 -2.1451  1.3404 -1.3764
 4158TIP3    H233966   2.375   0.737  12.516 -0.1353 -1.4699  0.9770
 4159TIP3   OH233967   6.659   3.821  15.562  0.0324 -0.1376 -0.1559
 4159TIP3    H133968   6.634   3.764  15.489 -0.3669 -2.0948  1.4631
 4159TIP3    H233969   6.576   3.854  15.597  0.0633 -1.2239  0.9744
 4160TIP3   OH233970   4.593   5.460   1.748  0.1792  0.0165 -0.1828
 4160TIP3    H133971   4.673   5.462   1.695  0.1178 -0.9632 -0.3268
 4160TIP3    H233972   4.600   5.536   1.805  2.1409 -1.1232  1.1372
 4161TIP3   OH233973   4.497   3.539   3.112 -0.2120 -0.7522  0.1959
 4161TIP3    H133974   4.511   3.617   3.058  0.5980 -1.0036  0.0332
 4161TIP3    H233975   4.465   3.572   3.195 -0.4766 -0.2880 -0.0907
 4162TIP3   OH233976   1.719   0.416  12.699 -0.2806 -0.5190  0.2850
 4162TIP3    H133977   1.741   0.507  12.721  0.1280 -0.7237  0.7347
 4162TIP3    H233978   1.655   0.423  12.628  1.7067  0.0850 -1.4985
 4163TIP3   OH233979   3.031   3.221  12.310  0.2408  0.1496 -0.2759
 4163TIP3    H133980   3.116   3.224  12.267  0.5958  2.5363  0.5056
 4163TIP3    H233981   2.985   3.148  12.269  2.2271 -0.4184 -1.5225
 4164TIP3   OH233982   6.763   0.662   1.212 -0.2693  0.6853  0.4310
 4164TIP3    H133983   6.780   0.633   1.302 -0.1148 -1.1352 -0.1695
 4164TIP3    H233984   6.762   0.758   1.218  0.3872  0.6045  2.2542
 4165TIP3   OH233985   2.695   0.173  14.554 -0.2987  0.5347 -0.3830
 4165TIP3    H133986   2.629   0.230  14.515 -0.8579  0.1475 -0.0027
 4165TIP3    H233987   2.659   0.150  14.639  0.7260  1.0444  0.2063
 4166TIP3   OH233988   4.567   0.799   2.804 -0.0974 -1.0885  0.3899
 4166TIP3    H133989   4.511   0.782   2.728 -0.4128  0.3420  0.2931
 4166TIP3    H233990   4.654   0.770   2.776 -0.1593 -0.3350 -0.6162
 4167TIP3   OH233991   2.448   0.553  14.496  0.1111 -0.3180  0.0632
 4167TIP3    H133992   2.399   0.561  14.414 -0.0767  0.0778  0.2166
 4167TIP3    H233993   2.382   0.533  14.562  0.0696  0.8554  0.3851
 4168TIP3   OH233994   1.486   2.461  16.184  0.3422  0.0955  0.3353
 4168TIP3    H133995   1.395   2.484  16.206  0.3036  1.3408 -1.0866
 4168TIP3    H233996   1.480   2.418  16.099  1.1844  0.9339 -0.1509
 4169TIP3   OH233997   5.360   4.001  14.566  0.4368  0.0487 -0.7081
 4169TIP3    H133998   5.392   4.062  14.499 -0.4580 -0.9452 -2.0557
 4169TIP3    H233999   5.268   3.986  14.543  0.1344 -0.3564  0.7082
 4170TIP3   OH234000   2.843   2.633   1.076  0.6733 -0.0325 -0.1204
 4170TIP3    H134001   2.891   2.710   1.045  0.0716  0.1795 -0.5589
 4170TIP3    H234002   2.844   2.573   1.001  0.4241 -0.1062 -0.0649
 4171TIP3   OH234003   3.632   6.441   4.766  0.0360 -0.0665 -0.7004
 4171TIP3    H134004   3.624   6.362   4.713  0.8613 -1.8513  1.7281
 4171TIP3    H234005   3.719   6.474   4.746  1.1887 -1.9190  1.0316
 4172TIP3   OH234006   6.716   6.135  15.399 -0.0457  0.4989 -0.7971
 4172TIP3    H134007   6.773   6.185  15.458  0.3143  1.8194 -2.2416
 4172TIP3    H234008   6.765   6.056  15.380  0.2220  0.4730 -0.0471
 4173TIP3   OH234009   0.172   2.704   3.156 -0.9063  0.0356 -0.1035
 4173TIP3    H134010   0.110   2.772   3.182 -0.6595 -0.5171  2.0225
 4173TIP3    H234011   0.158   2.694   3.062 -2.6927  1.2567  0.0009
 4174TIP3   OH234012   6.489   0.820  13.289 -0.0462 -0.0928  0.6207
 4174TIP3    H134013   6.426   0.752  13.263 -0.0941 -0.2808  1.2150
 4174TIP3    H234014   6.574   0.782  13.270  0.0410 -1.2720  3.0776
 4175TIP3   OH234015   3.111   4.506  14.755 -0.3635  0.0355  0.0843
 4175TIP3    H134016   3.191   4.497  14.702  1.2456  1.7709  2.1010
 4175TIP3    H234017   3.044   4.533  14.693  1.3036  1.3431 -1.2113
 4176TIP3   OH234018   1.519   2.387   0.136  0.4923  0.1847 -0.1441
 4176TIP3    H134019   1.492   2.328   0.065  0.4133 -0.0150  0.0519
 4176TIP3    H234020   1.547   2.329   0.206 -0.2289  0.3714  0.3044
 4177TIP3   OH234021   1.967   2.649   0.808 -0.4610 -0.5821  0.3587
 4177TIP3    H134022   1.901   2.718   0.804 -0.5733 -0.7339 -0.4359
 4177TIP3    H234023   2.014   2.655   0.725 -1.0765 -2.0468 -0.1235
 4178TIP3   OH234024   4.284   0.651   4.199  1.2172  0.2912  0.3094
 4178TIP3    H134025   4.275   0.628   4.106  2.4798  2.0634 -0.3012
 4178TIP3    H234026   4.262   0.744   4.202 -1.4220 -0.3417  2.2642
 4179TIP3   OH234027   0.205   1.075  15.484 -0.1078  0.2490  0.0949
 4179TIP3    H134028   0.150   1.135  15.434 -0.8797 -1.4908 -1.2139
 4179TIP3    H234029   0.143   1.019  15.531  0.5471 -0.9360 -0.4239
 4180TIP3   OH234030   5.568   4.271  14.008  0.3332 -0.4365  0.0153
 4180TIP3    H134031   5.615   4.249  13.927 -0.3584  0.0637 -0.5300
 4180TIP3    H234032   5.617   4.345  14.044 -0.8032  0.9876 -1.2754
 4181TIP3   OH234033   4.114   0.913  16.930  0.4406  0.3594  0.5089
 4181TIP3    H134034   4.095   0.913  16.836 -0.7251  0.8940  0.7365
 4181TIP3    H234035   4.063   0.840  16.965  0.9740  0.0818  0.6989
 4182TIP3   OH234036   0.247   5.071   2.849  0.0961 -0.0451 -0.3570
 4182TIP3    H134037   0.233   4.979   2.825  0.0974  0.2486 -1.4893
 4182TIP3    H234038   0.253   5.070   2.944  1.4562 -1.4124 -0.4394
 4183TIP3   OH234039   1.529   4.856   5.059 -0.2842  0.4883  0.3019
 4183TIP3    H134040   1.480   4.938   5.064  0.5664  0.8778  2.5761
 4183TIP3    H234041   1.620   4.881   5.074 -0.1217 -0.9763  1.8706
 4184TIP3   OH234042   5.081   5.682  11.598  0.5874 -0.5670  0.1804
 4184TIP3    H134043   5.127   5.766  11.594 -1.7033  0.6114 -2.6307
 4184TIP3    H234044   5.151   5.617  11.591  2.1342  1.1391 -0.6972
 4185TIP3   OH234045   5.698   0.008   6.071  0.4351  0.0461  0.1779
 4185TIP3    H134046   5.653   0.068   6.130  0.4640  0.1793  0.0653
 4185TIP3    H234047   5.628  -0.027   6.015  0.5128  0.4999 -0.2115
 4186TIP3   OH234048   6.319   3.634  11.006 -0.0273 -0.2389  0.6854
 4186TIP3    H134049   6.264   3.686  10.947  0.7944  3.5915  3.1558
 4186TIP3    H234050   6.407   3.669  10.993  0.5438 -1.0181  2.3813
 4187TIP3   OH234051   0.941   3.923  16.854 -0.1863 -0.3012 -0.2816
 4187TIP3    H134052   0.937   3.917  16.759 -2.5943 -0.5813 -0.2048
 4187TIP3    H234053   0.855   3.956  16.880 -0.7794 -3.3135  1.9809
 4188TIP3   OH234054   3.426   2.605  11.800  0.5582  0.3999 -0.1590
 4188TIP3    H134055   3.419   2.510  11.810  0.2500  0.3245 -1.1222
 4188TIP3    H234056   3.363   2.640  11.862 -2.7705 -0.1140 -3.1083
 4189TIP3   OH234057   2.882   2.955   0.740  0.1055 -0.1032  0.1322
 4189TIP3    H134058   2.795   2.917   0.726 -0.5032  0.4545  2.1249
 4189TIP3    H234059   2.940   2.905   0.683 -1.3980 -1.0561 -0.5946
 4190TIP3   OH234060   5.225   3.927  13.068  0.9695  0.2610 -0.8449
 4190TIP3    H134061   5.236   3.837  13.038  0.1198 -0.9745  2.3127
 4190TIP3    H234062   5.152   3.961  13.016  0.8024 -1.1279 -1.5335
 4191TIP3   OH234063   2.162   5.798   3.708 -1.3152 -0.2601  0.6296
 4191TIP3    H134064   2.172   5.725   3.769 -0.6435 -0.6542  0.0488
 4191TIP3    H234065   2.240   5.795   3.653 -0.4220  1.9432  1.7166
 4192TIP3   OH234066   3.516   0.905  15.210  0.4198  0.2051  0.4128
 4192TIP3    H134067   3.426   0.934  15.216  0.5023  0.6733 -0.5694
 4192TIP3    H234068   3.525   0.840  15.280 -0.8675 -0.3615  0.0532
 4193TIP3   OH234069   4.621   0.558   6.417 -0.4231  0.5285 -0.0414
 4193TIP3    H134070   4.557   0.536   6.485  1.6031  0.1572  1.7786
 4193TIP3    H234071   4.667   0.476   6.400 -1.5519  0.3880 -2.5817
 4194TIP3   OH234072   2.561   1.213   1.780 -0.3207  0.4658  0.1737
 4194TIP3    H134073   2.481   1.182   1.737 -0.3622  1.2632 -0.3495
 4194TIP3    H234074   2.530   1.277   1.844 -0.1489  0.3251  0.3949
 4195TIP3   OH234075   0.451   3.033   6.612 -0.4836 -0.1802  0.0436
 4195TIP3    H134076   0.404   3.078   6.682  2.5396  0.3167  1.8306
 4195TIP3    H234077   0.483   2.952   6.652 -0.2309 -0.7431 -1.2632
 4196TIP3   OH234078   1.210   1.681  11.777 -0.5554  0.4521 -0.0778
 4196TIP3    H134079   1.148   1.644  11.714 -1.5262 -1.0127  1.6609
 4196TIP3    H234080   1.180   1.771  11.790 -2.5514 -0.3245  0.9628
 4197TIP3   OH234081   6.481   1.602  15.091  0.3146 -0.4904  0.5831
 4197TIP3    H134082   6.411   1.664  15.111  1.0840  0.5484  0.1129
 4197TIP3    H234083   6.471   1.585  14.997  0.0532 -1.1548  0.7291
 4198TIP3   OH234084   6.589   6.811  11.336  0.0360 -0.4667  0.7091
 4198TIP3    H134085   6.561   6.891  11.292 -3.5143 -1.6665  0.6378
 4198TIP3    H234086   6.596   6.837  11.429  1.8777  0.6060  0.3143
 4199TIP3   OH234087   5.361   1.447   3.732  0.1259 -0.2472 -0.6235
 4199TIP3    H134088   5.390   1.409   3.815 -0.5832  1.3873  0.3898
 4199TIP3    H234089   5.308   1.378   3.692  0.6036 -1.1172  0.1939
 4200TIP3   OH234090   5.103   4.225   1.354 -0.1822  0.0034 -0.9367
 4200TIP3    H134091   5.021   4.181   1.329  0.3823 -0.1902 -2.4427
 4200TIP3    H234092   5.114   4.294   1.290 -0.1609  1.2815  0.4157
 4201TIP3   OH234093   0.470   5.523  15.802 -0.2761 -0.2959  0.5501
 4201TIP3    H134094   0.451   5.502  15.711  1.7615 -1.5210  0.3689
 4201TIP3    H234095   0.484   5.618  15.802  0.6083 -0.4090 -0.6120
 4202TIP3   OH234096   6.387   3.643   4.034  0.0674 -0.1210  0.3773
 4202TIP3    H134097   6.416   3.734   4.031  0.2431 -0.1999 -0.5621
 4202TIP3    H234098   6.460   3.594   3.998 -0.2189 -0.5866  0.4314
 4203TIP3   OH234099   1.303   1.071   4.711 -0.8952  0.1738  0.0469
 4203TIP3    H134100   1.242   1.130   4.755  1.7848  2.7507  0.4292
 4203TIP3    H234101   1.379   1.125   4.690 -0.0405 -2.1649 -3.3692
 4204TIP3   OH234102   0.586   0.761  14.237 -0.7776 -0.0696  0.7345
 4204TIP3    H134103   0.543   0.789  14.156  2.0113 -1.3993 -1.3123
 4204TIP3    H234104   0.618   0.842  14.276 -0.2943  0.4262 -0.6361
 4205TIP3   OH234105   5.868   3.333  11.613  0.3750 -0.3725 -0.1999
 4205TIP3    H134106   5.872   3.303  11.522  0.4911  2.1567 -1.0448
 4205TIP3    H234107   5.951   3.378  11.628 -0.3490  0.7267  0.6184
 4206TIP3   OH234108   4.690   3.930  14.028 -0.3392  0.1003 -0.1469
 4206TIP3    H134109   4.731   4.017  14.028  0.6049 -0.3360 -1.1692
 4206TIP3    H234110   4.703   3.898  13.939  0.3752 -1.6024  0.5675
 4207TIP3   OH234111   2.093   2.718  11.611  0.4109 -0.4073  0.3710
 4207TIP3    H134112   2.144   2.766  11.545  1.1303  1.0133  1.9249
 4207TIP3    H234113   2.017   2.774  11.629 -0.7553 -1.6504 -0.5717
 4208TIP3   OH234114   3.826   2.072   0.541  0.0417 -0.3304  0.4321
 4208TIP3    H134115   3.782   2.108   0.463  2.8084  1.3820 -0.4131
 4208TIP3    H234116   3.820   1.977   0.530  0.0767 -0.1143 -1.6937
 4209TIP3   OH234117   5.752   4.066  13.816  0.4500 -0.0716  0.0485
 4209TIP3    H134118   5.837   4.043  13.779  0.8097  0.5483  0.4847
 4209TIP3    H234119   5.770   4.087  13.907 -0.0698  0.7336 -0.0300
 4210TIP3   OH234120   5.605   2.633  12.692 -0.1862 -0.4493  0.2968
 4210TIP3    H134121   5.654   2.633  12.774 -0.5533 -0.6025  0.5112
 4210TIP3    H234122   5.516   2.657  12.716 -0.3705 -0.8181 -0.0135
 4211TIP3   OH234123   2.663   0.603   2.088  0.1142 -0.2512  0.8210
 4211TIP3    H134124   2.633   0.685   2.129  0.3850  0.2578  0.0191
 4211TIP3    H234125   2.651   0.537   2.155  0.6126  0.5852  1.7502
 4212TIP3   OH234126   3.230   6.489   5.664  0.3737 -0.0272 -0.8159
 4212TIP3    H134127   3.146   6.492   5.710  0.3021 -1.3854 -0.8232
 4212TIP3    H234128   3.236   6.574   5.620 -1.0757  0.0313 -0.9517
 4213TIP3   OH234129   1.300   5.957  15.019 -0.2654  0.0385 -0.4892
 4213TIP3    H134130   1.368   5.905  15.061 -0.5203 -0.4271 -0.6569
 4213TIP3    H234131   1.335   5.978  14.933  0.5231  1.5219  0.1723
 4214TIP3   OH234132   0.148   2.636   1.964  0.2481 -0.0408  0.1239
 4214TIP3    H134133   0.110   2.552   1.939  1.9606 -0.8007  0.0249
 4214TIP3    H234134   0.147   2.637   2.059 -0.5141  0.1857  0.1190
 4215TIP3   OH234135   5.043   6.387  12.610  0.1670  0.0305 -0.1026
 4215TIP3    H134136   5.051   6.434  12.693  1.0868 -0.0150 -0.1566
 4215TIP3    H234137   5.057   6.295  12.632 -1.4811 -0.2083 -0.0250
 4216TIP3   OH234138   1.795   3.103   4.588 -0.4879  0.6089 -0.2799
 4216TIP3    H134139   1.889   3.119   4.592 -0.7306  2.4399 -1.4084
 4216TIP3    H234140   1.757   3.175   4.639 -1.2346 -0.6162  0.9038
 4217TIP3   OH234141   0.243   2.233   1.832 -0.0258 -0.5163  0.4690
 4217TIP3    H134142   0.264   2.271   1.746  0.1225 -1.0859  0.2444
 4217TIP3    H234143   0.323   2.243   1.883 -0.5688  1.1190  1.0292
 4218TIP3   OH234144   0.759   2.857  15.172  0.2712  0.0960 -0.2701
 4218TIP3    H134145   0.855   2.859  15.169  0.2436  0.4158 -1.1903
 4218TIP3    H234146   0.738   2.803  15.248  1.1913  2.4367  1.7158
 4219TIP3   OH234147   4.581   1.851   0.649 -0.1749  0.3465 -0.0911
 4219TIP3    H134148   4.554   1.833   0.739  0.8784  1.8371  0.5450
 4219TIP3    H234149   4.656   1.910   0.658  0.6015 -0.3384 -1.9239
 4220TIP3   OH234150   2.005   2.766  14.111  0.0737  0.2269 -0.0146
 4220TIP3    H134151   2.020   2.783  14.019  0.3769 -3.4614 -0.7543
 4220TIP3    H234152   1.912   2.742  14.117  0.3831 -0.9157  0.3794
 4221TIP3   OH234153   5.265   6.302  15.826 -0.0996 -0.0847  0.4306
 4221TIP3    H134154   5.198   6.319  15.759 -1.4587 -1.6664  1.3379
 4221TIP3    H234155   5.302   6.217  15.802  0.2220 -0.1140  1.0257
 4222TIP3   OH234156   6.670   2.984   2.269  0.6928 -0.0573  0.2009
 4222TIP3    H134157   6.707   3.042   2.202 -2.0271  1.5667  0.0636
 4222TIP3    H234158   6.683   3.031   2.351  0.6627 -0.3702  0.3844
 4223TIP3   OH234159   3.336   4.225  14.990 -0.6806  0.1188  0.2203
 4223TIP3    H134160   3.344   4.172  15.069  1.5395  0.0847  0.0071
 4223TIP3    H234161   3.330   4.162  14.918  1.9524  0.1140 -0.0330
 4224TIP3   OH234162   2.268   3.617   0.907  0.4962  0.2128 -0.0988
 4224TIP3    H134163   2.358   3.637   0.935  0.5167  1.4515 -1.0319
 4224TIP3    H234164   2.276   3.532   0.863  1.1311  0.1151  0.1859
 4225TIP3   OH234165   4.877   2.992   4.368  0.3285  0.6290 -0.0539
 4225TIP3    H134166   4.892   2.944   4.449  2.3819  0.0554 -0.7548
 4225TIP3    H234167   4.841   3.076   4.396 -1.1522 -0.4254  1.3045
 4226TIP3   OH234168   2.949   5.970  15.174 -0.5295  0.1977  0.3264
 4226TIP3    H134169   2.870   5.917  15.158  0.6412 -1.2815 -0.6703
 4226TIP3    H234170   2.953   6.030  15.099 -1.5481  1.3627  1.1754
 4227TIP3   OH234171   1.303   3.818  12.511  0.3559 -0.1282 -0.0788
 4227TIP3    H134172   1.364   3.798  12.440  1.1850  1.9921  0.0010
 4227TIP3    H234173   1.357   3.822  12.589 -0.4207 -1.5621  0.5538
 4228TIP3   OH234174   1.657   4.682   2.221  0.0643 -0.0217  1.2582
 4228TIP3    H134175   1.723   4.744   2.252  0.2996 -0.3290  1.3699
 4228TIP3    H234176   1.689   4.596   2.248  0.8511 -0.4262 -0.8579
 4229TIP3   OH234177   4.569   2.359   4.595  0.5845 -0.0470 -0.4655
 4229TIP3    H134178   4.482   2.383   4.565  0.4660 -0.5194 -0.5023
 4229TIP3    H234179   4.577   2.266   4.573  0.4743 -0.4097  1.0165
 4230TIP3   OH234180   0.249   5.875   3.268 -0.3856 -0.2249 -0.1856
 4230TIP3    H134181   0.217   5.828   3.191  1.4067 -1.4225 -0.2220
 4230TIP3    H234182   0.343   5.855   3.271 -0.6752 -1.3657  3.0727
 4231TIP3   OH234183   1.109   6.421   6.439 -0.5718  0.5254  0.2701
 4231TIP3    H134184   1.017   6.403   6.456 -0.6089  1.1559  0.7238
 4231TIP3    H234185   1.109   6.490   6.373 -0.4283  1.2243  0.9951
 4232TIP3   OH234186   2.336   2.025   4.408  0.0961 -1.1187  0.1501
 4232TIP3    H134187   2.376   1.950   4.451  1.4672 -0.7312 -0.4303
 4232TIP3    H234188   2.373   2.025   4.319  0.6655  0.6566  0.3736
 4233TIP3   OH234189   5.983   6.432   3.723  0.2484  0.4397  0.6074
 4233TIP3    H134190   6.040   6.498   3.763  1.2691 -0.4369  0.6487
 4233TIP3    H234191   6.039   6.354   3.717 -0.5777 -0.0734 -0.5092
 4234TIP3   OH234192   4.399   0.017   5.138 -0.5557 -0.1330  0.0464
 4234TIP3    H134193   4.376   0.053   5.052  0.5468  0.2160 -0.1128
 4234TIP3    H234194   4.415  -0.076   5.121 -3.3901 -0.7265  0.4563
 4235TIP3   OH234195   5.139   4.585  10.538 -0.3784  0.4809  0.1837
 4235TIP3    H134196   5.233   4.582  10.554 -0.7275 -1.2442  2.1277
 4235TIP3    H234197   5.112   4.673  10.564  0.7005  1.0008 -0.4534
 4236TIP3   OH234198   6.458   2.045   5.468 -0.2069  0.0149  1.0400
 4236TIP3    H134199   6.459   1.950   5.469  1.5449  0.0292  1.9978
 4236TIP3    H234200   6.372   2.068   5.432 -1.0151 -1.9051  1.7243
 4237TIP3   OH234201   4.869   3.463   2.024  0.0754 -0.8443 -0.4960
 4237TIP3    H134202   4.876   3.379   1.979 -0.0032 -0.3543 -1.4397
 4237TIP3    H234203   4.848   3.526   1.954 -0.4477 -0.1424  0.2898
 4238TIP3   OH234204   3.844   0.161   1.754 -0.3165  0.0889 -0.0796
 4238TIP3    H134205   3.880   0.133   1.839  0.9077  0.5922 -0.4176
 4238TIP3    H234206   3.867   0.254   1.748 -1.2645  0.2954 -0.5246
 4239TIP3   OH234207   6.820   0.136   4.888  0.3019  0.0321 -0.1329
 4239TIP3    H134208   6.799   0.194   4.962  2.1198  1.3835 -0.6360
 4239TIP3    H234209   6.745   0.077   4.882 -0.6152  0.9462  1.7706
 4240TIP3   OH234210   2.577   4.055  13.017 -0.0568  0.0005 -0.4480
 4240TIP3    H134211   2.498   4.103  12.995 -0.2056 -0.3332 -0.6430
 4240TIP3    H234212   2.553   4.004  13.095  0.8272  2.1170  1.2725
 4241TIP3   OH234213   3.738   0.311  12.371 -0.0462 -0.1195 -0.0203
 4241TIP3    H134214   3.829   0.284  12.383  0.4142  0.8566 -1.1825
 4241TIP3    H234215   3.687   0.251  12.425  1.1071 -1.9975 -0.9727
 4242TIP3   OH234216   1.788   3.060  13.949  0.3113 -0.5456  0.3626
 4242TIP3    H134217   1.763   3.127  13.885 -0.3402 -2.1525 -1.1126
 4242TIP3    H234218   1.719   3.062  14.015 -0.2862 -0.4624 -0.2497
 4243TIP3   OH234219   4.270   0.407  12.900  0.1126  0.3007 -0.3096
 4243TIP3    H134220   4.301   0.414  12.810 -0.6115 -0.0039 -0.5876
 4243TIP3    H234221   4.252   0.314  12.912 -0.5847  0.4532 -0.1210
 4244TIP3   OH234222   3.058   2.143  17.046  0.0951 -0.5838  0.0185
 4244TIP3    H134223   2.989   2.079  17.031  1.2279 -1.9495  0.4976
 4244TIP3    H234224   3.099   2.155  16.960  0.3336 -1.0240  0.0748
 4245TIP3   OH234225   4.510   6.525   3.713 -0.4345  0.1873 -0.2594
 4245TIP3    H134226   4.481   6.569   3.633  0.5292 -0.1444 -0.8061
 4245TIP3    H234227   4.565   6.453   3.681  0.3797  0.3732  0.7320
 4246TIP3   OH234228   5.457   0.509  16.012 -0.2320 -0.2737  0.0959
 4246TIP3    H134229   5.503   0.573  15.958  0.3220  0.3961  1.3469
 4246TIP3    H234230   5.368   0.542  16.019 -0.2090 -0.1708 -0.1020
 4247TIP3   OH234231   4.832   1.102  16.879 -0.0288 -0.4742 -0.3306
 4247TIP3    H134232   4.821   1.101  16.974 -2.4341 -1.5461 -0.5967
 4247TIP3    H234233   4.790   1.182  16.850 -0.0670 -0.5836 -0.5807
 4248TIP3   OH234234   2.283   6.143   5.713 -0.7794 -0.5611  0.1332
 4248TIP3    H134235   2.324   6.081   5.651  1.6981  0.4270  0.7216
 4248TIP3    H234236   2.354   6.202   5.737 -2.5822  1.1511  1.3170
 4249TIP3   OH234237   0.375   4.712   4.325  0.2691  0.4244  0.1510
 4249TIP3    H134238   0.351   4.735   4.414  0.2527 -1.6687  0.7098
 4249TIP3    H234239   0.341   4.624   4.313  0.0908  0.7568 -2.0038
 4250TIP3   OH234240   5.017   1.815  12.553  0.4462  0.7503 -0.3124
 4250TIP3    H134241   5.054   1.848  12.635  1.5494  1.0424 -0.9122
 4250TIP3    H234242   5.093   1.802  12.496 -0.0933 -1.5652 -0.5454
 4251TIP3   OH234243   0.860   2.350  14.143 -0.0706 -0.0834 -0.0177
 4251TIP3    H134244   0.925   2.352  14.073 -1.1251  1.7822 -1.0002
 4251TIP3    H234245   0.850   2.257  14.164  0.8358 -0.6155 -1.8266
 4252TIP3   OH234246   1.809   6.526   0.271 -0.4311  0.3704 -0.6324
 4252TIP3    H134247   1.832   6.500   0.182 -0.1914  1.5591 -0.9190
 4252TIP3    H234248   1.713   6.527   0.271 -0.4522 -0.6394 -0.5715
 4253TIP3   OH234249   4.019   0.493   1.440  0.4634  0.4978  0.3413
 4253TIP3    H134250   4.101   0.498   1.391  0.0489  1.8492 -0.2533
 4253TIP3    H234251   3.956   0.457   1.377 -0.1593  2.6003 -0.2753
 4254TIP3   OH234252   4.803   0.399  15.304 -0.2574 -0.4978 -0.0417
 4254TIP3    H134253   4.783   0.306  15.292 -1.7723 -0.6073  2.8160
 4254TIP3    H234254   4.731   0.444  15.259 -0.9906 -0.7766  0.8211
 4255TIP3   OH234255   1.769   0.381   0.867  0.5031  0.0583 -0.3622
 4255TIP3    H134256   1.836   0.329   0.910  0.1030 -0.9460 -0.9445
 4255TIP3    H234257   1.808   0.468   0.858  1.5454 -0.3961 -0.2856
 4256TIP3   OH234258   1.933   3.332   1.279  0.6167 -0.1444 -0.2604
 4256TIP3    H134259   1.970   3.384   1.350  1.1101 -1.0403  0.1422
 4256TIP3    H234260   1.843   3.363   1.272  0.3676 -0.4751  1.1818
 4257TIP3   OH234261   6.369   4.582  16.484 -0.3148 -0.3177  0.7557
 4257TIP3    H134262   6.406   4.561  16.570 -0.1433  1.0345  1.0148
 4257TIP3    H234263   6.406   4.667  16.462 -2.0117  0.3304  0.3067
 4258TIP3   OH234264   3.940   1.364   3.532  0.1379  0.2147  0.6195
 4258TIP3    H134265   3.984   1.438   3.575  0.7162 -0.6854  1.6207
 4258TIP3    H234266   3.936   1.297   3.600 -3.1671  0.3964  0.7025
 4259TIP3   OH234267   1.962   1.313   3.681 -0.3124 -0.4047  0.5962
 4259TIP3    H134268   1.940   1.406   3.680 -0.5869 -0.4634  1.0380
 4259TIP3    H234269   2.020   1.301   3.606 -0.7088  0.0179  0.2183
 4260TIP3   OH234270   2.617   1.233  13.179 -0.3423 -0.7877  0.2223
 4260TIP3    H134271   2.666   1.202  13.103 -1.2820 -1.2879 -0.1966
 4260TIP3    H234272   2.640   1.173  13.249 -0.0308 -0.7647  0.1382
 4261TIP3   OH234273   3.611   0.662   2.878  0.0181  0.6465 -0.3481
 4261TIP3    H134274   3.553   0.738   2.869  0.4808  1.0241 -0.1329
 4261TIP3    H234275   3.553   0.592   2.908 -0.0871  1.3881  1.2390
 4262TIP3   OH234276   3.091   6.609   2.798  0.3267 -0.2560 -0.2467
 4262TIP3    H134277   3.007   6.629   2.839  0.3598 -0.0525 -0.2768
 4262TIP3    H234278   3.152   6.603   2.872  0.2450 -0.6196 -0.2058
 4263TIP3   OH234279   1.620   6.224   2.450 -0.0990  0.0160 -0.2849
 4263TIP3    H134280   1.667   6.193   2.528  1.9219  0.6728 -1.2105
 4263TIP3    H234281   1.540   6.171   2.447  1.1163 -1.9157  0.7085
 4264TIP3   OH234282   3.056   6.725   5.690 -0.6112 -0.1220 -0.7472
 4264TIP3    H134283   3.054   6.821   5.697 -1.0155 -0.2639  1.4516
 4264TIP3    H234284   3.035   6.694   5.778  1.3141 -2.2338 -0.9783
 4265TIP3   OH234285   5.282   0.785   3.610  0.4187  0.0401 -0.5130
 4265TIP3    H134286   5.195   0.755   3.635  0.8012 -1.2883 -0.7511
 4265TIP3    H234287   5.283   0.781   3.515  0.0864  1.9210 -0.6076
 4266TIP3   OH234288   0.620   2.931   1.478 -0.3392  0.1792  0.0464
 4266TIP3    H134289   0.709   2.961   1.498 -0.6051  0.7973  0.3317
 4266TIP3    H234290   0.564   2.988   1.531 -0.9441  0.3463 -0.7686
 4267TIP3   OH234291   6.749   3.621  17.101 -0.3059 -0.3429  0.1588
 4267TIP3    H134292   6.686   3.691  17.115  0.1998  0.0693  0.3913
 4267TIP3    H234293   6.826   3.664  17.065 -0.4758 -0.9727 -0.9767
 4268TIP3   OH234294   0.338   4.626   3.480 -0.2633 -0.3469 -0.4090
 4268TIP3    H134295   0.249   4.611   3.450 -0.6961 -0.7988  1.0468
 4268TIP3    H234296   0.336   4.712   3.521  0.0829 -0.1543 -0.7939
 4269TIP3   OH234297   6.475   5.284   0.179  0.0864 -0.0949  0.0252
 4269TIP3    H134298   6.433   5.311   0.097  0.2327  1.2459  0.3789
 4269TIP3    H234299   6.403   5.249   0.232 -0.0871 -0.5298 -0.4932
 4270TIP3   OH234300   1.330   5.192   3.832  0.1860  0.1145  0.4356
 4270TIP3    H134301   1.267   5.251   3.873 -0.1935 -0.2031  0.3247
 4270TIP3    H234302   1.397   5.178   3.898 -0.2046 -0.0624  0.7955
 4271TIP3   OH234303   5.819   2.401  17.074 -0.0686  0.0608 -0.1566
 4271TIP3    H134304   5.818   2.490  17.109  1.0540 -0.8089  2.2218
 4271TIP3    H234305   5.901   2.396  17.025 -0.2414  0.4041 -0.4819
 4272TIP3   OH234306   4.467   5.064   6.073  0.1580 -0.4474 -0.0693
 4272TIP3    H134307   4.505   5.111   6.148 -0.1461 -0.2882 -0.0149
 4272TIP3    H234308   4.528   5.080   6.001  1.0635 -1.5532  0.4359
 4273TIP3   OH234309   0.506   6.787   1.631 -0.7093  0.4838 -0.4763
 4273TIP3    H134310   0.584   6.734   1.612 -1.3364 -0.4979 -0.3780
 4273TIP3    H234311   0.536   6.878   1.626  0.4168  0.1153 -0.5365
 4274TIP3   OH234312   3.061   5.140  16.249  0.0919 -0.2627  0.2650
 4274TIP3    H134313   3.120   5.077  16.206  1.0468  1.1245 -0.5059
 4274TIP3    H234314   2.974   5.100  16.242  0.4627 -0.8059 -1.5451
 4275TIP3   OH234315   5.745   5.101  17.044  0.1072  0.0602 -0.4244
 4275TIP3    H134316   5.759   5.068  16.955 -0.0821  4.0606 -2.0395
 4275TIP3    H234317   5.652   5.090  17.060  0.3273 -1.6854 -0.2580
 4276TIP3   OH234318   2.755   3.780  15.595  0.3290  0.5731  0.3268
 4276TIP3    H134319   2.685   3.839  15.566 -0.5061 -0.7573 -0.4071
 4276TIP3    H234320   2.713   3.723  15.660  1.1655  0.8735  1.1424
 4277TIP3   OH234321   0.011   3.956  13.371 -0.1471 -0.3844 -0.0026
 4277TIP3    H134322   0.018   3.987  13.280  2.0042 -0.4304  0.1215
 4277TIP3    H234323  -0.082   3.936  13.382 -0.3274 -1.0840 -2.4347
 4278TIP3   OH234324   4.374   1.937  16.719 -0.3105 -0.0490 -0.2284
 4278TIP3    H134325   4.411   1.851  16.742 -1.1995 -0.4397 -0.2165
 4278TIP3    H234326   4.448   1.997  16.723  0.7568 -1.1913 -2.3837
 4279TIP3   OH234327   1.581   3.505   5.224  0.2468  0.2159 -0.4242
 4279TIP3    H134328   1.518   3.526   5.155 -0.8847 -2.1407 -0.1170
 4279TIP3    H234329   1.529   3.465   5.293  1.8328 -0.2005  0.5453
 4280TIP3   OH234330   6.018   4.112   4.780  0.7025  0.6648  0.0964
 4280TIP3    H134331   5.979   4.192   4.816  0.4256  0.1891  0.8480
 4280TIP3    H234332   5.944   4.061   4.748  0.9211  0.9525 -0.9118
 4281TIP3   OH234333   3.550   3.613  17.260  0.6577  0.1382  0.3408
 4281TIP3    H134334   3.607   3.660  17.200 -1.2033  1.5538 -0.3690
 4281TIP3    H234335   3.510   3.545  17.206  1.1299 -0.4076  0.6730
 4282TIP3   OH234336   3.031   5.099   5.646 -0.1135  0.0416  0.0348
 4282TIP3    H134337   2.954   5.145   5.681 -0.7815 -0.6413 -0.5136
 4282TIP3    H234338   3.039   5.132   5.556  2.0332  2.3492  1.0130
 4283TIP3   OH234339   0.066   1.940  14.526 -0.5716 -0.2145  0.5080
 4283TIP3    H134340   0.070   1.882  14.449 -1.3209  1.4276 -0.8026
 4283TIP3    H234341   0.148   1.990  14.522 -0.1336 -0.8632  1.3751
 4284TIP3   OH234342   3.455   6.729  15.583  0.2215 -0.4527 -0.0946
 4284TIP3    H134343   3.515   6.660  15.612  0.1420 -0.1805  0.7503
 4284TIP3    H234344   3.409   6.756  15.663  0.5663  0.8841 -0.3309
 4285TIP3   OH234345   6.202   3.006   0.452  0.2998  0.6247 -0.4933
 4285TIP3    H134346   6.123   2.987   0.402 -0.0630 -0.1281  0.3644
 4285TIP3    H234347   6.252   3.065   0.395 -2.0209  3.1837  0.0112
 4286TIP3   OH234348   2.443   6.634  12.847  0.3157 -0.0148  0.1639
 4286TIP3    H134349   2.503   6.707  12.830 -0.4828  0.6472  0.1413
 4286TIP3    H234350   2.356   6.675  12.848  0.0275 -0.6135  2.3141
 4287TIP3   OH234351   3.572   1.529   0.495  0.3001 -0.3055  0.3604
 4287TIP3    H134352   3.547   1.520   0.587  1.4943 -2.7271  0.5028
 4287TIP3    H234353   3.503   1.483   0.448  1.8381 -2.7292  0.3949
 4288TIP3   OH234354   6.064   3.057  12.205  0.1453 -0.5342 -0.3874
 4288TIP3    H134355   6.104   3.058  12.292  0.1165  0.0674 -0.3788
 4288TIP3    H234356   5.972   3.076  12.220  0.4102  1.0149 -0.6833
 4289TIP3   OH234357   1.793   4.140   2.676  0.0505 -0.5082  0.0586
 4289TIP3    H134358   1.735   4.126   2.601  1.0564  0.4132 -0.8908
 4289TIP3    H234359   1.859   4.201   2.645  1.3515 -1.2806  1.2394
 4290TIP3   OH234360   0.020   5.225  14.244 -0.4005 -0.3508  0.4064
 4290TIP3    H134361   0.051   5.234  14.154  0.9329  1.0418  0.9775
 4290TIP3    H234362   0.099   5.211  14.296 -0.8193  1.9323  1.7317
 4291TIP3   OH234363   5.650   6.337   1.983 -0.0759  0.1825  0.4262
 4291TIP3    H134364   5.687   6.353   2.070  0.9475 -1.0808  0.2425
 4291TIP3    H234365   5.725   6.340   1.924 -0.4517 -1.0092 -0.1335
 4292TIP3   OH234366   2.198   5.327  14.063 -0.2190  0.1491 -0.4361
 4292TIP3    H134367   2.217   5.360  14.151  0.8896  1.1204 -1.0342
 4292TIP3    H234368   2.113   5.284  14.072 -0.1983  0.3955  1.0706
 4293TIP3   OH234369   5.882   3.579  14.722 -0.5226 -0.6636 -0.1788
 4293TIP3    H134370   5.799   3.548  14.757 -1.3890  1.4028 -0.3614
 4293TIP3    H234371   5.935   3.599  14.799 -0.4293 -1.3171 -0.0663
 4294TIP3   OH234372   0.626   5.530   4.096 -0.3681 -0.0760  0.0350
 4294TIP3    H134373   0.701   5.555   4.149 -1.3279 -0.6881  1.7164
 4294TIP3    H234374   0.591   5.451   4.139 -0.9930 -0.7545 -1.6667
 4295TIP3   OH234375   5.181   6.460  16.440  0.0284  0.5662 -0.3370
 4295TIP3    H134376   5.151   6.547  16.467 -0.4883  0.7039 -1.3524
 4295TIP3    H234377   5.264   6.448  16.486 -0.0300  1.4872  0.0131
 4296TIP3   OH234378   6.723   5.081   4.197  0.6746  0.5651  0.0824
 4296TIP3    H134379   6.735   5.115   4.286 -0.4442 -1.5709  1.0948
 4296TIP3    H234380   6.802   5.031   4.179  0.4102  0.0348  0.3590
 4297TIP3   OH234381   2.312   3.879   0.181 -0.0859  0.3857 -0.1724
 4297TIP3    H134382   2.326   3.910   0.091 -0.6980  0.2795 -0.3048
 4297TIP3    H234383   2.336   3.954   0.236 -1.0207  0.9100 -0.4697
 4298TIP3   OH234384   4.041   6.098   4.029 -0.4921  0.2995 -0.3307
 4298TIP3    H134385   4.057   6.189   4.006  0.7682  0.0728 -0.4071
 4298TIP3    H234386   3.946   6.091   4.036 -0.6280  1.4773 -0.8897
 4299TIP3   OH234387   0.988   1.953  14.732  0.6331  0.2891  0.9797
 4299TIP3    H134388   0.894   1.964  14.746  0.4633  0.4419 -0.2028
 4299TIP3    H234389   1.029   1.993  14.808 -0.2561  0.6750  1.2570
 4300TIP3   OH234390   3.826   6.464   1.747  0.2510 -0.1911 -0.3555
 4300TIP3    H134391   3.791   6.465   1.658 -4.6638  0.3321  1.4289
 4300TIP3    H234392   3.859   6.553   1.760 -1.4120  0.5159 -0.8109
 4301TIP3   OH234393   0.748   4.296  16.203 -0.0979  0.3203 -0.2574
 4301TIP3    H134394   0.774   4.312  16.112  1.9938  0.5322  0.3557
 4301TIP3    H234395   0.673   4.354  16.217 -1.5742 -1.0198 -2.3740
 4302TIP3   OH234396   1.015   1.467  14.418  0.1882 -0.6915  0.2648
 4302TIP3    H134397   1.012   1.434  14.508 -1.6799 -0.9363  0.1360
 4302TIP3    H234398   0.967   1.402  14.368 -1.6750  1.1373 -0.3630
 4303TIP3   OH234399   3.850   6.407  12.096 -0.5867  0.3106  0.3951
 4303TIP3    H134400   3.828   6.499  12.116  0.5270  0.7623 -0.4296
 4303TIP3    H234401   3.904   6.412  12.018 -1.1992 -1.1252 -0.1400
 4304TIP3   OH234402   1.899   4.589   3.959  0.6054 -0.3764  0.6523
 4304TIP3    H134403   1.966   4.608   4.025  1.0697  0.2195  0.0259
 4304TIP3    H234404   1.819   4.628   3.993  1.0621  0.7918  0.4215
 4305TIP3   OH234405   2.088   4.841  12.624  0.5997  0.2255  0.2870
 4305TIP3    H134406   2.012   4.844  12.566  0.5085 -0.3439  0.3763
 4305TIP3    H234407   2.147   4.907  12.589 -0.8772  2.2698  1.5361
 4306TIP3   OH234408   6.334   0.010   1.482 -0.1823 -0.6591 -0.3790
 4306TIP3    H134409   6.244   0.017   1.452 -0.2188 -0.2963 -0.1836
 4306TIP3    H234410   6.336   0.058   1.565  0.2378 -0.4810 -0.4898
 4307TIP3   OH234411   2.545   1.373   0.108 -0.7124 -0.5601 -0.5490
 4307TIP3    H134412   2.555   1.456   0.154  0.0493  0.2139 -2.0710
 4307TIP3    H234413   2.454   1.373   0.078 -1.2861 -1.1828  1.1361
 4308TIP3   OH234414   5.555   1.574   4.595  0.3041  0.1881  0.6000
 4308TIP3    H134415   5.551   1.491   4.643  2.0608 -0.6136 -0.5633
 4308TIP3    H234416   5.602   1.552   4.514  1.6401  2.5029  0.7042
 4309TIP3   OH234417   1.562   3.662  15.328  0.7419  0.3283 -0.0207
 4309TIP3    H134418   1.620   3.738  15.319  0.9679  0.0603 -0.8436
 4309TIP3    H234419   1.613   3.589  15.293 -0.5014  0.2915 -1.7782
 4310TIP3   OH234420   0.342   0.382  13.112  0.1548  0.4251 -0.4201
 4310TIP3    H134421   0.258   0.377  13.064 -1.9950  1.9357  3.0230
 4310TIP3    H234422   0.332   0.320  13.184  2.5471 -0.2801 -0.6458
 4311TIP3   OH234423   6.150   0.073  12.214 -0.1895 -0.1307 -0.0917
 4311TIP3    H134424   6.173  -0.005  12.164 -0.6713 -0.4037  0.1125
 4311TIP3    H234425   6.056   0.085  12.200  0.0687  1.0196 -0.9684
 4312TIP3   OH234426   5.273   3.256   4.370  0.3172  0.2054  0.2982
 4312TIP3    H134427   5.317   3.341   4.377 -0.0813  0.3631  0.9921
 4312TIP3    H234428   5.215   3.265   4.294 -1.4429  1.3756  1.7121
 4313TIP3   OH234429   1.652   1.694  17.242 -0.8457 -0.3174  0.2401
 4313TIP3    H134430   1.663   1.606  17.279 -2.1765 -0.5587  0.0700
 4313TIP3    H234431   1.656   1.752  17.317  1.9348 -0.3376  0.1715
 4314TIP3   OH234432   4.778   1.268   0.828  0.4187 -0.7335  0.5592
 4314TIP3    H134433   4.792   1.271   0.734  2.4592 -0.3538  0.8573
 4314TIP3    H234434   4.696   1.317   0.841  0.5981 -0.0049 -0.9179
 4315TIP3   OH234435   5.271   0.126   5.783 -0.5346  0.3058  0.1248
 4315TIP3    H134436   5.292   0.197   5.844  1.1709 -0.7444  0.8088
 4315TIP3    H234437   5.296   0.046   5.830  0.2870 -0.5502 -1.7144
 4316TIP3   OH234438   1.618   1.860  14.074 -0.1310 -0.1532 -0.2747
 4316TIP3    H134439   1.559   1.785  14.075  0.0648 -0.3086 -0.0650
 4316TIP3    H234440   1.612   1.896  14.163  0.6899 -0.6508 -0.0116
 4317TIP3   OH234441   6.234   2.780   0.125 -0.4275 -0.0236  0.4659
 4317TIP3    H134442   6.249   2.868   0.088  0.1570 -0.8586 -1.3649
 4317TIP3    H234443   6.313   2.732   0.104 -1.3564 -1.4304  0.1281
 4318TIP3   OH234444   5.932   5.560   5.180  0.5572  0.3438  0.0993
 4318TIP3    H134445   5.857   5.609   5.213 -0.8055 -0.9304 -1.0539
 4318TIP3    H234446   5.946   5.594   5.092  0.7844 -0.0514 -0.0178
 4319TIP3   OH234447   1.182   1.527  13.654  0.0439  0.4002  0.0299
 4319TIP3    H134448   1.222   1.614  13.652 -0.5616  0.7038  0.9321
 4319TIP3    H234449   1.235   1.475  13.593  0.0205  1.5636 -1.0075
 4320TIP3   OH234450   0.718   0.565   2.855 -0.2687  0.3962  0.1388
 4320TIP3    H134451   0.690   0.478   2.885 -0.6031  1.4650  3.0814
 4320TIP3    H234452   0.805   0.576   2.892 -0.2550  1.3530 -0.1727
 4321TIP3   OH234453   6.476   6.210   0.553 -0.7383  0.6745  0.0870
 4321TIP3    H134454   6.446   6.133   0.601  0.5130  0.8249  1.1106
 4321TIP3    H234455   6.401   6.233   0.497 -0.9517 -1.5764 -0.6219
 4322TIP3   OH234456   2.824   5.885   1.551 -0.3948 -0.2683  0.3486
 4322TIP3    H134457   2.913   5.857   1.570 -0.3389 -0.7665 -0.6021
 4322TIP3    H234458   2.804   5.950   1.618  0.8585  0.2058  0.2703
 4323TIP3   OH234459   6.693   2.912   3.574  0.0436  0.1192 -0.7802
 4323TIP3    H134460   6.733   2.828   3.594 -0.2780  0.0193 -0.5605
 4323TIP3    H234461   6.602   2.903   3.600  0.0955  0.6627 -0.3994
 4324TIP3   OH234462   2.852   0.692  15.445  0.4013  0.1330 -0.2499
 4324TIP3    H134463   2.911   0.724  15.513  2.1361  0.9218 -2.0435
 4324TIP3    H234464   2.906   0.692  15.366 -1.0743 -2.3538 -1.3055
 4325TIP3   OH234465   0.294   0.557   5.750 -0.2133 -0.0211 -0.0205
 4325TIP3    H134466   0.345   0.636   5.767 -0.2557  1.0175 -4.2028
 4325TIP3    H234467   0.352   0.485   5.777  1.0570  1.3041  0.8529
 4326TIP3   OH234468   1.691   5.457   0.226 -0.4065  1.0046  0.3613
 4326TIP3    H134469   1.711   5.497   0.310  0.6733 -0.9552  1.0652
 4326TIP3    H234470   1.708   5.364   0.239 -0.0429  0.6990 -2.0824
 4327TIP3   OH234471   2.103   4.718  16.475  0.3950  0.1117 -0.6263
 4327TIP3    H134472   2.034   4.661  16.441 -0.0628 -0.7510  1.6688
 4327TIP3    H234473   2.184   4.672  16.454  0.0778 -0.8418  0.1774
 4328TIP3   OH234474   3.034   5.255   5.402 -0.1969  0.7789  0.4841
 4328TIP3    H134475   2.967   5.302   5.452 -1.9029 -0.4379 -0.5961
 4328TIP3    H234476   3.087   5.324   5.362 -1.0793  1.7650  0.9886
 4329TIP3   OH234477   0.690   5.125  11.851 -0.5022  0.3567  0.2607
 4329TIP3    H134478   0.717   5.191  11.915 -2.5801  1.2278  0.2935
 4329TIP3    H234479   0.601   5.102  11.877 -0.6643 -0.7102 -1.1735
 4330TIP3   OH234480   2.015   0.139   2.538 -0.3488 -0.3707 -0.3231
 4330TIP3    H134481   2.017   0.187   2.621 -1.3753 -1.5058  0.3690
 4330TIP3    H234482   1.991   0.206   2.473 -1.9205  0.0549  0.6532
 4331TIP3   OH234483   2.997   5.538  16.938 -0.1382  0.6153 -0.0855
 4331TIP3    H134484   2.902   5.543  16.925  0.0902  1.9130 -1.4569
 4331TIP3    H234485   3.017   5.445  16.929 -1.3094  0.3033  0.4319
 4332TIP3   OH234486   6.355   1.843  16.825 -0.5961 -0.6317 -0.1264
 4332TIP3    H134487   6.433   1.790  16.841  0.8451  1.8755  1.4242
 4332TIP3    H234488   6.286   1.779  16.809  0.8043 -3.0231  2.8353
 4333TIP3   OH234489   3.801   5.297   2.359  0.8982  0.3817  0.4339
 4333TIP3    H134490   3.728   5.254   2.315 -0.2401  0.4035  2.2726
 4333TIP3    H234491   3.879   5.263   2.314 -0.1628 -0.6282 -0.6860
 4334TIP3   OH234492   2.810   4.299   2.090  0.5956  0.4739 -0.1512
 4334TIP3    H134493   2.759   4.277   2.012 -0.0629  1.0602  0.1103
 4334TIP3    H234494   2.748   4.295   2.162  1.0955  0.4053  0.2805
 4335TIP3   OH234495   5.717   2.064  13.766 -0.7098 -0.0721 -0.1263
 4335TIP3    H134496   5.788   2.008  13.798  0.3276  0.3704 -1.6141
 4335TIP3    H234497   5.646   2.002  13.746 -0.0354 -0.7392 -0.5123
 4336TIP3   OH234498   1.469   0.515   1.088 -0.4972 -0.1766  0.8577
 4336TIP3    H134499   1.412   0.439   1.103 -0.6949  0.0619  1.3260
 4336TIP3    H234500   1.413   0.591   1.105  0.3695  0.0500  2.9399
 4337TIP3   OH234501   3.939   1.114  14.020 -0.0591 -0.3767  0.4163
 4337TIP3    H134502   3.958   1.133  13.928  0.3290  0.6937  0.7077
 4337TIP3    H234503   3.967   1.193  14.066 -1.0675 -0.5616  1.3568
 4338TIP3   OH234504   4.387   5.144   1.870 -0.0346  0.1271  0.2652
 4338TIP3    H134505   4.389   5.231   1.911 -0.5560  0.5338 -0.5611
 4338TIP3    H234506   4.298   5.112   1.886  0.0313 -0.0777  0.2152
 4339TIP3   OH234507   3.982   0.020   1.951 -0.3972  0.3562  0.2348
 4339TIP3    H134508   4.003   0.049   2.040 -0.9950  0.6671  0.2746
 4339TIP3    H234509   3.925  -0.056   1.963 -1.4271  1.0984  0.1188
 4340TIP3   OH234510   4.961   0.160  15.443 -0.1059  0.1993 -0.2011
 4340TIP3    H134511   4.898   0.204  15.499 -0.0851 -0.1797  0.1193
 4340TIP3    H234512   4.908   0.113  15.378 -0.1271  0.7262 -0.5664
 4341TIP3   OH234513   5.144   5.350   5.991 -0.3156 -0.3579 -0.2168
 4341TIP3    H134514   5.237   5.341   5.968 -0.0188 -0.8449  1.1179
 4341TIP3    H234515   5.143   5.415   6.062 -0.8282 -1.3738  0.7328
 4342TIP3   OH234516   5.551   2.109   1.529 -0.0844 -0.2959  0.1171
 4342TIP3    H134517   5.458   2.116   1.554  0.7868 -0.0497  3.5725
 4342TIP3    H234518   5.590   2.055   1.598  2.2176 -0.9831 -1.6797
 4343TIP3   OH234519   4.324   0.847  16.650  0.5816 -0.2182  0.2068
 4343TIP3    H134520   4.277   0.927  16.626 -0.1436 -0.2009  1.6386
 4343TIP3    H234521   4.288   0.780  16.593  1.7099  0.6046 -1.5167
 4344TIP3   OH234522   5.270   2.807   5.398  0.2850 -0.0223  0.3812
 4344TIP3    H134523   5.320   2.880   5.363 -1.0390  0.5634 -0.3363
 4344TIP3    H234524   5.321   2.776   5.472  1.2934  1.0767  0.1544
 4345TIP3   OH234525   5.857   5.656   3.770 -0.2745  0.0193  0.0643
 4345TIP3    H134526   5.811   5.739   3.758 -1.7413 -0.7351  0.4035
 4345TIP3    H234527   5.897   5.639   3.684 -0.3612  0.8159 -0.1452
 4346TIP3   OH234528   2.893   0.322  14.417 -0.4359 -0.2730  0.3096
 4346TIP3    H134529   2.819   0.373  14.450 -0.3714  0.8871 -1.2907
 4346TIP3    H234530   2.864   0.231  14.423 -1.9166  0.1571 -0.1080
 4347TIP3   OH234531   6.187   5.227  16.308 -0.3462 -0.2216  0.1195
 4347TIP3    H134532   6.196   5.278  16.228 -0.8496  0.2673  0.3684
 4347TIP3    H234533   6.095   5.202  16.311 -0.9877  2.1697  1.9589
 4348TIP3   OH234534   3.874   1.628   4.345  0.9769 -0.4782  0.1197
 4348TIP3    H134535   3.933   1.555   4.364  1.5893  0.0846  0.4038
 4348TIP3    H234536   3.925   1.687   4.290  0.4013 -0.3867 -0.3174
 4349TIP3   OH234537   5.929   3.217   1.383 -0.2805  0.0324 -0.6838
 4349TIP3    H134538   5.968   3.167   1.311 -1.5478 -1.0948 -0.6149
 4349TIP3    H234539   5.842   3.178   1.395 -0.0614  0.1229  1.5065
 4350TIP3   OH234540   1.303   5.267  12.040 -0.4087 -0.3175  0.2981
 4350TIP3    H134541   1.253   5.225  12.110  0.7724 -1.7052  0.3380
 4350TIP3    H234542   1.352   5.337  12.083 -2.3832  1.1240  0.2382
 4351TIP3   OH234543   0.052   5.116   1.119  0.2600 -0.0839  0.1111
 4351TIP3    H134544   0.036   5.022   1.121  0.8496 -0.1919 -0.1391
 4351TIP3    H234545   0.145   5.125   1.141 -0.1017  0.5163  1.4405
 4352TIP3   OH234546   6.145   4.937  12.402 -0.5793  0.1104 -0.4210
 4352TIP3    H134547   6.182   5.025  12.397  2.5839 -1.0654  0.7331
 4352TIP3    H234548   6.051   4.951  12.412 -0.1008  3.3582  0.1379
 4353TIP3   OH234549   6.751   2.381  17.092 -0.3362 -0.5208  0.3247
 4353TIP3    H134550   6.745   2.442  17.166 -0.1245 -0.5629  0.3799
 4353TIP3    H234551   6.821   2.320  17.118  0.8397  0.4068 -0.5815
 4354TIP3   OH234552   0.551   6.069  11.603 -0.3964 -0.0394  0.2664
 4354TIP3    H134553   0.560   6.160  11.575 -1.1254  0.0987  0.4740
 4354TIP3    H234554   0.607   6.062  11.680 -0.3851  0.2429  0.2852
 4355TIP3   OH234555   1.157   4.426  15.231  0.0425 -0.6220 -0.5458
 4355TIP3    H134556   1.228   4.483  15.201  0.0413 -0.9205 -1.1171
 4355TIP3    H234557   1.161   4.432  15.327  2.1015 -2.1980 -0.4968
 4356TIP3   OH234558   5.697   0.858   4.741 -0.0296  0.4343 -0.2815
 4356TIP3    H134559   5.790   0.874   4.731  0.0032  0.1095 -0.4908
 4356TIP3    H234560   5.663   0.938   4.781  0.3683  0.4778 -0.0364
 4357TIP3   OH234561   3.713   3.541  14.407 -0.1366  0.5586  0.0356
 4357TIP3    H134562   3.675   3.628  14.393 -2.5071 -0.2119  1.4073
 4357TIP3    H234563   3.678   3.489  14.335 -0.6548  0.1668  0.5657
 4358TIP3   OH234564   5.954   2.458  16.566 -0.3713 -0.3018 -0.6932
 4358TIP3    H134565   5.977   2.551  16.563  0.3134 -0.4410  0.0398
 4358TIP3    H234566   5.891   2.451  16.637  0.7298 -0.6270  0.2741
 4359TIP3   OH234567   5.737   4.037  12.929 -0.0249 -0.2410 -0.1078
 4359TIP3    H134568   5.699   3.985  12.858 -3.2986 -0.3040  1.5849
 4359TIP3    H234569   5.704   3.996  13.009  1.4099  1.4327  1.3906
 4360TIP3   OH234570   5.470   2.195  13.087  0.0737  0.0123 -0.0890
 4360TIP3    H134571   5.480   2.277  13.039 -1.0022  0.0632 -0.2268
 4360TIP3    H234572   5.552   2.186  13.137  0.2573  1.0752 -0.2034
 4361TIP3   OH234573   1.725   4.142   2.266  0.4467  0.1891 -0.4778
 4361TIP3    H134574   1.797   4.098   2.312 -0.1151 -0.4000 -0.1523
 4361TIP3    H234575   1.757   4.152   2.176 -0.1991 -2.7892 -1.0945
 4362TIP3   OH234576   5.891   5.476   4.009  0.2601  0.2862  0.6478
 4362TIP3    H134577   5.809   5.517   3.982  1.5188  2.7632  0.3712
 4362TIP3    H234578   5.907   5.408   3.943 -1.7496 -0.4973  0.9443
 4363TIP3   OH234579   0.650   2.464   5.501 -0.3238  0.1165 -0.1486
 4363TIP3    H134580   0.738   2.468   5.463 -0.0562  0.1238  0.4649
 4363TIP3    H234581   0.646   2.378   5.542  0.6903  1.4206  2.8763
 4364TIP3   OH234582   6.527   4.791   4.215  0.5628 -0.8186 -0.5716
 4364TIP3    H134583   6.538   4.843   4.295 -1.0487  0.8488 -1.3932
 4364TIP3    H234584   6.531   4.856   4.144 -1.3514 -1.8182 -1.6369
 4365TIP3   OH234585   4.409   2.336  11.470 -0.2809 -0.0837  0.0258
 4365TIP3    H134586   4.433   2.244  11.478 -0.6028  0.0392  2.5439
 4365TIP3    H234587   4.482   2.384  11.508 -1.3806  0.5741  1.3523
 4366TIP3   OH234588   3.688   4.899  16.635  0.5332  0.3497 -0.5867
 4366TIP3    H134589   3.753   4.956  16.675  0.4710  0.1170 -0.1450
 4366TIP3    H234590   3.684   4.823  16.693  0.3255  0.0774 -0.9523
 4367TIP3   OH234591   3.093   2.758  14.081  0.1508 -0.0626 -0.7638
 4367TIP3    H134592   3.009   2.774  14.039 -0.2092 -1.6460 -0.6821
 4367TIP3    H234593   3.141   2.704  14.018  0.4022 -0.7083 -0.0299
 4368TIP3   OH234594   6.290   6.006  12.057 -0.2950 -0.3790 -0.4243
 4368TIP3    H134595   6.346   5.966  11.991 -0.4710 -2.8675  0.8806
 4368TIP3    H234596   6.204   6.014  12.015 -0.2152 -1.2232 -0.7504
 4369TIP3   OH234597   1.210   2.104   4.124  0.0830  0.2047 -0.5946
 4369TIP3    H134598   1.140   2.150   4.077 -0.5649  0.1150  0.2711
 4369TIP3    H234599   1.194   2.012   4.107  0.4783  0.2231 -1.0715
 4370TIP3   OH234600   3.062   0.655  12.833 -0.3854  0.6085 -0.0802
 4370TIP3    H134601   3.141   0.694  12.872 -0.8349  1.9094 -0.4310
 4370TIP3    H234602   3.047   0.575  12.883  0.6390  0.8213  0.5848
 4371TIP3   OH234603   1.403   0.969   4.065  0.0759 -0.4601  0.1351
 4371TIP3    H134604   1.322   0.979   4.015  1.2638  1.8131 -1.4135
 4371TIP3    H234605   1.412   1.051   4.113  2.0224 -0.1996 -0.6094
 4372TIP3   OH234606   4.580   0.090   1.907  0.4601 -0.1621  0.2722
 4372TIP3    H134607   4.585   0.003   1.946  1.9340 -0.2974 -0.1787
 4372TIP3    H234608   4.636   0.085   1.829  0.3126  1.0873  0.0698
 4373TIP3   OH234609   5.373   4.015  13.524 -0.1107 -0.0444  0.3678
 4373TIP3    H134610   5.405   4.005  13.614 -3.5110  1.9762  1.9210
 4373TIP3    H234611   5.316   3.939  13.511 -0.2142  0.0596  0.2155
 4374TIP3   OH234612   6.098   3.951  16.277  0.3324 -0.0960 -0.1068
 4374TIP3    H134613   6.004   3.945  16.259 -0.0087 -1.1608  1.9166
 4374TIP3    H234614   6.126   3.860  16.291  2.1078 -0.0231 -2.7311
 4375TIP3   OH234615   2.112   3.276  12.291  0.4331 -0.1267  0.5660
 4375TIP3    H134616   2.165   3.262  12.213 -1.2676  0.8375 -0.7912
 4375TIP3    H234617   2.034   3.323  12.260  0.4680  1.7309  3.0798
 4376TIP3   OH234618   0.289   5.970  11.315  0.0535  0.1559  0.2059
 4376TIP3    H134619   0.309   6.053  11.272 -1.8814 -0.2107 -1.4513
 4376TIP3    H234620   0.367   5.916  11.301  0.4429  0.9333 -0.6010
 4377TIP3   OH234621   0.554   3.627  14.684 -0.0077  1.0760 -0.2041
 4377TIP3    H134622   0.459   3.635  14.668 -0.1560  0.8507  0.5387
 4377TIP3    H234623   0.589   3.711  14.656 -0.2263  0.6409 -1.8583
 4378TIP3   OH234624   0.625   2.497   4.556 -0.6366 -0.5623 -0.2415
 4378TIP3    H134625   0.623   2.593   4.554 -0.7880 -0.5396  0.7879
 4378TIP3    H234626   0.702   2.474   4.503 -0.0555  0.1587  0.2733
 4379TIP3   OH234627   3.325   5.905  15.548 -0.1734  0.7845  0.0330
 4379TIP3    H134628   3.256   5.849  15.583 -0.5608  1.4873  0.4047
 4379TIP3    H234629   3.280   5.961  15.485  0.2276  0.6409 -0.3878
 4380TIP3   OH234630   1.564   5.110   0.590  0.4170  0.2088  0.2147
 4380TIP3    H134631   1.610   5.188   0.623  0.7569  0.3252 -0.5235
 4380TIP3    H234632   1.472   5.127   0.609  0.3533  1.3291 -0.9876
 4381TIP3   OH234633   3.215   6.333   0.139  0.7240 -0.0214  0.5009
 4381TIP3    H134634   3.287   6.396   0.143  0.2377  0.6085 -0.6022
 4381TIP3    H234635   3.137   6.387   0.130  0.2908 -0.7703 -0.2702
 4382TIP3   OH234636   6.364   1.877   3.222 -0.4568 -0.1961  0.0508
 4382TIP3    H134637   6.420   1.837   3.288 -0.2314  2.3297  1.4691
 4382TIP3    H234638   6.297   1.812   3.204  0.2859 -1.4620  1.7233
 4383TIP3   OH234639   4.482   1.485   2.788 -0.0790 -0.0604  0.1272
 4383TIP3    H134640   4.434   1.563   2.819 -0.0105 -0.6018  1.6684
 4383TIP3    H234641   4.570   1.517   2.769 -0.4306  0.5072 -0.5673
 4384TIP3   OH234642   1.714   5.551  12.394  0.0219  0.2654 -0.1595
 4384TIP3    H134643   1.768   5.513  12.463 -1.1728  1.3789  1.4069
 4384TIP3    H234644   1.776   5.601  12.341  0.9374 -0.5618  0.1141
 4385TIP3   OH234645   0.280   0.795   5.542  0.2266 -0.1165  0.2086
 4385TIP3    H134646   0.356   0.790   5.483 -0.6880 -0.8091 -0.9360
 4385TIP3    H234647   0.274   0.708   5.580 -0.0083 -0.0661  0.2810
 4386TIP3   OH234648   2.479   5.715  11.196  0.2629  0.3943 -0.0872
 4386TIP3    H134649   2.407   5.722  11.134  1.1847 -2.5484 -1.6217
 4386TIP3    H234650   2.555   5.752  11.150  1.3370 -3.3507 -1.5344
 4387TIP3   OH234651   5.717   6.435  15.497 -0.2139  1.0034 -0.0017
 4387TIP3    H134652   5.638   6.396  15.534  0.2258 -0.8462 -0.9126
 4387TIP3    H234653   5.686   6.483  15.420 -0.4632  0.2575 -0.3770
 4388TIP3   OH234654   2.971   5.416   0.753  0.1127 -0.3002 -0.5547
 4388TIP3    H134655   2.970   5.404   0.848 -0.3986  0.4934 -0.4544
 4388TIP3    H234656   3.063   5.433   0.732  0.0920  0.4327 -0.0766
 4389TIP3   OH234657   3.618   0.056   3.439 -0.1717  0.1578  0.5069
 4389TIP3    H134658   3.561  -0.006   3.484  0.6278  0.0277  1.3629
 4389TIP3    H234659   3.559   0.123   3.403 -0.8828 -0.1786  1.0565
 4390TIP3   OH234660   1.531   1.858  16.474 -0.2763  0.1811 -0.0814
 4390TIP3    H134661   1.598   1.833  16.538  1.0152  0.4943 -1.2891
 4390TIP3    H234662   1.532   1.954  16.473 -1.1763  0.2029  0.3318
 4391TIP3   OH234663   4.926   1.747   2.596 -0.6373  0.4759 -0.6182
 4391TIP3    H134664   4.831   1.733   2.591 -0.3311 -1.0180 -2.4898
 4391TIP3    H234665   4.959   1.671   2.644 -0.1267 -0.2742 -2.1193
 4392TIP3   OH234666   1.179   4.845  16.470  0.2830  0.6341  0.0814
 4392TIP3    H134667   1.177   4.929  16.516 -0.2917  1.1015 -0.7820
 4392TIP3    H234668   1.095   4.804  16.492  0.4571  0.3948  0.2994
 4393TIP3   OH234669   1.501   3.183   6.308  0.6237  0.5783 -0.0185
 4393TIP3    H134670   1.501   3.088   6.321 -1.3563  0.6648  0.9119
 4393TIP3    H234671   1.565   3.198   6.239  1.1489 -1.4122 -0.0039
 4394TIP3   OH234672   2.917   4.914   5.920 -0.4220 -0.0124 -0.4155
 4394TIP3    H134673   2.955   4.981   5.977  0.9676 -2.9533  2.2450
 4394TIP3    H234674   2.834   4.891   5.960  0.1186 -1.4282 -0.0939
 4395TIP3   OH234675   1.640   0.554  14.715  0.0039 -0.5881 -0.3530
 4395TIP3    H134676   1.588   0.634  14.707  0.5746 -0.3549 -1.8608
 4395TIP3    H234677   1.660   0.548  14.809 -2.3903 -0.4655  0.1892
 4396TIP3   OH234678   1.297   1.410  15.243  0.2168 -0.4526 -0.4440
 4396TIP3    H134679   1.267   1.454  15.322  2.0687 -0.9515  0.5500
 4396TIP3    H234680   1.326   1.480  15.186 -1.3714 -0.0712 -0.8214
 4397TIP3   OH234681   6.499   3.272  11.922  0.2149  0.3153  0.1329
 4397TIP3    H134682   6.432   3.292  11.987  1.6122  0.3381  1.6065
 4397TIP3    H234683   6.525   3.182  11.941 -2.7533 -1.4600 -3.4983
 4398TIP3   OH234684   6.440   0.042   5.327  0.4388  0.2125  0.4655
 4398TIP3    H134685   6.531   0.071   5.338  0.0299  0.8259  2.3894
 4398TIP3    H234686   6.414   0.079   5.242  2.1180 -0.3726 -0.3390
 4399TIP3   OH234687   3.596   1.809   1.706  0.1277  0.0092 -0.0730
 4399TIP3    H134688   3.562   1.788   1.793  0.6660 -0.3867  0.0467
 4399TIP3    H234689   3.523   1.793   1.647 -0.7198  1.7382  0.4635
 4400TIP3   OH234690   0.887   6.431  15.735  0.3815  0.0673  0.3606
 4400TIP3    H134691   0.858   6.489  15.806 -0.5588  0.5964 -0.4498
 4400TIP3    H234692   0.850   6.346  15.758 -1.1215  0.5572 -0.2372
 4401TIP3   OH234693   5.940   1.718  11.226  0.0951 -0.1414 -0.4734
 4401TIP3    H134694   5.893   1.634  11.230 -1.1885  0.5594 -0.3931
 4401TIP3    H234695   6.031   1.695  11.241 -0.2281 -1.5398 -0.5247
 4402TIP3   OH234696   4.947   0.455  11.842 -0.0496  0.8410 -0.5346
 4402TIP3    H134697   4.854   0.478  11.844 -0.3581 -0.1457 -2.1975
 4402TIP3    H234698   4.965   0.419  11.928 -1.6797 -0.6050 -0.7736
 4403TIP3   OH234699   2.530   2.860   2.068 -0.3213 -0.4085 -0.1638
 4403TIP3    H134700   2.539   2.915   1.991  1.5836 -0.5269 -0.0463
 4403TIP3    H234701   2.467   2.793   2.043 -1.9566  1.2651 -0.6117
 4404TIP3   OH234702   5.627   3.428  16.958  0.4573 -0.2187 -0.2750
 4404TIP3    H134703   5.652   3.342  16.992 -0.5103 -0.4726 -0.1910
 4404TIP3    H234704   5.690   3.489  16.996  1.7530 -1.0142 -1.1036
 4405TIP3   OH234705   2.517   5.594  16.659 -0.7758  0.4132 -0.2443
 4405TIP3    H134706   2.574   5.546  16.720 -1.4069 -1.3502 -0.9945
 4405TIP3    H234707   2.577   5.626  16.591 -0.4407 -0.0468 -0.1773
 4406TIP3   OH234708   0.256   2.291   1.361 -0.3095  0.8550 -0.1332
 4406TIP3    H134709   0.299   2.320   1.441 -0.1846  0.1839  0.0512
 4406TIP3    H234710   0.174   2.252   1.391  0.6367 -1.2128 -0.1278
 4407TIP3   OH234711   3.133   3.194  13.459  0.1700 -0.0095  0.2349
 4407TIP3    H134712   3.207   3.142  13.488  0.8332  1.2161  0.8017
 4407TIP3    H234713   3.087   3.139  13.396  1.4265 -0.8641  0.0626
 4408TIP3   OH234714   4.678   3.820   5.240 -0.7145 -0.5825 -0.2483
 4408TIP3    H134715   4.589   3.824   5.276 -1.0383 -1.1400 -0.9791
 4408TIP3    H234716   4.679   3.888   5.172 -0.4790 -0.3627 -0.0274
 4409TIP3   OH234717   0.441   2.732  11.122  0.0186  0.2412 -0.1994
 4409TIP3    H134718   0.385   2.666  11.164 -1.4289  0.2868 -2.0147
 4409TIP3    H234719   0.381   2.783  11.068  1.1946  2.7805  0.8291
 4410TIP3   OH234720   5.216   3.363   3.843 -0.2779 -0.5292 -0.7245
 4410TIP3    H134721   5.178   3.451   3.842  0.8087 -0.0400 -0.0374
 4410TIP3    H234722   5.153   3.309   3.795 -1.9948  0.1873  0.6744
 4411TIP3   OH234723   0.186   1.306  16.882 -0.0335  0.0209 -0.3038
 4411TIP3    H134724   0.270   1.340  16.913  0.1833 -1.3954  0.7145
 4411TIP3    H234725   0.121   1.350  16.938  0.2995 -1.8255  1.6148
 4412TIP3   OH234726   6.430   0.287   6.734 -0.2299 -0.3267  0.0506
 4412TIP3    H134727   6.482   0.249   6.805  1.4368 -0.0272 -0.9808
 4412TIP3    H234728   6.489   0.350   6.692 -1.3112 -0.2206 -1.3578
 4413TIP3   OH234729   2.054   3.813   0.272 -0.1208  0.3763  0.0258
 4413TIP3    H134730   2.131   3.828   0.217  0.3782  0.4079  0.7426
 4413TIP3    H234731   2.089   3.786   0.356 -0.8351  2.2471  0.9420
 4414TIP3   OH234732   3.983   2.344  15.784 -0.2761 -0.0318  0.6115
 4414TIP3    H134733   4.009   2.435  15.769  0.5013 -0.3907 -0.2537
 4414TIP3    H234734   3.973   2.337  15.879  0.5983  0.7022  0.7568
 4415TIP3   OH234735   3.914   5.037  15.279  0.2252 -0.3834 -0.4922
 4415TIP3    H134736   3.868   4.995  15.207 -0.0379  2.4203 -2.0406
 4415TIP3    H234737   3.981   4.973  15.305 -0.4246 -1.9153 -2.4453
 4416TIP3   OH234738   5.206   4.528  12.534  0.3670  0.2002 -0.0236
 4416TIP3    H134739   5.291   4.569  12.551  0.3114  0.6134 -0.7490
 4416TIP3    H234740   5.200   4.523  12.439  0.7930 -2.3646  0.0613
 4417TIP3   OH234741   6.135   4.489   6.009  0.0559 -0.6953  0.0723
 4417TIP3    H134742   6.130   4.526   6.097  0.9343 -0.5743  0.0673
 4417TIP3    H234743   6.065   4.534   5.961  0.2275 -0.0402  0.4336
 4418TIP3   OH234744   3.678   6.117  11.469  0.5967  0.3581 -0.0107
 4418TIP3    H134745   3.696   6.038  11.521  1.8536  1.1002  0.7210
 4418TIP3    H234746   3.763   6.140  11.431  0.3405  1.6295  0.1661
 4419TIP3   OH234747   0.027   4.341   2.738 -0.3523 -0.6572 -0.6205
 4419TIP3    H134748   0.037   4.261   2.790 -0.2161 -0.0226  0.3358
 4419TIP3    H234749   0.008   4.309   2.649  0.8586 -1.7645 -0.5006
 4420TIP3   OH234750   1.508   3.792   3.316  0.7718  0.0528 -0.1924
 4420TIP3    H134751   1.493   3.706   3.276  0.8941 -1.6007  3.1440
 4420TIP3    H234752   1.423   3.815   3.353  1.0183  0.8964 -0.1506
 4421TIP3   OH234753   4.347   1.933   4.010 -0.4970  0.1146 -0.1531
 4421TIP3    H134754   4.293   1.968   4.081 -0.1032  0.9159 -0.2466
 4421TIP3    H234755   4.332   1.993   3.936 -1.5415 -1.1648 -1.0165
 4422TIP3   OH234756   6.258   3.774  15.751 -0.2078 -0.5190  0.5542
 4422TIP3    H134757   6.272   3.680  15.737  0.4831 -0.5193  1.2028
 4422TIP3    H234758   6.282   3.788  15.843  1.8277  0.6728 -0.1225
 4423TIP3   OH234759   3.180   5.377   2.851 -0.4586 -0.4117 -0.0731
 4423TIP3    H134760   3.239   5.375   2.776 -1.3222  0.5699 -0.7916
 4423TIP3    H234761   3.161   5.470   2.865 -0.1597 -0.5764  1.4721
 4424TIP3   OH234762   6.170   1.764  14.909  0.1080 -0.4219  0.5243
 4424TIP3    H134763   6.252   1.714  14.901  0.2544  0.1753 -2.1553
 4424TIP3    H234764   6.191   1.851  14.875 -1.0160  0.4936  2.1103
 4425TIP3   OH234765   1.884   3.217  11.917 -0.3652 -0.7159  0.3761
 4425TIP3    H134766   1.977   3.193  11.916 -0.0827  0.3026  0.9843
 4425TIP3    H234767   1.847   3.165  11.989  0.2562  0.7059  1.7355
 4426TIP3   OH234768   6.683   5.260   2.915 -0.3135 -0.1141 -0.4929
 4426TIP3    H134769   6.739   5.284   2.989  1.1870 -3.3382 -0.4860
 4426TIP3    H234770   6.745   5.239   2.845 -1.5658 -1.4958 -1.2136
 4427TIP3   OH234771   1.098   6.215   3.509  0.2299  0.1421  0.1028
 4427TIP3    H134772   1.010   6.180   3.518  1.0994 -1.5236  2.4944
 4427TIP3    H234773   1.151   6.142   3.479  1.2151  0.5499  0.8123
 4428TIP3   OH234774   4.603   1.460  13.815  0.2449 -0.1924  0.2551
 4428TIP3    H134775   4.614   1.453  13.720  1.8845  2.1958  0.2144
 4428TIP3    H234776   4.520   1.506  13.826 -0.2990 -1.1028  0.0061
 4429TIP3   OH234777   0.654   2.003  12.872  0.3397  0.0194  0.3251
 4429TIP3    H134778   0.585   2.068  12.879 -1.6656 -2.1776  2.1176
 4429TIP3    H234779   0.616   1.932  12.821  1.6435 -0.7458  0.3739
 4430TIP3   OH234780   5.628   6.205  17.098 -0.2273 -0.1387  0.1790
 4430TIP3    H134781   5.674   6.121  17.092 -0.0189  0.0448 -0.8554
 4430TIP3    H234782   5.698   6.270  17.103 -0.3813  0.0390  0.0183
 4431TIP3   OH234783   3.923   6.764  12.570  0.1200 -0.5490 -0.3895
 4431TIP3    H134784   4.018   6.753  12.559  0.1135 -0.6152 -0.3774
 4431TIP3    H234785   3.915   6.816  12.651  0.1786  0.1297 -0.8125
 4432TIP3   OH234786   6.020   1.796   0.851  0.4043  0.1309 -0.0549
 4432TIP3    H134787   6.013   1.873   0.794 -0.7631 -0.9676 -1.4393
 4432TIP3    H234788   6.075   1.735   0.802 -1.7187 -1.3639 -0.6610
 4433TIP3   OH234789   3.765   6.349   6.011  0.0146 -0.1416  0.3310
 4433TIP3    H134790   3.821   6.349   5.933 -0.3899 -1.0956  0.0265
 4433TIP3    H234791   3.706   6.275   5.997 -3.0742  2.3803 -0.5817
 4434TIP3   OH234792   4.237   1.463  14.018 -0.6390  0.0979  0.1514
 4434TIP3    H134793   4.223   1.523  14.091 -0.0707  0.0541  0.3004
 4434TIP3    H234794   4.154   1.462  13.970 -0.7466  0.7587  0.3295
 4435TIP3   OH234795   5.977   3.137   5.121  0.5433 -0.5675  0.5219
 4435TIP3    H134796   5.941   3.218   5.158  1.9380  0.1083  0.4361
 4435TIP3    H234797   5.992   3.081   5.197 -1.3287 -1.1456  0.5009
 4436TIP3   OH234798   0.531   0.243  14.821  0.5069 -0.6600  0.4862
 4436TIP3    H134799   0.532   0.338  14.809  0.4966 -0.7425 -0.1845
 4436TIP3    H234800   0.591   0.227  14.893  0.9078 -0.1851  0.2597
 4437TIP3   OH234801   4.860   3.969   2.320 -0.2224 -0.2593  0.6818
 4437TIP3    H134802   4.914   3.898   2.284  0.8188  0.1840  1.3369
 4437TIP3    H234803   4.921   4.042   2.330 -0.9287  0.2220  1.5345
 4438TIP3   OH234804   1.500   4.445  16.040  0.2308 -0.3978 -0.0017
 4438TIP3    H134805   1.459   4.374  16.089  1.8680 -0.3872  1.4213
 4438TIP3    H234806   1.430   4.509  16.027 -1.2064 -2.1195 -1.0997
 4439TIP3   OH234807   6.328   0.642   2.633 -0.5923  0.3381 -0.0425
 4439TIP3    H134808   6.395   0.601   2.688 -1.1944 -0.8261 -0.1743
 4439TIP3    H234809   6.346   0.736   2.641  0.8183  0.0565  0.2173
 4440TIP3   OH234810   1.430   1.532   4.108 -0.1649  0.0539 -0.4448
 4440TIP3    H134811   1.444   1.541   4.014  0.6424  1.9709 -0.1523
 4440TIP3    H234812   1.504   1.480   4.139 -0.0739  0.0041 -0.7518
 4441TIP3   OH234813   2.973   6.413  13.268  0.4296  0.3190  0.0842
 4441TIP3    H134814   2.906   6.370  13.321  0.4347 -0.3848 -0.4674
 4441TIP3    H234815   2.930   6.428  13.183  0.7297  0.5403 -0.0264
 4442TIP3   OH234816   0.310   0.091   6.118 -0.2992  0.2697  0.0971
 4442TIP3    H134817   0.344   0.022   6.175 -0.8645  0.5230  0.7388
 4442TIP3    H234818   0.362   0.168   6.140  2.2253 -0.5560 -2.5157
 4443TIP3   OH234819   2.677   2.540  13.036  0.8161 -0.3078  0.7948
 4443TIP3    H134820   2.600   2.580  12.996  0.3467 -3.5438 -1.7485
 4443TIP3    H234821   2.749   2.560  12.976  0.8417 -2.0063  0.2323
 4444TIP3   OH234822   6.242   3.216  10.611 -0.3577 -0.0317  0.3866
 4444TIP3    H134823   6.241   3.309  10.633 -0.5228 -0.3056  1.5450
 4444TIP3    H234824   6.327   3.202  10.568 -0.2048  0.5868  0.4894
 4445TIP3   OH234825   0.227   6.077   5.251 -0.1512  0.2194  0.1746
 4445TIP3    H134826   0.228   6.156   5.196 -0.0865 -0.1029 -0.2839
 4445TIP3    H234827   0.227   6.111   5.341  2.0591  0.7488  0.0087
 4446TIP3   OH234828   1.121   5.529  13.058 -0.2109  0.1753 -0.2878
 4446TIP3    H134829   1.043   5.476  13.073 -0.6493  0.9526  0.2264
 4446TIP3    H234830   1.186   5.495  13.120 -0.4190  0.0979 -0.1113
 4447TIP3   OH234831   0.223   5.032   0.602  0.2941 -0.2956  0.4608
 4447TIP3    H134832   0.291   5.099   0.610  0.4526 -0.4820  0.6803
 4447TIP3    H234833   0.157   5.057   0.667 -0.5228  0.6834 -0.7354
 4448TIP3   OH234834   6.172   4.201  11.753 -0.4851  0.5919 -0.2131
 4448TIP3    H134835   6.262   4.224  11.731  0.1952 -0.4559  1.3892
 4448TIP3    H234836   6.122   4.282  11.740  0.4604  0.8775 -2.2528
 4449TIP3   OH234837   4.171   2.744  15.069  0.0912 -0.1173  0.3344
 4449TIP3    H134838   4.086   2.777  15.098 -0.7732 -1.3850 -0.7043
 4449TIP3    H234839   4.198   2.805  15.000  0.3203  0.6376  1.0854
 4450TIP3   OH234840   6.727   3.880  14.712  0.1256  0.3229  0.0622
 4450TIP3    H134841   6.789   3.945  14.680  0.2553 -0.8204 -2.0318
 4450TIP3    H234842   6.658   3.877  14.646 -0.9170 -0.2173  1.1424
 4451TIP3   OH234843   2.222   4.393   3.266 -0.0400 -0.1969  0.3801
 4451TIP3    H134844   2.129   4.414   3.257  0.0901 -0.0963 -0.7631
 4451TIP3    H234845   2.267   4.461   3.216  0.5117 -1.7875 -1.3453
 4452TIP3   OH234846   4.169   1.016  17.220  0.2696  0.3145 -0.2223
 4452TIP3    H134847   4.165   1.111  17.227  2.1317  0.5274 -1.7219
 4452TIP3    H234848   4.140   0.997  17.131  0.1048 -0.4953  0.0036
 4453TIP3   OH234849   6.600   3.085  16.012 -0.0690  0.2238  0.4703
 4453TIP3    H134850   6.577   3.005  15.965  0.0036  1.3902 -1.6167
 4453TIP3    H234851   6.688   3.069  16.046 -0.8230 -1.2987  1.7528
 4454TIP3   OH234852   1.431   2.684  13.967  0.1007  0.7004  0.0678
 4454TIP3    H134853   1.455   2.638  14.048 -1.0986  1.2702  0.7672
 4454TIP3    H234854   1.353   2.638  13.936 -0.6189  1.7200  0.3260
 4455TIP3   OH234855   5.167   5.441  11.784  0.1677 -0.1430 -0.1718
 4455TIP3    H134856   5.192   5.377  11.851 -0.0089  0.6448  0.6626
 4455TIP3    H234857   5.081   5.472  11.811  0.2750  0.4849 -0.5303
 4456TIP3   OH234858   4.315   4.314   0.495 -0.5835 -0.0696  0.1676
 4456TIP3    H134859   4.260   4.311   0.417  0.2208  0.6743 -0.4424
 4456TIP3    H234860   4.376   4.241   0.484 -1.0688 -0.5351  0.5580
 4457TIP3   OH234861   4.817   3.137   4.771 -0.6521 -0.2352  0.2281
 4457TIP3    H134862   4.768   3.168   4.695  0.2407 -0.0434 -0.2740
 4457TIP3    H234863   4.811   3.208   4.835  0.4131  0.4988 -0.4821
 4458TIP3   OH234864   1.442   6.425  14.406 -0.4104 -0.7154  0.4520
 4458TIP3    H134865   1.501   6.355  14.431  1.1279  0.2510 -0.3879
 4458TIP3    H234866   1.448   6.488  14.478  1.8924  0.7649 -0.9701
 4459TIP3   OH234867   2.419   6.759  16.933 -0.2988  0.2000  0.2871
 4459TIP3    H134868   2.451   6.670  16.921 -0.2355  0.3065 -0.3252
 4459TIP3    H234869   2.412   6.769  17.028  1.9779  0.3556  0.4639
 4460TIP3   OH234870   3.809   0.124  14.375 -0.1009 -0.1968 -0.1511
 4460TIP3    H134871   3.816   0.203  14.321 -1.6045 -0.8791 -1.4032
 4460TIP3    H234872   3.896   0.084  14.371  0.4029  0.8945 -0.2790
 4461TIP3   OH234873   2.839   3.937  14.798  0.0468  0.0969 -0.0779
 4461TIP3    H134874   2.822   3.986  14.878 -0.2770  0.6072 -0.4584
 4461TIP3    H234875   2.817   3.998  14.727 -1.7147 -1.0629 -0.5573
 4462TIP3   OH234876   4.768   0.245  11.216  0.3401 -0.7577 -0.2905
 4462TIP3    H134877   4.768   0.340  11.210 -1.1738 -0.7073  0.4302
 4462TIP3    H234878   4.766   0.215  11.124 -0.6658 -0.0898 -0.4885
 4463TIP3   OH234879   5.406   2.284  16.837 -0.1043  0.2672 -0.1993
 4463TIP3    H134880   5.429   2.377  16.841  0.0151  0.2578 -0.7366
 4463TIP3    H234881   5.324   2.282  16.788 -0.5215  0.1643  0.4979
 4464TIP3   OH234882   5.640   0.851   2.874  0.5239 -0.5007 -0.2550
 4464TIP3    H134883   5.557   0.880   2.837 -0.0809  0.5160  1.8494
 4464TIP3    H234884   5.704   0.869   2.805 -0.6522  0.8578 -1.0200
 4465TIP3   OH234885   5.150   1.540  13.720 -0.2678  0.4685  0.2565
 4465TIP3    H134886   5.089   1.587  13.664 -0.1770  0.2037 -0.0636
 4465TIP3    H234887   5.114   1.550  13.808 -0.4181  0.8672  0.1497
 4466TIP3   OH234888   3.080   4.754   5.471  0.0959 -0.0799 -0.0394
 4466TIP3    H134889   3.082   4.848   5.450  2.3304 -0.5839 -2.3181
 4466TIP3    H234890   2.994   4.725   5.441 -0.8326  1.3219  1.1705
 4467TIP3   OH234891   0.709   0.380  15.469 -0.6372 -0.3416  0.4284
 4467TIP3    H134892   0.750   0.406  15.386 -3.0075 -4.1297 -2.0837
 4467TIP3    H234893   0.621   0.420  15.466 -0.2145  0.7661  1.8930
 4468TIP3   OH234894   4.206   6.658  15.539  0.3266  0.1342  0.5548
 4468TIP3    H134895   4.286   6.608  15.523 -0.7803 -1.5446  0.2409
 4468TIP3    H234896   4.170   6.675  15.452 -0.3560 -0.2445  0.7626
 4469TIP3   OH234897   5.026   0.781   2.803 -0.1402  0.3292  0.1948
 4469TIP3    H134898   5.041   0.700   2.852  0.5333  0.2510 -0.1276
 4469TIP3    H234899   4.993   0.843   2.868 -0.3028 -0.0936  0.5200
 4470TIP3   OH234900   1.404   1.614   1.552 -0.0982  0.1948  0.1693
 4470TIP3    H134901   1.345   1.574   1.615 -0.1072  2.1729  1.4715
 4470TIP3    H234902   1.450   1.541   1.511 -1.3432 -1.1972  1.2303
 4471TIP3   OH234903   3.780   6.588   5.700  0.0918  0.0667  0.3153
 4471TIP3    H134904   3.744   6.664   5.655 -2.1397 -1.0216  0.2283
 4471TIP3    H234905   3.714   6.519   5.690  2.0777 -1.9142  0.3634
 4472TIP3   OH234906   5.236   6.361  11.494 -0.1627  0.2436 -0.1984
 4472TIP3    H134907   5.326   6.386  11.515 -0.3387  0.7251 -0.0157
 4472TIP3    H234908   5.229   6.270  11.523 -0.0377  0.5227  0.7160
 4473TIP3   OH234909   5.340   4.384   4.039 -0.1137 -0.2948 -0.6305
 4473TIP3    H134910   5.247   4.398   4.026 -0.1163 -1.0118 -1.3772
 4473TIP3    H234911   5.373   4.469   4.069 -1.4176 -0.6390  1.9689
 4474TIP3   OH234912   0.670   1.876  13.970  0.6579  0.1607 -1.0790
 4474TIP3    H134913   0.673   1.784  13.993 -1.0583  0.6338  1.1481
 4474TIP3    H234914   0.644   1.877  13.878  0.2161 -1.5489 -0.9834
 4475TIP3   OH234915   0.532   2.699   2.690 -0.6890  0.1052 -0.1489
 4475TIP3    H134916   0.624   2.724   2.701 -0.6086 -0.2319 -0.0695
 4475TIP3    H234917   0.526   2.669   2.600 -0.5673 -0.5423  0.0573
 4476TIP3   OH234918   3.266   4.163   0.794 -0.1719  0.1166  0.1088
 4476TIP3    H134919   3.278   4.077   0.752  1.0379 -0.4986  1.6799
 4476TIP3    H234920   3.201   4.147   0.863 -1.4873  0.9396 -0.8940
 4477TIP3   OH234921   2.012   3.058  13.641 -0.2625  0.1968  0.3534
 4477TIP3    H134922   1.981   3.147  13.650 -0.4815  0.1639 -0.0672
 4477TIP3    H234923   2.104   3.067  13.617 -0.4598  0.3154 -0.3516
 4478TIP3   OH234924   3.671   0.422   1.919 -0.2807  0.2636  0.1860
 4478TIP3    H134925   3.600   0.403   1.858 -0.8817  0.9546  0.6528
 4478TIP3    H234926   3.728   0.483   1.872  0.3480 -0.7764 -0.4191
 4479TIP3   OH234927   1.746   0.765   0.981 -0.0481 -0.3225 -0.1890
 4479TIP3    H134928   1.730   0.774   0.887  2.6108  1.3439 -0.5471
 4479TIP3    H234929   1.833   0.725   0.986 -0.1618 -0.3632  1.5472
 4480TIP3   OH234930   3.288   3.848   2.197  0.4697 -0.4619 -0.1874
 4480TIP3    H134931   3.299   3.826   2.289 -2.4886 -1.8471 -0.0998
 4480TIP3    H234932   3.373   3.830   2.157  1.6163 -0.3592  2.1704
 4481TIP3   OH234933   2.707   1.335   1.280 -0.0424  0.5235 -0.1158
 4481TIP3    H134934   2.643   1.395   1.317 -0.6454 -0.3158  0.2165
 4481TIP3    H234935   2.747   1.292   1.356 -1.5628 -1.4891 -0.4218
 4482TIP3   OH234936   1.232   1.226  12.216  0.6483  0.2536  0.0757
 4482TIP3    H134937   1.226   1.197  12.125 -0.0589 -2.7528  1.0177
 4482TIP3    H234938   1.186   1.158  12.266  2.4086  1.0112  2.8494
 4483TIP3   OH234939   6.019   0.254   3.637 -0.0914 -0.1810  0.3279
 4483TIP3    H134940   6.036   0.304   3.557 -2.6014 -0.4792 -0.4323
 4483TIP3    H234941   6.024   0.319   3.707  1.6397  0.1758 -0.0965
 4484TIP3   OH234942   5.209   1.038  14.295 -0.0904  0.1428 -0.0627
 4484TIP3    H134943   5.180   1.044  14.385 -1.5392 -1.3937 -0.4095
 4484TIP3    H234944   5.131   1.012  14.246  0.3937  2.0919 -1.9355
 4485TIP3   OH234945   5.809   0.068   5.319 -0.0172  0.5471 -0.0950
 4485TIP3    H134946   5.845   0.156   5.329  0.4186  0.0721  2.9259
 4485TIP3    H234947   5.883   0.009   5.334 -0.2643 -0.3532 -2.2648
 4486TIP3   OH234948   3.094   0.950  11.146 -0.0409  0.1663  0.3038
 4486TIP3    H134949   3.028   0.883  11.132  0.1685 -0.0745  0.4753
 4486TIP3    H234950   3.047   1.033  11.136 -0.7691  0.0160  2.2387
 4487TIP3   OH234951   4.745   2.979   1.889 -0.7091 -0.4031  0.2083
 4487TIP3    H134952   4.811   3.041   1.920 -1.1616 -0.2427  0.8537
 4487TIP3    H234953   4.706   3.022   1.813 -0.4502 -0.2627  0.1531
 4488TIP3   OH234954   5.538   0.620   4.697  0.2262 -0.2574  0.5492
 4488TIP3    H134955   5.455   0.632   4.651  0.7994 -0.5030 -0.5939
 4488TIP3    H234956   5.584   0.703   4.684  0.3857 -0.3230  0.6982
 4489TIP3   OH234957   0.129   2.689   2.896 -0.3491  0.3699 -0.0365
 4489TIP3    H134958   0.052   2.706   2.841 -0.6317  0.3344  0.3457
 4489TIP3    H234959   0.203   2.719   2.844 -0.5493 -0.3955 -0.7666
 4490TIP3   OH234960   2.305   0.345   5.497  0.0708  0.2232  0.4912
 4490TIP3    H134961   2.262   0.267   5.460  0.0335  0.8461 -0.7926
 4490TIP3    H234962   2.338   0.315   5.582  0.9281 -1.4768 -0.4118
 4491TIP3   OH234963   0.359   4.563  14.791 -0.1431  0.0928  0.0394
 4491TIP3    H134964   0.357   4.516  14.875 -0.6146  2.3331  1.3043
 4491TIP3    H234965   0.334   4.496  14.726  0.1839 -1.6533  1.6607
 4492TIP3   OH234966   5.534   5.083  15.155 -0.4677 -0.5660  0.2411
 4492TIP3    H134967   5.551   5.027  15.231 -0.7984  0.6234  1.2117
 4492TIP3    H234968   5.505   5.023  15.086  1.5596 -1.8792  0.4891
 4493TIP3   OH234969   2.393   6.350   0.162  0.0187  0.5519  0.3056
 4493TIP3    H134970   2.404   6.332   0.255 -0.1679 -0.2254  0.1832
 4493TIP3    H234971   2.379   6.264   0.123 -2.4042  1.0999 -0.0899
 4494TIP3   OH234972   2.990   3.031  12.965  0.1016 -0.0720 -0.3275
 4494TIP3    H134973   2.983   3.104  13.027 -0.4530 -1.8121  1.7509
 4494TIP3    H234974   3.016   2.957  13.020  1.3130 -1.2976 -2.4944
 4495TIP3   OH234975   1.870   2.460   3.306  0.6068  0.7477  0.2256
 4495TIP3    H134976   1.947   2.504   3.343  0.2314  1.4488  0.1723
 4495TIP3    H234977   1.834   2.410   3.379  1.4268 -0.0202  0.1119
 4496TIP3   OH234978   6.170   6.507   2.838 -0.2526 -0.4719 -0.1449
 4496TIP3    H134979   6.252   6.488   2.792 -0.2984 -3.3450  0.8103
 4496TIP3    H234980   6.106   6.522   2.769  0.5272 -0.7785 -0.9437
 4497TIP3   OH234981   1.042   0.322  15.806  0.2655 -0.3065 -0.3027
 4497TIP3    H134982   0.984   0.314  15.730 -1.0200 -1.7438  0.8082
 4497TIP3    H234983   1.021   0.408  15.843 -0.5437 -0.4673 -0.3844
 4498TIP3   OH234984   6.363   2.072  13.822  0.2724 -0.1399  0.3238
 4498TIP3    H134985   6.449   2.085  13.781 -0.7079 -0.6895 -1.9639
 4498TIP3    H234986   6.355   1.978  13.833 -0.3454 -0.1494 -0.1630
 4499TIP3   OH234987   2.331   3.283   0.118 -0.3292 -0.9326 -0.0143
 4499TIP3    H134988   2.340   3.238   0.034 -1.7530  0.0299 -0.6977
 4499TIP3    H234989   2.292   3.367   0.096  0.2411 -0.2571  1.5046
 4500TIP3   OH234990   1.431   4.514  13.526  0.8209 -0.2372  0.2687
 4500TIP3    H134991   1.477   4.535  13.445  1.5301 -1.7425  0.2669
 4500TIP3    H234992   1.487   4.549  13.595  0.0865  1.2817  0.1197
 4501TIP3   OH234993   4.905   4.605   4.559  0.2379  0.1828  0.2590
 4501TIP3    H134994   4.976   4.541   4.554  0.5498  0.5884 -0.7012
 4501TIP3    H234995   4.949   4.689   4.561 -0.2252  0.4896 -1.5072
 4502TIP3   OH234996   5.529   5.364   4.164  0.0799 -0.2028  0.2618
 4502TIP3    H134997   5.575   5.306   4.103 -0.0466 -0.2652  0.2266
 4502TIP3    H234998   5.569   5.450   4.151  0.6803 -0.4038  0.7379
 4503TIP3   OH234999   2.652   6.421  12.863  0.0161  0.0594  0.4366
 4503TIP3    H135000   2.581   6.477  12.894 -0.0557 -0.8374  1.9573
 4503TIP3    H235001   2.732   6.472  12.877 -0.2950  0.9907 -1.0942
 4504TIP3   OH235002   1.628   1.846  11.197 -0.5002  0.2135  0.2322
 4504TIP3    H135003   1.594   1.935  11.211  2.2987  1.4107 -0.3234
 4504TIP3    H235004   1.650   1.844  11.104 -0.5612 -1.1049  0.2410
 4505TIP3   OH235005   3.982   4.016   0.143 -0.5241  0.2810  0.0959
 4505TIP3    H135006   3.894   4.033   0.109  0.4079  1.8809 -1.5414
 4505TIP3    H235007   3.972   4.024   0.238 -2.5626 -1.5889  0.0901
 4506TIP3   OH235008   2.454   4.662  16.789 -0.1370  0.2016  0.2917
 4506TIP3    H135009   2.503   4.655  16.707  0.8056 -1.4739  0.9662
 4506TIP3    H235010   2.466   4.577  16.831 -0.4974  1.0712  2.2138
 4507TIP3   OH235011   0.704   6.475  14.247 -0.2819 -0.6125  0.0685
 4507TIP3    H135012   0.644   6.546  14.225  2.8405  2.7510  1.8161
 4507TIP3    H235013   0.701   6.471  14.343 -0.1368 -2.6642  0.0053
 4508TIP3   OH235014   5.216   5.747   4.566  0.1202 -0.5220 -0.5474
 4508TIP3    H135015   5.180   5.779   4.649  0.0651 -0.6992 -0.5027
 4508TIP3    H235016   5.161   5.672   4.543  1.3310 -1.6759  0.2479
 4509TIP3   OH235017   0.738   6.702  13.660 -0.0175 -0.3538 -0.2045
 4509TIP3    H135018   0.668   6.638  13.650  0.4328 -1.0201  0.8065
 4509TIP3    H235019   0.697   6.774  13.709  0.1264 -0.9487  0.7954
 4510TIP3   OH235020   3.880   1.465  15.754  0.1963  0.5443  0.3866
 4510TIP3    H135021   3.925   1.471  15.839  2.5602  1.5042 -0.8961
 4510TIP3    H235022   3.909   1.381  15.718 -1.2424 -0.1194  0.7514
 4511TIP3   OH235023   4.790   3.555  10.358  0.2028 -0.1260 -0.5551
 4511TIP3    H135024   4.840   3.512  10.428 -0.8822  1.2021  1.0768
 4511TIP3    H235025   4.801   3.648  10.375 -1.4860  0.1862 -1.1350
 4512TIP3   OH235026   1.900   2.298   0.798  0.2386 -0.1335 -0.0919
 4512TIP3    H135027   1.928   2.316   0.709  0.9405  0.3359  0.2181
 4512TIP3    H235028   1.959   2.229   0.829 -0.6179 -0.9810 -0.3067
 4513TIP3   OH235029   1.668   5.780  11.662 -0.9322 -0.4804 -1.0768
 4513TIP3    H135030   1.585   5.778  11.614 -1.7927  0.2567  0.3692
 4513TIP3    H235031   1.643   5.783  11.754  0.6973  0.7202 -0.6510
 4514TIP3   OH235032   0.055   2.318   5.389  0.0902 -0.5306  0.5938
 4514TIP3    H135033  -0.010   2.378   5.426 -2.6442 -1.8948 -1.8087
 4514TIP3    H235034   0.077   2.355   5.304  0.2023 -1.6384  0.1294
 4515TIP3   OH235035   2.993   5.874   6.394 -0.3515 -0.1307 -0.4047
 4515TIP3    H135036   3.041   5.937   6.447 -2.1903 -0.1104  1.2991
 4515TIP3    H235037   2.918   5.923   6.360 -0.9442 -0.9860 -0.3495
 4516TIP3   OH235038   1.160   1.811   3.807 -0.3688  0.8128 -0.6822
 4516TIP3    H135039   1.121   1.886   3.762 -0.1146  1.5318  0.2894
 4516TIP3    H235040   1.214   1.768   3.741 -0.5887  1.4345 -1.2610
 4517TIP3   OH235041   0.808   6.443  12.747  0.0759 -0.2712  0.2997
 4517TIP3    H135042   0.877   6.376  12.738 -0.5219 -0.9350  0.6122
 4517TIP3    H235043   0.829   6.487  12.829  1.2474  0.8292 -0.5730
 4518TIP3   OH235044   4.357   2.986  12.828 -0.4323  0.2025 -0.4237
 4518TIP3    H135045   4.274   2.979  12.780 -1.7356  2.6814  1.3568
 4518TIP3    H235046   4.397   3.066  12.795  0.4166 -0.0564 -0.0225
 4519TIP3   OH235047   2.772   6.163   2.788 -0.3309 -0.0641  0.3048
 4519TIP3    H135048   2.804   6.236   2.734  0.4901 -2.0666 -2.0058
 4519TIP3    H235049   2.815   6.176   2.873  2.1767  0.5276 -0.9854
 4520TIP3   OH235050   2.787   1.491   5.825 -0.0010 -0.1442 -0.5002
 4520TIP3    H135051   2.814   1.415   5.773 -0.8546 -1.5954  1.1513
 4520TIP3    H235052   2.692   1.483   5.832  0.0927  0.1115  1.1702
 4521TIP3   OH235053   1.799   1.237   6.584  0.2560  0.3839 -0.1219
 4521TIP3    H135054   1.810   1.144   6.605 -0.8445  0.3728  0.4416
 4521TIP3    H235055   1.748   1.272   6.657 -1.6786  0.8356 -1.6457
 4522TIP3   OH235056   0.917   4.447  11.501 -0.4501 -0.3215 -0.5929
 4522TIP3    H135057   0.823   4.459  11.514 -0.1277 -0.2800  2.1818
 4522TIP3    H235058   0.955   4.533  11.517  0.1656 -0.6694 -0.1271
 4523TIP3   OH235059   2.659   0.590   2.387 -0.1774 -0.0549 -0.1802
 4523TIP3    H135060   2.729   0.652   2.411 -1.2569 -0.0228  3.1962
 4523TIP3    H235061   2.694   0.504   2.410 -0.7159 -0.1775  0.1879
 4524TIP3   OH235062   3.927   4.563  13.567 -0.1210  0.5476 -0.1702
 4524TIP3    H135063   3.936   4.516  13.484  1.5843  0.6974 -0.0829
 4524TIP3    H235064   3.896   4.498  13.629  1.4611 -0.2833 -0.2370
 4525TIP3   OH235065   1.826   0.509   2.616 -0.1608 -0.1658 -0.4353
 4525TIP3    H135066   1.917   0.482   2.622 -0.4796 -1.2644 -0.5496
 4525TIP3    H235067   1.775   0.429   2.632 -1.1392  0.9718  2.5713
 4526TIP3   OH235068   4.285   5.571  11.390  0.0508  0.0165  0.2618
 4526TIP3    H135069   4.278   5.554  11.296  1.0246  1.0255  0.0004
 4526TIP3    H235070   4.226   5.508  11.430  0.6274 -1.3227 -0.9506
 4527TIP3   OH235071   3.251   0.829  16.790  0.7551  0.2465 -0.2302
 4527TIP3    H135072   3.197   0.751  16.803 -0.1373  0.9919  0.6381
 4527TIP3    H235073   3.307   0.808  16.716 -0.5990 -0.6097 -1.0198
 4528TIP3   OH235074   6.564   1.512   5.785  0.4155 -0.1635 -0.0084
 4528TIP3    H135075   6.468   1.505   5.782  0.5396 -1.2662 -1.6612
 4528TIP3    H235076   6.585   1.582   5.724  0.6503  0.4487  0.7549
 4529TIP3   OH235077   5.053   3.839   2.769  0.0573  0.1088 -0.4619
 4529TIP3    H135078   4.995   3.764   2.777 -0.6959  0.7815  0.5059
 4529TIP3    H235079   5.134   3.811   2.812 -0.0678 -0.2958 -0.4917
 4530TIP3   OH235080   3.788   5.645  16.176 -0.3166 -0.3769  0.5918
 4530TIP3    H135081   3.869   5.692  16.197  0.4311 -1.6580  0.7061
 4530TIP3    H235082   3.797   5.562  16.223 -0.1230 -1.9511 -2.1410
 4531TIP3   OH235083   0.002   1.566   2.221 -0.3205 -0.1723 -0.0659
 4531TIP3    H135084  -0.016   1.660   2.230  0.1071 -0.1114  0.1615
 4531TIP3    H235085   0.062   1.561   2.147  1.0303 -0.1062  1.0176
 4532TIP3   OH235086   4.077   5.420  12.791 -0.1033 -0.2328  0.1042
 4532TIP3    H135087   4.066   5.473  12.869  0.6982  0.6298 -0.3657
 4532TIP3    H235088   4.150   5.361  12.812 -1.4820 -1.6926  0.9064
 4533TIP3   OH235089   6.347   0.981   6.567 -0.1061 -0.2712  0.0987
 4533TIP3    H135090   6.360   0.901   6.618  0.0439 -0.1645  0.2281
 4533TIP3    H235091   6.354   0.953   6.476  1.0027 -0.2161  0.1608
 4534TIP3   OH235092   5.075   4.601  13.252 -0.0091  0.1806 -0.8199
 4534TIP3    H135093   5.027   4.681  13.229 -2.2935 -1.0566 -0.4113
 4534TIP3    H235094   5.116   4.574  13.170  0.4948  1.5399 -1.0419
 4535TIP3   OH235095   4.999   2.110   4.261  0.4592  0.4531 -0.8364
 4535TIP3    H135096   5.017   2.204   4.268  0.8517  0.3232  0.0921
 4535TIP3    H235097   4.930   2.103   4.196  1.5666  1.2546 -2.1313
 4536TIP3   OH235098   4.617   4.028   2.187 -0.2216 -0.2040 -0.7162
 4536TIP3    H135099   4.624   4.088   2.261 -2.4378 -1.6676  0.7232
 4536TIP3    H235100   4.693   3.970   2.197 -1.0960 -1.0939  1.0947
 4537TIP3   OH235101   4.304   1.895   3.680 -0.6548 -0.2571 -0.3020
 4537TIP3    H135102   4.388   1.912   3.724 -0.1494 -0.7813 -1.0604
 4537TIP3    H235103   4.326   1.835   3.609 -1.9349 -1.7358  0.5072
 4538TIP3   OH235104   4.551   3.070  16.611 -0.0627  0.0423 -0.5468
 4538TIP3    H135105   4.543   3.026  16.526 -0.9843  2.6620 -1.9040
 4538TIP3    H235106   4.639   3.049  16.642 -0.3615 -2.3989 -1.2962
 4539TIP3   OH235107   0.632   2.249   5.679 -0.4806 -0.1634  0.1355
 4539TIP3    H135108   0.651   2.156   5.695  1.2761  0.0316 -0.8013
 4539TIP3    H235109   0.607   2.283   5.765 -0.3969 -1.3294  0.6272
 4540TIP3   OH235110   3.677   3.970   4.239  0.7149 -0.5238 -0.1388
 4540TIP3    H135111   3.725   4.045   4.274 -1.0462  0.7312 -0.3643
 4540TIP3    H235112   3.616   3.946   4.309 -1.0736  0.4195 -1.3326
 4541TIP3   OH235113   4.825   0.339  13.621 -0.0376 -0.2166  0.0518
 4541TIP3    H135114   4.785   0.426  13.629 -0.5210 -0.6540  3.3898
 4541TIP3    H235115   4.768   0.292  13.560 -0.8033  1.2523 -0.4024
 4542TIP3   OH235116   3.173   0.869  17.060  0.1052 -0.2733  0.0884
 4542TIP3    H135117   3.205   0.857  16.971  1.3806 -0.5173  0.5759
 4542TIP3    H235118   3.081   0.842  17.055  0.2441 -0.5938 -1.0803
 4543TIP3   OH235119   2.361   2.242   2.202  0.8960 -0.0432 -0.3195
 4543TIP3    H135120   2.282   2.209   2.160  1.0188  0.1429 -0.7038
 4543TIP3    H235121   2.335   2.262   2.292  0.3703  0.5316 -0.5962
 4544TIP3   OH235122   5.709   1.728  15.165 -0.3755 -0.1881 -0.4736
 4544TIP3    H135123   5.757   1.783  15.103  1.7394  0.0169  1.2789
 4544TIP3    H235124   5.755   1.644  15.163  0.7077  0.2873  1.8940
 4545TIP3   OH235125   4.402   4.356   1.727 -0.4787 -0.1632  0.5639
 4545TIP3    H135126   4.367   4.348   1.638 -1.3890  2.8596  0.5806
 4545TIP3    H235127   4.366   4.280   1.773 -2.0298 -0.4484 -1.0297
 4546TIP3   OH235128   3.229   0.496   4.897 -0.4876 -0.1652 -0.3945
 4546TIP3    H135129   3.190   0.513   4.983 -0.1578 -0.3801 -0.2027
 4546TIP3    H235130   3.157   0.461   4.845 -0.9382  0.9073 -0.5045
 4547TIP3   OH235131   6.815   1.786   4.080  0.2970 -0.1524 -0.0126
 4547TIP3    H135132   6.829   1.724   4.152  0.1488 -1.8488 -1.4166
 4547TIP3    H235133   6.868   1.862   4.104  0.3145 -0.7268  1.8477
 4548TIP3   OH235134   6.260   6.269   3.633  0.6022 -0.3179  0.4005
 4548TIP3    H135135   6.252   6.257   3.727  0.7411  0.6071  0.5413
 4548TIP3    H235136   6.323   6.341   3.624  1.4265 -1.1385 -0.4200
 4549TIP3   OH235137   2.392   3.179  14.284 -0.1796  0.0070  0.4888
 4549TIP3    H135138   2.469   3.235  14.293 -1.3752  1.7327  0.0559
 4549TIP3    H235139   2.413   3.123  14.209 -0.1075  1.7787 -0.8496
 4550TIP3   OH235140   6.215   6.150  17.073 -0.2925  0.0087 -0.0284
 4550TIP3    H135141   6.280   6.085  17.047  0.5020  1.6073 -2.2496
 4550TIP3    H235142   6.267   6.225  17.103 -1.1316  0.6500 -0.1567
 4551TIP3   OH235143   2.551   4.574  17.091  0.7268  0.0911  1.0002
 4551TIP3    H135144   2.476   4.519  17.065  1.9530 -1.6109  0.9391
 4551TIP3    H235145   2.598   4.521  17.156  1.6586  1.3072  1.3404
 4552TIP3   OH235146   0.333   0.885   3.599  0.3302  0.2460 -0.1849
 4552TIP3    H135147   0.311   0.909   3.509 -1.6723  2.2202  0.8079
 4552TIP3    H235148   0.306   0.960   3.652  0.7987 -1.1909  2.1707
 4553TIP3   OH235149   0.421   4.868  17.170  0.0241  0.7113  0.0717
 4553TIP3    H135150   0.360   4.815  17.221  1.8476 -0.6254  0.9369
 4553TIP3    H235151   0.375   4.886  17.088 -1.2639 -0.8706  0.4200
 4554TIP3   OH235152   3.257   4.855   1.290 -0.8234 -0.1490  0.0719
 4554TIP3    H135153   3.268   4.815   1.376 -0.7109 -1.1936 -0.4196
 4554TIP3    H235154   3.299   4.794   1.229 -0.8172  0.6226 -0.7160
 4555TIP3   OH235155   0.541   0.615   0.967 -0.2062 -0.0391  0.0713
 4555TIP3    H135156   0.474   0.680   0.944 -0.2151 -0.0228  0.1412
 4555TIP3    H235157   0.616   0.637   0.911 -0.3246 -0.1752 -0.1419
 4556TIP3   OH235158   4.720   3.964  13.722 -0.6507 -0.1420 -0.5754
 4556TIP3    H135159   4.721   3.869  13.707 -1.9750 -0.1143 -0.8752
 4556TIP3    H235160   4.630   3.990  13.705 -0.2821  1.1884 -0.5471
 4557TIP3   OH235161   4.862   6.573   5.469 -0.1307 -0.0354 -0.3325
 4557TIP3    H135162   4.932   6.622   5.427  0.5448  0.6330  1.5383
 4557TIP3    H235163   4.906   6.516   5.531 -1.2263  0.4428  0.9181
 4558TIP3   OH235164   3.703   0.781   3.188 -0.1846  0.4929 -0.7060
 4558TIP3    H135165   3.751   0.737   3.118 -0.3580 -1.3746  0.3130
 4558TIP3    H235166   3.768   0.840   3.227  1.1099 -1.4341  0.1560
 4559TIP3   OH235167   5.094   4.001   1.626 -0.5680 -0.7649 -0.5929
 4559TIP3    H135168   5.027   4.015   1.560 -0.1149 -1.7374 -1.2608
 4559TIP3    H235169   5.073   3.916   1.665  0.1226 -0.9607 -0.6321
 4560TIP3   OH235170   1.555   4.706   3.063  0.0280  0.3859 -0.3879
 4560TIP3    H135171   1.630   4.732   3.117 -0.3315 -0.5342  0.5730
 4560TIP3    H235172   1.551   4.611   3.072 -2.1627  0.5447  0.8084
 4561TIP3   OH235173   3.403   5.914  12.824  0.4705  0.2362  0.0105
 4561TIP3    H135174   3.471   5.917  12.891  0.0413 -0.4772  0.4816
 4561TIP3    H235175   3.432   5.977  12.757  1.5968 -0.0742  0.2032
 4562TIP3   OH235176   2.084   4.049  16.759 -0.2708  0.0451  0.3123
 4562TIP3    H135177   2.041   4.107  16.695  0.3094 -0.6413 -0.7080
 4562TIP3    H235178   2.162   4.097  16.785  0.8379 -0.7756 -1.4311
 4563TIP3   OH235179   2.464   1.890   0.344 -0.3304 -0.0156 -0.3539
 4563TIP3    H135180   2.405   1.950   0.298 -2.6640 -0.7534  1.6096
 4563TIP3    H235181   2.539   1.945   0.368 -0.9516  1.3400 -1.3897
 4564TIP3   OH235182   1.175   3.134   3.797  0.1715 -0.5215  0.1495
 4564TIP3    H135183   1.185   3.126   3.702  1.7506 -1.2705  0.3591
 4564TIP3    H235184   1.256   3.098   3.832 -0.5520 -0.5648  1.8017
 4565TIP3   OH235185   1.325   0.922   5.659 -0.3892  0.1299  0.1211
 4565TIP3    H135186   1.393   0.960   5.713  0.3895 -1.6838  0.4536
 4565TIP3    H235187   1.299   0.842   5.705 -0.8483 -0.5902 -1.3526
 4566TIP3   OH235188   5.694   2.224   6.491 -0.2339  0.0835  0.2532
 4566TIP3    H135189   5.764   2.271   6.537 -1.4450  2.6219 -0.4245
 4566TIP3    H235190   5.655   2.168   6.559  1.4586 -0.2438  0.9910
 4567TIP3   OH235191   0.212   5.343  16.032 -0.0957  0.2932 -0.0886
 4567TIP3    H135192   0.210   5.285  15.956  0.7637  0.3334 -0.1533
 4567TIP3    H235193   0.179   5.290  16.104 -0.9346  0.2598 -0.4897
 4568TIP3   OH235194   5.232   3.583  16.051 -0.2946  0.6037  0.3154
 4568TIP3    H135195   5.138   3.576  16.033 -0.3500 -1.8130  1.2969
 4568TIP3    H235196   5.250   3.677  16.050 -2.2345  0.9933 -2.2625
 4569TIP3   OH235197   4.481   0.757   4.525 -0.3807  0.1914  0.0106
 4569TIP3    H135198   4.524   0.841   4.509  0.3994 -0.3124 -0.5664
 4569TIP3    H235199   4.546   0.691   4.499 -1.6204 -0.5785 -1.2375
 4570TIP3   OH235200   2.609   5.734   0.049  0.4676 -0.2423 -0.0586
 4570TIP3    H135201   2.680   5.702  -0.007  1.4025 -0.6477  1.3306
 4570TIP3    H235202   2.532   5.686   0.020  1.4057 -2.1480  0.5161
 4571TIP3   OH235203   4.867   3.063   0.219 -0.6979  0.1304  0.3729
 4571TIP3    H135204   4.868   3.022   0.306 -2.2775 -0.5785  0.0747
 4571TIP3    H235205   4.951   3.108   0.213 -0.8017  0.6807  2.5109
 4572TIP3   OH235206   0.651   2.966  14.255  0.2360  0.6080  0.2029
 4572TIP3    H135207   0.701   2.912  14.194 -1.4846 -0.3087 -0.4449
 4572TIP3    H235208   0.664   2.925  14.340  1.6958  1.1940  0.2694
 4573TIP3   OH235209   3.724   1.103  13.497 -0.1935  1.0066 -0.1566
 4573TIP3    H135210   3.724   1.009  13.477  0.5400  0.9186  0.2214
 4573TIP3    H235211   3.804   1.116  13.548  0.1520  1.9997 -0.9395
 4574TIP3   OH235212   0.333   6.417  11.779 -0.7187  0.1288 -0.2728
 4574TIP3    H135213   0.328   6.338  11.832 -0.5855 -0.3217 -0.9190
 4574TIP3    H235214   0.288   6.394  11.698 -0.6961  0.7217 -0.4577
 4575TIP3   OH235215   4.471   6.783  12.566 -0.2371  0.0376  0.4942
 4575TIP3    H135216   4.511   6.869  12.578  2.4853 -1.2960  1.4031
 4575TIP3    H235217   4.510   6.749  12.486 -0.5948 -0.7355  0.6366
 4576TIP3   OH235218   6.788   6.172  15.107  0.3666  0.1457 -0.0911
 4576TIP3    H135219   6.752   6.178  15.196  1.1647  1.4021  0.1588
 4576TIP3    H235220   6.848   6.246  15.101  1.9249 -1.1641 -0.9542
 4577TIP3   OH235221   3.336   4.327  13.364  0.1794  0.1450 -0.5021
 4577TIP3    H135222   3.267   4.392  13.375  1.4843  1.3449  0.7267
 4577TIP3    H235223   3.350   4.292  13.452 -0.3408 -1.6764 -1.1001
 4578TIP3   OH235224   4.664   0.240  13.441  0.3119  0.0136  0.2593
 4578TIP3    H135225   4.668   0.195  13.356  0.0833  2.3303 -1.0300
 4578TIP3    H235226   4.570   0.249  13.459  0.3618 -0.6065  0.8366
 4579TIP3   OH235227   2.285   5.138  14.875  0.5764  0.8679 -0.1864
 4579TIP3    H135228   2.377   5.113  14.886  0.4051  0.4814  0.3902
 4579TIP3    H235229   2.279   5.168  14.784  1.1582  0.3810 -0.3932
 4580TIP3   OH235230   1.961   0.727  16.157 -0.1889  0.1031  0.6376
 4580TIP3    H135231   1.999   0.736  16.244 -0.5524 -1.3774  0.9759
 4580TIP3    H235232   1.912   0.645  16.161 -0.2468  0.0406 -0.9466
 4581TIP3   OH235233   1.231   2.622  14.314  0.1863 -0.1965 -0.1078
 4581TIP3    H135234   1.148   2.579  14.336 -0.8740  0.3198 -2.9012
 4581TIP3    H235235   1.273   2.561  14.253  1.2329  0.1823  0.2372
 4582TIP3   OH235236   1.343   3.039  10.998  0.5489  0.1658  0.7617
 4582TIP3    H135237   1.421   2.998  10.961 -0.1544 -0.0622 -0.5149
 4582TIP3    H235238   1.289   2.966  11.028 -0.1638  0.2008 -0.4066
 4583TIP3   OH235239   4.512   0.378  14.037  0.1131 -0.0607 -0.5828
 4583TIP3    H135240   4.574   0.348  13.971  1.2585  1.8191 -0.4050
 4583TIP3    H235241   4.426   0.371  13.994  0.8171  0.8748 -2.2038
 4584TIP3   OH235242   1.384   2.052  11.376  0.1102 -0.2088  0.0379
 4584TIP3    H135243   1.356   2.023  11.290  4.0395 -1.0285 -1.0880
 4584TIP3    H235244   1.434   2.132  11.359 -1.4255  1.2003  1.9072
 4585TIP3   OH235245   5.068   0.110   4.317 -0.0580  0.3209 -0.2367
 4585TIP3    H135246   5.112   0.030   4.346 -0.4310  0.2924  0.2601
 4585TIP3    H235247   4.974   0.090   4.324 -0.1573  0.9237  0.2461
 4586TIP3   OH235248   0.024   1.864  10.777  0.4425 -0.2001 -0.2413
 4586TIP3    H135249   0.076   1.922  10.722  0.1396  1.3070  1.0264
 4586TIP3    H235250   0.059   1.877  10.865 -1.3248 -0.0130  0.4531
 4587TIP3   OH235251   2.780   4.639   0.441  0.4288 -0.3765  0.0546
 4587TIP3    H135252   2.694   4.647   0.399  0.1800 -0.3992  0.5666
 4587TIP3    H235253   2.797   4.726   0.478 -0.0230 -0.7830  1.2259
 4588TIP3   OH235254   4.578   4.202  14.410  0.0652 -0.0150  0.2698
 4588TIP3    H135255   4.544   4.291  14.421  0.8677  0.6519 -2.2609
 4588TIP3    H235256   4.663   4.203  14.455 -0.1624  0.3540  0.6932
 4589TIP3   OH235257   6.228   3.290   5.555 -0.7662  0.1496 -0.3112
 4589TIP3    H135258   6.228   3.205   5.511  0.1064 -0.2017  0.3551
 4589TIP3    H235259   6.316   3.299   5.591 -2.5146 -1.4079  4.8446
 4590TIP3   OH235260   0.469   2.349   3.448 -0.3226 -0.3412  0.0356
 4590TIP3    H135261   0.451   2.396   3.367 -0.8266 -0.0400  0.3211
 4590TIP3    H235262   0.420   2.267   3.440 -0.0863 -0.4677 -0.1167
 4591TIP3   OH235263   3.861   5.935   5.078  0.1584  0.0672 -0.4671
 4591TIP3    H135264   3.825   5.871   5.139  0.4526  1.9637  1.7487
 4591TIP3    H235265   3.949   5.901   5.057 -1.0655 -2.1472 -2.2569
 4592TIP3   OH235266   6.012   1.961   2.112 -0.8208  0.1870 -0.4484
 4592TIP3    H135267   5.941   2.005   2.065 -0.1769 -0.0686 -1.6902
 4592TIP3    H235268   6.031   1.883   2.059  2.3446  1.7570 -1.7652
 4593TIP3   OH235269   0.015   2.983  13.057  0.0715 -0.4542 -0.2768
 4593TIP3    H135270  -0.061   2.962  13.111 -1.4849  1.0587 -1.8514
 4593TIP3    H235271   0.051   3.063  13.097 -1.1148  0.6986 -1.4684
 4594TIP3   OH235272   0.139   5.631   3.788  0.1944  0.1712  0.2198
 4594TIP3    H135273   0.048   5.621   3.814 -0.0795 -0.2456 -0.8650
 4594TIP3    H235274   0.153   5.563   3.722  0.8902  1.1336 -0.6411
 4595TIP3   OH235275   3.363   0.003   5.226 -0.6030  0.2188  0.1965
 4595TIP3    H135276   3.452  -0.033   5.218 -0.5871 -0.0197  1.3418
 4595TIP3    H235277   3.374   0.082   5.279 -1.0479  0.3284  0.1259
 4596TIP3   OH235278   3.701   6.498  15.948  0.1622  0.1957 -0.0901
 4596TIP3    H135279   3.797   6.498  15.949  0.1599 -0.8610  0.3129
 4596TIP3    H235280   3.679   6.496  15.855  0.5207  0.7177 -0.1940
 4597TIP3   OH235281   2.407   4.312  11.313  0.5430  0.6893 -0.3009
 4597TIP3    H135282   2.311   4.311  11.314  0.5467  0.1077 -0.3114
 4597TIP3    H235283   2.431   4.250  11.243  0.9841 -2.8882  2.8331
 4598TIP3   OH235284   2.415   0.818  15.091 -0.2483 -0.4592  0.4526
 4598TIP3    H135285   2.363   0.884  15.137 -2.7291 -1.5823 -0.6405
 4598TIP3    H235286   2.447   0.862  15.013 -0.5159 -0.0908  0.5503
 4599TIP3   OH235287   5.961   2.204   1.719 -0.3813  0.5191 -0.2788
 4599TIP3    H135288   5.896   2.234   1.655  0.0970  0.6440 -0.7069
 4599TIP3    H235289   6.031   2.269   1.713 -0.6692  0.9526  0.9086
 4600TIP3   OH235290   1.374   5.100   5.112 -0.4667 -0.1175  0.4694
 4600TIP3    H135291   1.414   5.110   5.198  0.6788  0.9030 -0.1612
 4600TIP3    H235292   1.329   5.184   5.097 -1.5901 -0.7027  0.5419
 4601TIP3   OH235293   1.614   0.297   5.571  0.1783 -0.0123 -0.1998
 4601TIP3    H135294   1.530   0.333   5.601  0.3470  0.1832  0.0354
 4601TIP3    H235295   1.673   0.372   5.568  0.4447 -0.2138 -0.0192
 4602TIP3   OH235296   3.070   0.709  16.472 -0.2195 -0.1845  0.2543
 4602TIP3    H135297   3.035   0.798  16.474  0.9775  0.2708  2.1848
 4602TIP3    H235298   3.161   0.717  16.500  0.2065 -1.8931 -0.5234
 4603TIP3   OH235299   4.588   4.768   0.580  0.2661  0.5771  0.0312
 4603TIP3    H135300   4.583   4.765   0.484  2.1782  0.4386 -0.0928
 4603TIP3    H235301   4.500   4.794   0.608 -0.6728 -0.6227 -1.6963
 4604TIP3   OH235302   2.087   5.807   5.513 -0.1948  0.3323 -0.1744
 4604TIP3    H135303   2.170   5.833   5.473  1.5373 -2.3655  1.4910
 4604TIP3    H235304   2.091   5.842   5.602 -1.0901  0.5761 -0.2162
 4605TIP3   OH235305   2.694   4.528   0.730 -0.3543  0.1141 -0.0082
 4605TIP3    H135306   2.616   4.582   0.742 -0.3194  0.0331  0.6192
 4605TIP3    H235307   2.764   4.590   0.713 -0.1079  0.3476  1.7835
 4606TIP3   OH235308   5.880   6.138  14.836 -0.1950  0.1680  0.5364
 4606TIP3    H135309   5.908   6.215  14.786 -2.3242  0.2999 -0.4883
 4606TIP3    H235310   5.856   6.173  14.922 -0.3369  0.5166  0.3555
 4607TIP3   OH235311   0.362   2.660   0.148 -1.0271  0.1975 -0.2048
 4607TIP3    H135312   0.439   2.633   0.098 -1.2029 -0.8367  0.0815
 4607TIP3    H235313   0.292   2.667   0.083 -0.7751  0.8183 -0.4128
 4608TIP3   OH235314   5.545   3.044   2.898 -0.0694  0.1571  0.3482
 4608TIP3    H135315   5.491   2.970   2.927  0.6316  0.0505  1.3683
 4608TIP3    H235316   5.557   3.028   2.804 -0.6919 -0.5307  0.3747
 4609TIP3   OH235317   4.257   1.011   4.663 -0.1015  0.3010  0.2605
 4609TIP3    H135318   4.220   0.978   4.745  0.5600  1.4669  1.0324
 4609TIP3    H235319   4.262   0.934   4.606  0.3888 -0.6993  1.6559
 4610TIP3   OH235320   6.449   2.809   2.202  0.5078 -0.6416 -0.0728
 4610TIP3    H135321   6.395   2.836   2.277 -0.4007 -1.1650 -0.5364
 4610TIP3    H235322   6.528   2.863   2.210 -0.7928  1.3766 -0.3674
 4611TIP3   OH235323   2.104   5.847  14.039  0.5510  0.1836 -0.2767
 4611TIP3    H135324   2.159   5.923  14.018  0.9703 -0.2524 -0.7499
 4611TIP3    H235325   2.060   5.872  14.120 -0.5106  1.5826 -1.2523
 4612TIP3   OH235326   2.658   6.045   0.110 -0.4480  0.2710 -0.0286
 4612TIP3    H135327   2.657   5.951   0.091  2.6321  0.2338 -0.3126
 4612TIP3    H235328   2.566   6.069   0.121 -1.2578 -2.8447  0.3825
 4613TIP3   OH235329   6.264   1.287   3.899 -0.3041 -0.0781 -0.3218
 4613TIP3    H135330   6.273   1.366   3.952 -1.8995 -0.3296  0.3463
 4613TIP3    H235331   6.266   1.318   3.808 -2.0707  0.8810 -0.0579
 4614TIP3   OH235332   2.321   5.446   3.668  0.4162  0.2937 -0.0152
 4614TIP3    H135333   2.303   5.540   3.667  0.5803  0.3132 -1.0473
 4614TIP3    H235334   2.413   5.439   3.643  0.5884 -0.1088  0.6996
 4615TIP3   OH235335   3.383   0.868  11.867 -0.1793  0.4681  0.1659
 4615TIP3    H135336   3.393   0.961  11.844 -1.0005 -0.0217 -2.3646
 4615TIP3    H235337   3.305   0.866  11.923 -1.7148  1.0443 -1.8690
 4616TIP3   OH235338   5.183   5.040  12.930 -0.3061 -0.5249  0.1301
 4616TIP3    H135339   5.242   5.078  12.864  0.2135 -1.0071  0.3095
 4616TIP3    H235340   5.208   4.948  12.934 -2.1943 -1.0998 -0.9826
 4617TIP3   OH235341   5.572   2.464  11.200 -0.5532  0.8039 -0.8368
 4617TIP3    H135342   5.595   2.473  11.292 -0.9862  0.3026 -0.6769
 4617TIP3    H235343   5.580   2.552  11.164  1.2649  0.7177 -0.7078
 4618TIP3   OH235344   3.619   4.934   2.040 -0.4654 -0.1554 -0.3638
 4618TIP3    H135345   3.580   5.022   2.043  0.1742  0.1339 -0.3814
 4618TIP3    H235346   3.571   4.889   1.971 -1.2225 -0.0230  0.0766
 4619TIP3   OH235347   4.164   6.651   4.862  0.7187  0.4211  0.1368
 4619TIP3    H135348   4.190   6.582   4.922  1.5206 -1.4190 -2.2157
 4619TIP3    H235349   4.232   6.718   4.872  0.3079  0.5633  1.9542
 4620TIP3   OH235350   6.342   0.593   3.393  0.4682 -0.6432  0.4605
 4620TIP3    H135351   6.351   0.688   3.404  1.2585 -0.5818 -0.6422
 4620TIP3    H235352   6.416   0.556   3.440  2.8330 -0.4622 -2.8982
 4621TIP3   OH235353   6.397   6.512   3.672  0.1329  0.2371 -0.1526
 4621TIP3    H135354   6.448   6.587   3.642  0.7196 -0.1015 -0.0214
 4621TIP3    H235355   6.419   6.503   3.764 -0.0799  0.0163 -0.1226
 4622TIP3   OH235356   2.366   4.761  14.989 -0.1019  0.2272 -0.0667
 4622TIP3    H135357   2.327   4.805  14.913  0.2268  0.3202 -0.1836
 4622TIP3    H235358   2.400   4.679  14.953  0.7655  0.6308 -0.1778
 4623TIP3   OH235359   1.457   4.173   2.212 -0.1319 -0.3211  0.4295
 4623TIP3    H135360   1.549   4.149   2.220 -0.3067 -2.3148 -2.7666
 4623TIP3    H235361   1.421   4.160   2.300  1.9523 -2.5143  1.0086
 4624TIP3   OH235362   5.330   6.165  14.906  0.2259  0.2071  0.1765
 4624TIP3    H135363   5.299   6.081  14.871 -1.3529 -0.0433  2.0699
 4624TIP3    H235364   5.270   6.230  14.868 -0.1696  0.1782  0.7523
 4625TIP3   OH235365   3.992   6.128  15.748 -0.7677 -0.3251  0.0930
 4625TIP3    H135366   3.968   6.169  15.831  0.8413 -1.2038  1.0077
 4625TIP3    H235367   3.999   6.201  15.687  0.7632  0.6461  1.3902
 4626TIP3   OH235368   3.332   5.756  16.888  0.0688  0.0053 -0.0166
 4626TIP3    H135369   3.309   5.723  16.975  1.2492  1.2588  0.7902
 4626TIP3    H235370   3.298   5.845  16.887  2.2596  0.8725  0.1148
 4627TIP3   OH235371   2.542   1.093  11.924 -0.7494 -0.1508 -0.4714
 4627TIP3    H135372   2.521   1.056  12.009 -1.8413 -0.4232 -0.8478
 4627TIP3    H235373   2.503   1.032  11.861 -0.0177  0.0826 -1.1609
 4628TIP3   OH235374   6.683   5.333   5.581  0.1670  0.2772  0.5583
 4628TIP3    H135375   6.660   5.334   5.488  1.3691 -4.2007  0.1121
 4628TIP3    H235376   6.603   5.360   5.625 -0.3024  2.9392 -1.7227
 4629TIP3   OH235377   6.077   3.711  15.994 -0.0424 -0.3118  0.0924
 4629TIP3    H135378   6.116   3.642  15.940 -1.8799 -0.2191 -1.3814
 4629TIP3    H235379   6.044   3.666  16.071  2.5505 -0.4522  1.1792
 4630TIP3   OH235380   6.375   6.022  16.806 -0.5623  0.1192 -0.6485
 4630TIP3    H135381   6.391   6.032  16.712 -1.0636 -0.4395 -0.8053
 4630TIP3    H235382   6.304   5.958  16.811  0.3513 -0.8605  0.1549
 4631TIP3   OH235383   6.361   6.597  15.601 -0.6907 -0.4207  0.3730
 4631TIP3    H135384   6.353   6.690  15.623 -0.5605 -0.5882  1.1650
 4631TIP3    H235385   6.400   6.558  15.679  1.2794 -0.7912 -0.7693
 4632TIP3   OH235386   2.794   5.096   3.616  0.1082  0.4847  0.2609
 4632TIP3    H135387   2.856   5.146   3.669  0.0569 -0.2232  1.0099
 4632TIP3    H235388   2.820   5.112   3.526  0.4446  1.4018  0.5147
 4633TIP3   OH235389   6.424   1.523  13.457 -0.2655  0.0741  0.3962
 4633TIP3    H135390   6.419   1.470  13.378 -0.2406  0.1067  0.3725
 4633TIP3    H235391   6.349   1.582  13.451  0.2462  0.6768 -0.0347
 4634TIP3   OH235392   2.582   5.885   5.356 -0.4537  0.1296 -0.0610
 4634TIP3    H135393   2.676   5.869   5.358 -0.5867 -0.7252 -0.1939
 4634TIP3    H235394   2.545   5.807   5.314 -1.4257 -0.5514  1.9931
 4635TIP3   OH235395   1.840   4.098  12.908 -0.0017  0.1334 -0.0340
 4635TIP3    H135396   1.797   4.017  12.881  0.1803  0.2452 -0.6453
 4635TIP3    H235397   1.770   4.164  12.906 -0.3998 -0.2069  1.4747
 4636TIP3   OH235398   2.200   3.964  13.772 -1.0687  0.2606 -0.0719
 4636TIP3    H135399   2.139   3.925  13.710 -0.8855 -0.9608  0.5056
 4636TIP3    H235400   2.244   3.890  13.813  2.8878  1.1099 -2.5024
 4637TIP3   OH235401   2.461   1.239  16.881  0.2224  0.9227  0.4502
 4637TIP3    H135402   2.444   1.315  16.938  1.8137  1.0431  0.7941
 4637TIP3    H235403   2.414   1.167  16.923  2.9292  0.5717  3.0482
 4638TIP3   OH235404   3.963   3.186   1.458 -0.5239 -0.3981  0.0705
 4638TIP3    H135405   3.970   3.264   1.402 -0.2731 -0.6178 -0.2112
 4638TIP3    H235406   4.037   3.131   1.430  0.1794 -0.0828  1.2919
 4639TIP3   OH235407   2.243   3.784   1.992  0.2448  0.3611 -0.1909
 4639TIP3    H135408   2.151   3.801   2.010  0.4017  2.3986 -1.1420
 4639TIP3    H235409   2.287   3.792   2.077 -0.4074 -0.4125  0.2253
 4640TIP3   OH235410   5.618   1.292   5.358  0.5195 -0.5411 -0.0369
 4640TIP3    H135411   5.701   1.293   5.406 -0.1156  0.5583  1.0548
 4640TIP3    H235412   5.565   1.359   5.400 -0.5977 -0.5966 -1.3332
 4641TIP3   OH235413   5.262   0.413   3.160  0.0699  0.4389 -0.4610
 4641TIP3    H135414   5.233   0.329   3.197  1.3544  0.5210  0.7659
 4641TIP3    H235415   5.350   0.425   3.195 -0.7565  3.1471  0.7513
 4642TIP3   OH235416   0.827   5.912  11.932  0.4204  0.5388  0.4363
 4642TIP3    H135417   0.772   5.890  12.007 -0.1309  0.1055 -0.0941
 4642TIP3    H235418   0.917   5.905  11.966  0.1780  0.1427  0.9997
 4643TIP3   OH235419   1.705   0.865   0.231 -0.3928 -0.0578 -0.0187
 4643TIP3    H135420   1.702   0.955   0.201  0.2897 -0.0739 -0.1369
 4643TIP3    H235421   1.613   0.839   0.238 -0.6041  0.8875  0.7633
 4644TIP3   OH235422   1.169   0.910  11.814 -0.2695 -0.0622 -0.3704
 4644TIP3    H135423   1.074   0.904  11.798 -0.2081 -2.5843 -0.0412
 4644TIP3    H235424   1.208   0.907  11.726 -0.4392 -0.6217 -0.4280
 4645TIP3   OH235425   3.102   3.975  12.606  0.0255  0.9451  0.2463
 4645TIP3    H135426   3.072   3.889  12.634 -0.2166  1.6159  2.1467
 4645TIP3    H235427   3.191   3.959  12.572 -0.2922 -0.1502 -0.1012
 4646TIP3   OH235428   5.950   6.614   1.814  0.3559  0.0155 -0.4898
 4646TIP3    H135429   5.920   6.703   1.797 -0.8399 -0.7319 -2.4092
 4646TIP3    H235430   6.021   6.600   1.752 -1.2444 -1.2732 -2.0885
 4647TIP3   OH235431   3.380   0.259   0.539  0.0369 -0.3892  0.1412
 4647TIP3    H135432   3.316   0.305   0.485 -0.4801  0.0731  1.1288
 4647TIP3    H235433   3.447   0.230   0.478 -1.3454 -1.2723 -0.9811
 4648TIP3   OH235434   0.715   2.252   2.331 -0.0550  0.1893 -0.1841
 4648TIP3    H135435   0.764   2.216   2.256 -0.0546  0.0313 -0.1081
 4648TIP3    H235436   0.644   2.303   2.291  0.7687  1.2478 -0.2984
 4649TIP3   OH235437   1.391   1.451  12.250 -0.1817  0.1648  0.3689
 4649TIP3    H135438   1.343   1.369  12.263 -0.7500  0.4102 -0.1450
 4649TIP3    H235439   1.448   1.434  12.176 -0.5787  0.3481  0.0151
 4650TIP3   OH235440   0.201   3.394  16.242  0.4311  0.7612  0.4941
 4650TIP3    H135441   0.134   3.331  16.270 -2.2666  3.1135 -0.4193
 4650TIP3    H235442   0.242   3.425  16.323  1.3461 -1.6316  0.9844
 4651TIP3   OH235443   0.707   3.627   0.339  0.2034  0.6236  0.0023
 4651TIP3    H135444   0.629   3.669   0.303 -1.1508 -3.0968 -1.7019
 4651TIP3    H235445   0.768   3.621   0.265  1.4661  1.9217  0.8967
 4652TIP3   OH235446   6.251   0.928   4.187 -0.3374  0.3486  0.8047
 4652TIP3    H135447   6.192   0.853   4.181 -0.8383  0.5982  2.4045
 4652TIP3    H235448   6.193   1.002   4.204 -0.0028  1.3816 -2.2130
 4653TIP3   OH235449   2.168   3.979   5.982 -0.0998  0.0402 -0.2354
 4653TIP3    H135450   2.259   3.959   6.006  0.0228  1.4768  0.5464
 4653TIP3    H235451   2.116   3.935   6.049  0.1840  2.5453  1.7259
 4654TIP3   OH235452   2.827   2.212   1.061 -0.3536 -0.0752  0.3298
 4654TIP3    H135453   2.757   2.218   1.125 -0.2689  0.6404  0.3586
 4654TIP3    H235454   2.902   2.254   1.104 -0.2925  0.3855 -0.2296
 4655TIP3   OH235455   2.356   5.031  12.838  0.1148  0.1587 -0.3503
 4655TIP3    H135456   2.336   5.117  12.877  1.5427  0.5064 -0.3454
 4655TIP3    H235457   2.394   4.981  12.910 -0.0772 -0.2421 -0.5318
 4656TIP3   OH235458   4.367   0.654  10.828  0.8005 -0.4018 -0.5881
 4656TIP3    H135459   4.380   0.648  10.923  2.8137 -0.5680 -0.8493
 4656TIP3    H235460   4.392   0.744  10.807  0.6787 -0.4692 -1.0118
 4657TIP3   OH235461   4.290   3.893  13.312 -0.3993 -0.4299  0.3668
 4657TIP3    H135462   4.289   3.890  13.216 -2.9207 -0.5532  0.3528
 4657TIP3    H235463   4.375   3.856  13.336 -0.2834 -1.7033 -1.7880
 4658TIP3   OH235464   1.353   3.110  11.559 -0.9722  0.3370  0.1029
 4658TIP3    H135465   1.287   3.108  11.489 -1.5250 -0.4933  0.6351
 4658TIP3    H235466   1.426   3.059  11.525 -0.7983  0.8518 -0.2974
 4659TIP3   OH235467   2.020   1.281   0.410 -0.4022 -0.4451  0.1658
 4659TIP3    H135468   1.971   1.342   0.355 -1.3008 -1.9809 -0.7651
 4659TIP3    H235469   2.055   1.216   0.349  2.5043  0.4211  0.8713
 4660TIP3   OH235470   4.164   4.362   6.309  0.3019  0.5189  0.0501
 4660TIP3    H135471   4.184   4.435   6.251  1.9314  0.5657  0.6544
 4660TIP3    H235472   4.077   4.332   6.281  1.2752  0.2011 -2.7279
 4661TIP3   OH235473   4.939   3.999  11.837  0.0520 -0.0778  0.0467
 4661TIP3    H135474   4.907   4.002  11.927 -0.0893 -1.0913  0.0409
 4661TIP3    H235475   5.032   3.979  11.845  0.0719 -0.0170 -0.0320
 4662TIP3   OH235476   0.752   5.537   3.112 -0.4802  0.2745 -0.3333
 4662TIP3    H135477   0.816   5.600   3.144 -0.9635  0.9781 -0.7246
 4662TIP3    H235478   0.731   5.483   3.187 -0.8869  1.2937  0.3048
 4663TIP3   OH235479   6.206   2.138   5.304  0.5320  0.6417  0.2305
 4663TIP3    H135480   6.180   2.091   5.225  0.2575  0.0373  0.6702
 4663TIP3    H235481   6.124   2.170   5.341  0.7393  1.6508 -0.1771
 4664TIP3   OH235482   2.197   4.342  16.322  0.2351  0.0235  0.1161
 4664TIP3    H135483   2.117   4.370  16.278  0.9445 -0.2882 -1.3972
 4664TIP3    H235484   2.237   4.423  16.353 -0.9339  0.1412  1.3917
 4665TIP3   OH235485   3.148   3.371   6.288 -0.1168 -0.1187  0.1349
 4665TIP3    H135486   3.067   3.412   6.319 -0.1272  0.4668 -0.6616
 4665TIP3    H235487   3.218   3.421   6.330 -0.1473  0.0554 -0.0227
 4666TIP3   OH235488   3.379   1.782  12.357 -0.0996 -0.0298 -0.2418
 4666TIP3    H135489   3.472   1.798  12.339  0.1190  2.0365  2.5480
 4666TIP3    H235490   3.345   1.867  12.384 -2.9129 -0.7022 -1.5057
 4667TIP3   OH235491   4.131   5.325   3.222  0.2328 -1.0066 -0.0651
 4667TIP3    H135492   4.207   5.329   3.163  0.2380 -0.1002  0.0011
 4667TIP3    H235493   4.131   5.235   3.253  1.9949 -0.7245  0.8445
 4668TIP3   OH235494   0.321   0.416  11.466 -0.2232  0.2515 -0.7279
 4668TIP3    H135495   0.253   0.447  11.525 -0.0994  0.5881 -0.7585
 4668TIP3    H235496   0.312   0.321  11.467  0.6283  0.1776  0.8474
 4669TIP3   OH235497   5.124   4.833   0.385  0.4814  0.3138 -0.1835
 4669TIP3    H135498   5.133   4.812   0.478  1.7827  2.4592  0.2159
 4669TIP3    H235499   5.193   4.898   0.368  0.1384  0.1052 -2.6019
 4670TIP3   OH235500   4.778   1.260   0.539  0.2465  0.2044  0.1862
 4670TIP3    H135501   4.785   1.178   0.488 -2.5951 -0.1908  0.3704
 4670TIP3    H235502   4.775   1.329   0.472  2.6921  0.2316  0.0300
 4671TIP3   OH235503   1.905   1.000  10.769  0.4065  0.1703 -0.1283
 4671TIP3    H135504   1.828   0.958  10.731  0.3381 -0.0977  0.3009
 4671TIP3    H235505   1.977   0.938  10.753  0.3505 -0.0103  0.2968
 4672TIP3   OH235506   3.038   0.035   3.981 -1.0812  0.4366  0.1118
 4672TIP3    H135507   3.009   0.010   4.069  0.1367  0.3219  0.4998
 4672TIP3    H235508   3.118  -0.017   3.967 -1.1744  0.5735 -1.0022
 4673TIP3   OH235509   5.711   2.739   0.047 -0.0360 -0.3890 -0.5270
 4673TIP3    H135510   5.682   2.654   0.079  0.0745 -0.0659  0.4396
 4673TIP3    H235511   5.664   2.802   0.101 -0.1029  0.1721 -1.2275
 4674TIP3   OH235512   1.107   2.513  15.651  0.0175  0.5690  0.2469
 4674TIP3    H135513   1.103   2.588  15.711  1.3481  0.3988  0.5641
 4674TIP3    H235514   1.174   2.537  15.587  1.7911 -1.1078  1.4290
 4675TIP3   OH235515   0.378   3.842  14.790  0.6317  0.2654  0.1251
 4675TIP3    H135516   0.465   3.842  14.831  1.1581 -1.7497 -0.8857
 4675TIP3    H235517   0.318   3.862  14.861  1.7191 -0.9723  1.4433
 4676TIP3   OH235518   6.247   3.887   3.002  0.1202 -0.4746 -0.2162
 4676TIP3    H135519   6.259   3.821   3.071  2.2534 -0.7860 -0.8613
 4676TIP3    H235520   6.239   3.970   3.049  3.2137 -0.4582  0.3983
 4677TIP3   OH235521   3.392   3.742  16.423 -0.1265 -0.1879  0.2773
 4677TIP3    H135522   3.367   3.781  16.339 -2.0160 -1.0037  0.4292
 4677TIP3    H235523   3.487   3.754  16.428 -0.2058  1.2421 -1.2578
 4678TIP3   OH235524   2.693   3.708   6.043 -0.4913  0.1564  0.1819
 4678TIP3    H135525   2.652   3.693   5.958 -0.4892  0.5850  0.1020
 4678TIP3    H235526   2.621   3.704   6.106 -0.6228  0.7125  0.0638
 4679TIP3   OH235527   2.663   3.854   1.925 -0.1909 -0.6646 -0.3228
 4679TIP3    H135528   2.696   3.767   1.901  0.3086 -0.7248  0.5444
 4679TIP3    H235529   2.713   3.915   1.870  0.5555 -0.8299  0.1623
 4680TIP3   OH235530   2.073   1.706  14.904 -0.3544  0.3861 -0.1186
 4680TIP3    H135531   2.152   1.681  14.953 -2.2461 -1.2853  2.2270
 4680TIP3    H235532   2.094   1.685  14.813  1.4875 -1.1753  0.6200
 4681TIP3   OH235533   2.106   5.676  15.221  0.0061  0.1873 -0.1658
 4681TIP3    H135534   2.029   5.620  15.221 -0.6075  1.0217 -0.4465
 4681TIP3    H235535   2.132   5.682  15.313  1.3058 -2.2204 -0.3437
 4682TIP3   OH235536   3.652   1.197  13.261  0.2623  0.1617  0.4856
 4682TIP3    H135537   3.559   1.216  13.268 -0.1906 -0.9647 -2.1303
 4682TIP3    H235538   3.673   1.154  13.344 -1.9079 -1.0387  0.4482
 4683TIP3   OH235539   4.800   0.202  11.522  0.3243  0.0972  0.2405
 4683TIP3    H135540   4.766   0.261  11.455  0.2889 -0.5755 -0.3383
 4683TIP3    H235541   4.731   0.198  11.588  0.2879  0.6221  0.2386
 4684TIP3   OH235542   1.308   3.194   0.655  0.0778  0.2257 -0.2846
 4684TIP3    H135543   1.228   3.196   0.604  0.8337 -0.7103 -1.5241
 4684TIP3    H235544   1.351   3.112   0.629  0.4811 -0.2732  1.8292
 4685TIP3   OH235545   2.477   0.538  17.133  0.6550 -0.0069 -0.2237
 4685TIP3    H135546   2.500   0.631  17.135  0.1301  0.1163 -0.1156
 4685TIP3    H235547   2.389   0.536  17.096  0.2239 -0.3879  0.8322
 4686TIP3   OH235548   4.082   4.420  17.285  0.5829 -0.2375  0.3402
 4686TIP3    H135549   4.135   4.500  17.280  1.3178 -0.5964  1.9954
 4686TIP3    H235550   4.012   4.434  17.222  1.0210  1.4815  0.2000
 4687TIP3   OH235551   1.360   6.177   0.119 -0.5658 -0.2119 -0.0878
 4687TIP3    H135552   1.341   6.203   0.029 -0.2541  0.6431  0.0835
 4687TIP3    H235553   1.354   6.082   0.119  1.4967 -0.3863 -1.5056
 4688TIP3   OH235554   3.383   0.135  11.871  0.2199  0.2934  0.5531
 4688TIP3    H135555   3.450   0.093  11.925  0.5616 -0.1145 -0.1746
 4688TIP3    H235556   3.310   0.074  11.870  0.4722 -0.0084  0.0157
 4689TIP3   OH235557   3.983   2.250  13.134  0.1337  0.0050  0.0589
 4689TIP3    H135558   3.904   2.279  13.090  0.1058 -0.0888  0.0478
 4689TIP3    H235559   3.957   2.239  13.226  0.4304  1.1266  0.2856
 4690TIP3   OH235560   5.702   2.306  12.307  0.3207 -0.2614  0.1019
 4690TIP3    H135561   5.616   2.268  12.324 -0.0744 -0.5868 -2.3978
 4690TIP3    H235562   5.685   2.400  12.296  0.4709 -0.1594  0.6915
 4691TIP3   OH235563   3.639   4.255   3.238  0.5581 -0.0789  0.1562
 4691TIP3    H135564   3.554   4.228   3.203  0.9756  0.4317 -1.2684
 4691TIP3    H235565   3.645   4.210   3.323 -1.2540  0.1176  0.4135
 4692TIP3   OH235566   5.468   1.119  15.171  0.0409  0.2759 -0.0993
 4692TIP3    H135567   5.495   1.204  15.134 -0.8823  0.6289  0.0287
 4692TIP3    H235568   5.372   1.121  15.167 -0.0373 -0.0307  1.5558
 4693TIP3   OH235569   2.977   0.227   1.398  0.3194 -0.0158 -0.6434
 4693TIP3    H135570   3.024   0.284   1.458 -1.5856 -0.8104  1.6952
 4693TIP3    H235571   2.971   0.143   1.444 -0.8696 -0.7517 -2.0844
 4694TIP3   OH235572   3.425   6.120   3.169  0.0272 -0.0182  0.1083
 4694TIP3    H135573   3.483   6.075   3.230  0.3053  0.7329  0.4083
 4694TIP3    H235574   3.387   6.051   3.115 -0.7235 -0.7596  1.5554
 4695TIP3   OH235575   2.097   3.295  14.842 -0.2605  0.5287  0.0617
 4695TIP3    H135576   2.090   3.366  14.906 -1.6430 -0.3219  0.8705
 4695TIP3    H235577   2.017   3.244  14.854  0.3297 -0.6880 -1.0887
 4696TIP3   OH235578   4.471   0.492   6.674  0.0224 -0.3835  0.1219
 4696TIP3    H135579   4.387   0.453   6.701  0.0063 -0.6414 -0.2792
 4696TIP3    H235580   4.530   0.475   6.747 -0.2445 -0.3110  0.3555
 4697TIP3   OH235581   0.986   2.997  11.924  0.2056 -0.7972  0.3313
 4697TIP3    H135582   1.011   3.049  11.848  0.4546  0.5038  1.2903
 4697TIP3    H235583   0.975   3.061  11.994 -2.7020 -1.6463  0.7381
 4698TIP3   OH235584   3.979   5.963   4.259 -0.0827 -0.1849 -0.7206
 4698TIP3    H135585   3.964   5.984   4.167  1.8303 -1.6833 -1.4193
 4698TIP3    H235586   3.894   5.974   4.301 -0.9539  0.6052 -2.6398
 4699TIP3   OH235587   4.977   1.863   3.005  0.5848  0.0515  0.2555
 4699TIP3    H135588   4.896   1.858   2.955  0.5105  1.0938  0.2705
 4699TIP3    H235589   4.968   1.942   3.058  1.4684 -0.0162  0.5168
 4700TIP3   OH235590   1.770   0.865   5.943  0.4841  0.5625 -0.4713
 4700TIP3    H135591   1.812   0.819   6.015  0.1517  1.8945  0.5854
 4700TIP3    H235592   1.834   0.863   5.872  1.0848 -0.1384  0.0917
 4701TIP3   OH235593   3.286   5.527  13.330 -0.5622  0.8088  0.1967
 4701TIP3    H135594   3.267   5.474  13.254  0.1451  2.8004 -1.4171
 4701TIP3    H235595   3.378   5.552  13.320 -0.4194  1.0060  1.7467
 4702TIP3   OH235596   2.650   5.016  13.968  0.4917  0.2189 -0.0811
 4702TIP3    H135597   2.564   5.053  13.991 -0.6105 -1.4646 -1.4191
 4702TIP3    H235598   2.658   5.031  13.874  2.4805  1.9646  0.3302
 4703TIP3   OH235599   6.232   0.759   4.613 -0.5014 -0.2135 -0.3047
 4703TIP3    H135600   6.275   0.823   4.670  1.4665  0.1585 -2.1695
 4703TIP3    H235601   6.259   0.674   4.646  0.2803 -0.0044 -0.4055
 4704TIP3   OH235602   5.198   3.100  16.630 -0.1140 -0.0168 -0.2218
 4704TIP3    H135603   5.225   3.071  16.717  1.7792 -1.6660 -1.3279
 4704TIP3    H235604   5.148   3.026  16.595  0.5499 -0.0192 -1.1749
 4705TIP3   OH235605   4.968   0.601  15.761  0.0397  0.7226 -0.0441
 4705TIP3    H135606   5.026   0.674  15.741 -0.2093  1.2577  1.1126
 4705TIP3    H235607   4.904   0.637  15.823 -1.7274  0.2329 -1.5467
 4706TIP3   OH235608   2.557   1.099   3.508  0.1714 -0.5740 -0.1717
 4706TIP3    H135609   2.624   1.167   3.502 -1.6393  1.2581 -0.1771
 4706TIP3    H235610   2.552   1.077   3.601  0.4876 -0.4375 -0.1240
 4707TIP3   OH235611   3.765   5.126   1.749  0.1812  0.0156 -0.3376
 4707TIP3    H135612   3.796   5.211   1.718 -0.9822 -0.3188 -2.5224
 4707TIP3    H235613   3.676   5.119   1.714  0.0281 -1.8107  0.3697
 4708TIP3   OH235614   6.721   4.616   3.240  0.4916  0.7599  0.1589
 4708TIP3    H135615   6.695   4.670   3.315 -0.0024  0.4424  0.2201
 4708TIP3    H235616   6.713   4.674   3.164 -0.0094  0.7826  0.2258
 4709TIP3   OH235617   1.896   0.340   5.038  0.0550  0.3972 -0.3638
 4709TIP3    H135618   1.817   0.384   5.070  0.0693 -0.9805  1.6870
 4709TIP3    H235619   1.911   0.269   5.101  0.3896 -2.1342 -3.1969
 4710TIP3   OH235620   0.388   4.140   4.701  0.0623 -0.0951  0.6793
 4710TIP3    H135621   0.427   4.057   4.674 -0.1413  0.0806 -0.1567
 4710TIP3    H235622   0.346   4.120   4.785  0.0304 -0.8381  0.4893
 4711TIP3   OH235623   2.333   5.354  13.366 -0.9340  0.6256 -0.3172
 4711TIP3    H135624   2.311   5.394  13.451 -0.2816 -0.7421  0.5017
 4711TIP3    H235625   2.411   5.402  13.337 -1.1321  1.0677 -0.1317
 4712TIP3   OH235626   2.362   5.946  12.423 -0.2376  0.5164 -0.4136
 4712TIP3    H135627   2.370   6.003  12.347  1.7753  0.0294 -0.6076
 4712TIP3    H235628   2.329   6.002  12.493 -0.4899  1.3565 -1.2034
 4713TIP3   OH235629   4.859   4.177   1.293 -0.2158  0.4878 -0.1846
 4713TIP3    H135630   4.810   4.199   1.214  0.2943 -0.6174 -0.8021
 4713TIP3    H235631   4.826   4.239   1.359 -0.2391  1.7828 -1.3898
 4714TIP3   OH235632   3.979   3.925   1.447 -0.2991  0.4939 -0.3506
 4714TIP3    H135633   3.978   3.957   1.356  0.8034 -0.1293 -0.5918
 4714TIP3    H235634   3.900   3.871   1.454  2.3356 -3.9771 -2.6333
 4715TIP3   OH235635   1.601   6.467  15.268  0.1718  0.4377  0.2248
 4715TIP3    H135636   1.507   6.452  15.260  0.3807 -0.7246 -0.2678
 4715TIP3    H235637   1.619   6.539  15.208 -0.5401  1.2618  0.9876
 4716TIP3   OH235638   2.600   2.370   5.444  0.0462 -0.4175 -0.0415
 4716TIP3    H135639   2.646   2.294   5.409 -0.6655 -0.3113 -1.2707
 4716TIP3    H235640   2.620   2.440   5.382  1.5989  0.6956  1.6916
 4717TIP3   OH235641   6.783   1.459  16.974 -0.4369 -0.4873  0.1178
 4717TIP3    H135642   6.774   1.476  16.880  1.5159 -0.2880 -0.0595
 4717TIP3    H235643   6.694   1.440  17.004 -1.1647  0.0345 -1.6541
 4718TIP3   OH235644   2.318   6.768   3.217 -0.2447  0.1953  0.1355
 4718TIP3    H135645   2.345   6.858   3.196 -0.7339  0.4410  0.5429
 4718TIP3    H235646   2.399   6.726   3.247  0.0941  0.3430 -0.5541
 4719TIP3   OH235647   5.274   0.222   6.520 -0.2801  0.4149  0.6210
 4719TIP3    H135648   5.246   0.304   6.480 -1.8361 -0.1676  0.4977
 4719TIP3    H235649   5.224   0.154   6.474  1.3687 -0.6694  0.3558
 4720TIP3   OH235650   0.338   3.001  13.003 -0.3645  0.5158  0.8418
 4720TIP3    H135651   0.271   2.934  12.997 -0.4280  0.6799 -0.3177
 4720TIP3    H235652   0.291   3.084  12.990  0.1939  0.5719 -0.9618
 4721TIP3   OH235653   3.913   1.479  11.872 -0.2109  0.1189  0.3111
 4721TIP3    H135654   3.999   1.455  11.906  0.8896  1.3720 -1.4589
 4721TIP3    H235655   3.861   1.498  11.950  0.4264 -2.7752  1.5022
 4722TIP3   OH235656   0.980   5.169   4.424 -0.0113 -0.3791 -0.3224
 4722TIP3    H135657   0.974   5.263   4.409 -1.5276 -0.5537 -0.8826
 4722TIP3    H235658   1.012   5.133   4.341  0.1054 -0.4030 -0.2666
 4723TIP3   OH235659   4.490   6.730  15.171 -0.3603  0.6441  0.0827
 4723TIP3    H135660   4.514   6.769  15.086 -0.4867  1.3333  0.3593
 4723TIP3    H235661   4.445   6.800  15.218 -0.8939  0.0565  0.4617
 4724TIP3   OH235662   5.813   1.205  15.286 -0.3680  0.4421 -0.1105
 4724TIP3    H135663   5.887   1.263  15.266  0.0160  0.4791  1.3650
 4724TIP3    H235664   5.740   1.263  15.303 -0.1456  0.4842  0.7281
 4725TIP3   OH235665   1.267   5.447  14.275  0.3827  0.7657  0.0717
 4725TIP3    H135666   1.330   5.451  14.347  0.9709 -1.2765 -0.2755
 4725TIP3    H235667   1.182   5.454  14.317  0.7730  1.4445  0.7661
 4726TIP3   OH235668   5.316   5.190   3.507 -0.2070 -0.1430 -0.2550
 4726TIP3    H135669   5.305   5.233   3.592 -0.6464 -0.7241 -0.0195
 4726TIP3    H235670   5.255   5.117   3.508 -0.6948  0.2374 -1.3392
 4727TIP3   OH235671   0.022   3.346   0.480 -0.5441  0.0483  0.2894
 4727TIP3    H135672   0.033   3.440   0.465 -0.3400 -0.1300 -0.6622
 4727TIP3    H235673   0.109   3.309   0.466 -0.6375 -0.2962  0.6023
 4728TIP3   OH235674   4.082   3.163   0.867 -0.1055  0.0429  0.3832
 4728TIP3    H135675   4.136   3.145   0.790  0.8082 -0.1331  1.0537
 4728TIP3    H235676   3.995   3.183   0.832  0.2864 -0.1141 -0.6828
 4729TIP3   OH235677   1.041   5.756  11.720  0.0966  0.1722 -0.1618
 4729TIP3    H135678   1.128   5.794  11.734 -0.7538  2.4789 -0.9222
 4729TIP3    H235679   1.005   5.744  11.808  0.6971  0.4014  0.1130
 4730TIP3   OH235680   5.580   0.681   6.364 -0.1672 -0.4384  0.0367
 4730TIP3    H135681   5.596   0.771   6.335  1.2256 -0.6295  0.1589
 4730TIP3    H235682   5.490   0.682   6.397  0.0837  1.0996  0.7301
 4731TIP3   OH235683   0.890   3.933  13.750 -0.0596 -0.0141  0.2788
 4731TIP3    H135684   0.976   3.977  13.751  0.0007 -0.1257  1.4804
 4731TIP3    H235685   0.889   3.882  13.831  0.2402 -2.9932 -1.5001
 4732TIP3   OH235686   2.772   1.608  17.241  0.1847 -0.1872 -0.0141
 4732TIP3    H135687   2.815   1.524  17.226 -1.5104 -1.4657  2.0867
 4732TIP3    H235688   2.800   1.635  17.328 -2.4180 -0.5576  0.9729
 4733TIP3   OH235689   4.868   1.289   4.601  0.3075  0.3326  0.0514
 4733TIP3    H135690   4.866   1.288   4.506 -2.3434 -0.0425  0.0802
 4733TIP3    H235691   4.886   1.381   4.624 -2.4096  1.1089 -0.8075
 4734TIP3   OH235692   0.519   6.565   2.221  0.0135  0.1475  0.0299
 4734TIP3    H135693   0.576   6.501   2.179 -2.9937 -1.3927 -1.9662
 4734TIP3    H235694   0.484   6.618   2.149  0.1709  2.1295  1.3523
 4735TIP3   OH235695   3.736   1.322   4.831  0.6725 -0.2041 -0.1527
 4735TIP3    H135696   3.771   1.274   4.755  1.8428  2.8451 -1.6159
 4735TIP3    H235697   3.671   1.381   4.793 -0.1127 -0.0076  1.4927
 4736TIP3   OH235698   1.050   2.237   5.262  0.5084  0.1341 -0.6594
 4736TIP3    H135699   1.123   2.276   5.311 -0.0566  0.8074 -0.3529
 4736TIP3    H235700   1.027   2.158   5.311  1.6252 -0.5779 -1.2550
 4737TIP3   OH235701   0.265   1.385  16.297  0.1693  0.4075 -0.6691
 4737TIP3    H135702   0.196   1.428  16.349  0.6317 -0.4120  0.6181
 4737TIP3    H235703   0.314   1.333  16.360  0.1755 -1.3262 -2.0734
 4738TIP3   OH235704   5.923   5.012  12.545 -0.5212 -0.1792 -0.3262
 4738TIP3    H135705   5.898   4.929  12.586 -0.7840 -0.1510 -0.4295
 4738TIP3    H235706   5.885   5.079  12.602  0.9909 -0.0904  0.6264
 4739TIP3   OH235707   5.373   3.494   4.981  0.2859 -0.4060  1.1000
 4739TIP3    H135708   5.422   3.411   4.979 -0.8187 -1.0596 -0.3903
 4739TIP3    H235709   5.379   3.527   4.891 -0.6605  0.3013  1.2914
 4740TIP3   OH235710   5.881   5.391   2.869  0.4377 -0.1979 -0.2822
 4740TIP3    H135711   5.877   5.395   2.965  0.7424  1.5557 -0.3171
 4740TIP3    H235712   5.965   5.351   2.850  2.2988  3.2149  0.2078
 4741TIP3   OH235713   0.487   2.159   4.971 -0.3312  0.6036  0.2644
 4741TIP3    H135714   0.502   2.134   5.063 -0.1678  2.7373  0.8335
 4741TIP3    H235715   0.455   2.249   4.976 -1.8922  0.1698 -1.6917
 4742TIP3   OH235716   5.263   6.361   5.363  0.8758  0.1591  0.0952
 4742TIP3    H135717   5.307   6.437   5.325 -1.0949  1.6244  0.6810
 4742TIP3    H235718   5.277   6.369   5.457 -0.5864  0.6284  0.2855
 4743TIP3   OH235719   5.667   2.226   3.937  0.5171 -0.1214  0.5167
 4743TIP3    H135720   5.641   2.318   3.935  2.7158  0.6183  2.4768
 4743TIP3    H235721   5.752   2.224   3.892  0.8550 -1.0410  1.1718
 4744TIP3   OH235722   1.816   2.271   4.353  0.7042 -0.1220  0.1859
 4744TIP3    H135723   1.785   2.306   4.437 -1.6010  3.6352 -2.1031
 4744TIP3    H235724   1.889   2.329   4.329  0.8664 -0.7158 -0.7836
 4745TIP3   OH235725   2.245   0.519  16.249 -0.4758 -0.1361 -0.0581
 4745TIP3    H135726   2.253   0.446  16.188 -0.9171  0.5778 -0.9810
 4745TIP3    H235727   2.221   0.594  16.194  1.8184  1.1331  0.5899
 4746TIP3   OH235728   1.711   4.932  13.160 -0.1651 -0.1469  0.3079
 4746TIP3    H135729   1.729   4.902  13.249  1.7141 -0.0262  0.0007
 4746TIP3    H235730   1.616   4.924  13.150 -0.6259  1.6320  2.9527
 4747TIP3   OH235731   3.300   1.657  13.258  0.2883 -0.1859  0.3194
 4747TIP3    H135732   3.374   1.599  13.276  1.1801  1.5702  2.6674
 4747TIP3    H235733   3.324   1.703  13.177 -0.2922 -2.8174 -1.3851
 4748TIP3   OH235734   0.920   0.027   4.748 -0.2841 -0.0681 -0.0650
 4748TIP3    H135735   0.920   0.115   4.786 -0.2309 -0.4140  0.7475
 4748TIP3    H235736   0.924   0.042   4.654  1.4456  0.7727  0.1188
 4749TIP3   OH235737   6.501   4.224   2.107  0.5631  0.2897  0.3544
 4749TIP3    H135738   6.581   4.193   2.067 -0.0272  0.7358 -1.2053
 4749TIP3    H235739   6.510   4.202   2.200  2.9959  1.3855  0.4163
 4750TIP3   OH235740   1.972   5.472  12.231  0.7063  0.1247 -0.4448
 4750TIP3    H135741   2.036   5.480  12.301 -2.1103 -0.2842  2.2989
 4750TIP3    H235742   1.947   5.380  12.231  0.7390  0.0943 -2.0828
 4751TIP3   OH235743   6.101   6.544   1.602  0.0711  0.2653 -0.2041
 4751TIP3    H135744   6.087   6.457   1.566 -0.8508  0.2970  0.0671
 4751TIP3    H235745   6.196   6.550   1.616  0.0816 -0.8616  0.2061
 4752TIP3   OH235746   4.200   5.551  12.598  0.2452 -0.0021  0.3055
 4752TIP3    H135747   4.141   5.516  12.664  0.7914  0.7339  1.1936
 4752TIP3    H235748   4.273   5.489  12.595 -0.7007 -1.0972 -1.0368
 4753TIP3   OH235749   5.402   5.980  13.044  0.5461 -0.5728  0.2277
 4753TIP3    H135750   5.449   5.986  13.128 -0.9668 -0.7419  1.0969
 4753TIP3    H235751   5.311   5.964  13.068  0.4463 -2.8776 -1.5189
 4754TIP3   OH235752   4.382   0.986   0.862 -0.1907 -0.5345  0.0935
 4754TIP3    H135753   4.371   1.017   0.772  0.1426  2.0270  0.8772
 4754TIP3    H235754   4.472   1.012   0.884 -1.0189  0.8463  1.8896
 4755TIP3   OH235755   5.831   0.295   3.413  0.5248  0.6732  0.4188
 4755TIP3    H135756   5.745   0.266   3.383 -0.7145  2.9030  1.6049
 4755TIP3    H235757   5.888   0.285   3.337 -1.0283  0.0958 -0.6985
 4756TIP3   OH235758   3.088   0.940  14.937  0.1089  0.1060  0.2212
 4756TIP3    H135759   3.141   0.940  14.857  0.1103  1.8706  0.2075
 4756TIP3    H235760   3.045   1.025  14.937 -1.0092 -0.4472  1.3769
 4757TIP3   OH235761   5.760   1.806  12.349  0.1897  0.4939 -0.1185
 4757TIP3    H135762   5.810   1.861  12.409  1.4111 -0.0714 -0.6002
 4757TIP3    H235763   5.777   1.842  12.262 -1.8826  1.5437 -0.1095
 4758TIP3   OH235764   0.759   5.493  15.424  0.4127 -0.3704 -0.1085
 4758TIP3    H135765   0.754   5.492  15.520  1.5441 -0.1862 -0.0326
 4758TIP3    H235766   0.696   5.426  15.396  0.0999 -0.4541  0.7650
 4759TIP3   OH235767   0.188   5.426  12.039 -0.5469  0.2102  0.6316
 4759TIP3    H135768   0.213   5.343  12.000  1.7061  0.2375  1.8918
 4759TIP3    H235769   0.217   5.492  11.977 -1.0547  0.0993  0.2775
 4760TIP3   OH235770   6.628   5.673   0.362 -0.0209 -0.1422  0.0657
 4760TIP3    H135771   6.649   5.580   0.363 -0.6683 -0.3131 -1.6616
 4760TIP3    H235772   6.565   5.683   0.291  2.0191  2.0516 -1.5239
 4761TIP3   OH235773   4.103   6.437   1.272  0.3627 -0.1688  0.1140
 4761TIP3    H135774   4.037   6.380   1.231 -0.1602  1.0586 -0.7768
 4761TIP3    H235775   4.055   6.516   1.295  1.4382  0.5695 -0.1550
 4762TIP3   OH235776   3.639   1.675  11.621 -0.0386  0.0648  0.0965
 4762TIP3    H135777   3.587   1.615  11.675 -0.1937  0.2427  0.1495
 4762TIP3    H235778   3.616   1.653  11.531 -0.0823  0.0339  0.1156
 4763TIP3   OH235779   0.441   0.095   5.655 -0.6128 -0.1161  0.3927
 4763TIP3    H135780   0.382   0.066   5.585 -1.1183  1.1235  0.3031
 4763TIP3    H235781   0.386   0.093   5.734 -0.3848 -0.3169  0.5467
 4764TIP3   OH235782   0.055   6.544  14.125 -0.0514 -0.3028 -0.6942
 4764TIP3    H135783   0.002   6.502  14.193  1.8456  1.7086  2.1617
 4764TIP3    H235784   0.135   6.492  14.121 -1.0658 -1.7103 -3.0015
 4765TIP3   OH235785   1.916   5.920  13.739 -0.6506  0.9326 -0.5546
 4765TIP3    H135786   1.845   5.982  13.722 -0.8982  0.6631 -0.5146
 4765TIP3    H235787   1.989   5.974  13.769 -2.1238  0.9097  3.4634
 4766TIP3   OH235788   5.984   5.486  13.267 -0.4597  0.0714  0.0645
 4766TIP3    H135789   6.051   5.420  13.287 -0.6689 -0.1887 -0.0933
 4766TIP3    H235790   5.984   5.491  13.171 -1.1019 -0.3773  0.0408
 4767TIP3   OH235791   4.834   0.808   3.805 -0.2608 -0.1708 -0.0129
 4767TIP3    H135792   4.915   0.764   3.780 -0.9181 -1.3206 -0.1449
 4767TIP3    H235793   4.863   0.886   3.853  0.9179 -0.7329  0.2076
 4768TIP3   OH235794   3.061   2.267   1.229 -0.0256 -0.2909  0.1190
 4768TIP3    H135795   3.015   2.240   1.308 -0.5575  1.2425  0.3534
 4768TIP3    H235796   3.134   2.320   1.260 -0.7359  1.0456 -0.4238
 4769TIP3   OH235797   3.382   4.750  11.035  0.0393 -0.5497 -0.0594
 4769TIP3    H135798   3.347   4.789  11.115  0.2491 -0.5927  0.0548
 4769TIP3    H235799   3.467   4.792  11.023  0.2458 -0.9394  0.0405
 4770TIP3   OH235800   4.233   6.176   3.245  0.3476 -0.2894  0.2795
 4770TIP3    H135801   4.145   6.140   3.255  0.1600  0.2197  0.4751
 4770TIP3    H235802   4.243   6.189   3.151 -0.5289  1.4696  0.4004
 4771TIP3   OH235803   4.962   6.783  13.901  0.2011  0.0354  0.2995
 4771TIP3    H135804   4.959   6.871  13.939  1.2317 -0.1980  0.9256
 4771TIP3    H235805   5.004   6.729  13.968  0.5462 -0.7111 -0.5085
 4772TIP3   OH235806   3.678   5.486   6.208 -0.0970  0.2081  0.3963
 4772TIP3    H135807   3.649   5.402   6.172 -2.1594  0.1176  2.1839
 4772TIP3    H235808   3.771   5.471   6.229 -0.6604 -1.9767  1.5583
 4773TIP3   OH235809   1.923   3.440  12.191  0.0035  0.3068 -0.2752
 4773TIP3    H135810   1.987   3.507  12.169  0.9382 -0.3582  0.3446
 4773TIP3    H235811   1.874   3.478  12.264  0.1839  0.5266 -0.2657
 4774TIP3   OH235812   6.130   1.607  14.320 -0.5620  0.0309 -0.0219
 4774TIP3    H135813   6.161   1.519  14.339  0.1458 -0.0316 -1.3897
 4774TIP3    H235814   6.091   1.637  14.402 -3.1474 -2.5191 -0.2380
 4775TIP3   OH235815   1.640   1.141   5.682  0.2858 -0.4847  0.1400
 4775TIP3    H135816   1.662   1.166   5.593  2.4015 -0.6832  0.5882
 4775TIP3    H235817   1.723   1.140   5.729 -0.8196 -0.0647  2.2053
 4776TIP3   OH235818   1.792   1.147   4.144  0.2992 -0.4605  0.1297
 4776TIP3    H135819   1.755   1.231   4.119 -1.5234 -1.7192 -1.5319
 4776TIP3    H235820   1.877   1.143   4.100  0.4982  0.6017  0.4171
 4777TIP3   OH235821   6.661   1.464   1.959  0.1733 -0.3361  0.0037
 4777TIP3    H135822   6.576   1.444   1.999  0.3919  0.2283  0.7689
 4777TIP3    H235823   6.670   1.559   1.968  0.2302 -0.1898 -1.4025
 4778TIP3   OH235824   0.669   0.183   5.820  0.0056  0.0501 -0.8178
 4778TIP3    H135825   0.670   0.138   5.735 -4.0156  1.7763 -1.8672
 4778TIP3    H235826   0.638   0.116   5.881 -0.0642 -0.3326 -1.2635
 4779TIP3   OH235827   1.468   1.295   0.549  0.4841  0.3513  0.0323
 4779TIP3    H135828   1.377   1.311   0.522  0.7005  1.4254 -0.0761
 4779TIP3    H235829   1.518   1.364   0.507  1.2595  0.1884  0.6720
 4780TIP3   OH235830   3.680   3.905  16.096 -0.5758 -0.3990  0.0912
 4780TIP3    H135831   3.595   3.939  16.122 -0.2999  0.4216 -0.0664
 4780TIP3    H235832   3.738   3.981  16.097  0.2025 -0.9868  0.3857
 4781TIP3   OH235833   0.862   3.060   4.950  0.4033  0.2009 -0.0571
 4781TIP3    H135834   0.795   2.992   4.957 -0.2734  0.7753 -0.8143
 4781TIP3    H235835   0.812   3.140   4.934  1.1819  0.8992  0.9471
 4782TIP3   OH235836   0.144   0.366   1.337 -0.0479 -1.3181 -0.2062
 4782TIP3    H135837   0.084   0.421   1.389  2.3035 -2.0536  3.4926
 4782TIP3    H235838   0.168   0.421   1.262 -1.7611  0.7177  0.6629
 4783TIP3   OH235839   2.397   0.860  16.432 -0.6225  0.2725 -0.2528
 4783TIP3    H135840   2.472   0.863  16.492 -0.9632 -0.1314  0.1972
 4783TIP3    H235841   2.432   0.824  16.351 -0.7739 -1.8864  0.6192
 4784TIP3   OH235842   3.836   4.177   2.659  0.3669  0.9764  0.4610
 4784TIP3    H135843   3.795   4.261   2.640  0.8129  0.8625 -1.0228
 4784TIP3    H235844   3.764   4.123   2.694  0.1688  2.0816  1.8206
 4785TIP3   OH235845   1.311   2.830  12.138  0.0923  0.0878 -0.1644
 4785TIP3    H135846   1.314   2.790  12.051  0.4304 -0.4153  0.0761
 4785TIP3    H235847   1.390   2.799  12.182  0.0628  0.5599  0.2273
 4786TIP3   OH235848   1.837   6.191  17.057 -0.4759 -0.6726  0.3533
 4786TIP3    H135849   1.789   6.128  17.111 -2.5713  0.0699 -0.5959
 4786TIP3    H235850   1.805   6.276  17.085 -2.4456 -0.3119 -2.8029
 4787TIP3   OH235851   5.559   5.116   2.166 -0.0845  0.8227 -0.4702
 4787TIP3    H135852   5.621   5.186   2.188  0.0283  0.7451 -0.5400
 4787TIP3    H235853   5.583   5.044   2.224  1.5757 -0.1319 -2.2732
 4788TIP3   OH235854   6.206   4.233   0.466  0.3918  0.1870  0.3889
 4788TIP3    H135855   6.147   4.244   0.540  0.2294 -0.9434  0.4423
 4788TIP3    H235856   6.273   4.172   0.498  0.4842 -0.0818 -0.3087
 4789TIP3   OH235857   3.849   3.372   2.690  0.3988  0.7502  0.3177
 4789TIP3    H135858   3.811   3.409   2.770  0.2238 -0.9879  1.0597
 4789TIP3    H235859   3.936   3.343   2.715  0.0619 -0.5112  0.1060
 4790TIP3   OH235860   0.096   4.019  11.706  0.5831  0.0238 -0.4583
 4790TIP3    H135861   0.007   4.045  11.681  0.9839 -0.3484 -2.3466
 4790TIP3    H235862   0.106   4.052  11.795 -1.6146 -0.3352 -0.0373
 4791TIP3   OH235863   3.780   1.673  16.376  0.3797 -1.0651  0.1068
 4791TIP3    H135864   3.853   1.648  16.320  0.7771  1.5391 -0.6358
 4791TIP3    H235865   3.702   1.641  16.330  1.0152 -3.8412  0.8963
 4792TIP3   OH235866   2.611   0.943  17.239 -0.2497 -0.0225 -0.2255
 4792TIP3    H135867   2.653   1.004  17.299  0.1428 -0.3832 -0.1249
 4792TIP3    H235868   2.606   0.861  17.288  1.3637 -0.7132 -1.1619
 4793TIP3   OH235869   4.315   3.797   3.159  0.1640  0.2721 -0.3013
 4793TIP3    H135870   4.393   3.826   3.206  0.1605  1.6047 -1.0829
 4793TIP3    H235871   4.270   3.879   3.135 -1.7057 -0.4635  0.5277
 4794TIP3   OH235872   2.321   5.315   0.286  0.1786 -0.1566  0.1965
 4794TIP3    H135873   2.389   5.313   0.218 -1.3918  2.3615 -1.5430
 4794TIP3    H235874   2.284   5.226   0.285 -0.0659 -0.0642 -2.5328
 4795TIP3   OH235875   3.439   5.344  11.187 -0.2770 -0.5121  0.7829
 4795TIP3    H135876   3.400   5.432  11.177  0.4162 -0.0446  2.0997
 4795TIP3    H235877   3.420   5.320  11.277 -1.1553 -2.0839  0.2071
 4796TIP3   OH235878   2.862   6.522  15.930  0.3423  0.1421 -0.3474
 4796TIP3    H135879   2.796   6.453  15.931 -0.4286  0.8774  1.7723
 4796TIP3    H235880   2.822   6.592  15.879  0.9293 -0.7447 -2.0779
 4797TIP3   OH235881   2.421   1.359  15.455 -0.1084 -0.3459  0.1937
 4797TIP3    H135882   2.405   1.340  15.363 -0.7793  0.3236  0.1671
 4797TIP3    H235883   2.417   1.454  15.461  0.5595 -0.3467  0.8038
 4798TIP3   OH235884   5.149   1.171   3.971  0.3599  0.2802  0.4694
 4798TIP3    H135885   5.219   1.176   3.906 -0.9966  0.2847 -1.0162
 4798TIP3    H235886   5.180   1.106   4.034  1.6060  0.1110 -0.3005
 4799TIP3   OH235887   5.754   5.096   4.717 -0.1122  0.5154  0.2030
 4799TIP3    H135888   5.842   5.075   4.686 -0.6800 -1.8289  0.0647
 4799TIP3    H235889   5.768   5.152   4.793  1.5265 -0.1447  0.4054
 4800TIP3   OH235890   4.605   2.007   1.527 -0.5525 -0.5360  0.1707
 4800TIP3    H135891   4.632   2.042   1.613  2.5762 -1.5188 -0.3396
 4800TIP3    H235892   4.584   2.085   1.476  0.7104  0.2732  0.8406
 4801TIP3   OH235893   2.241   3.584   1.785  0.1058  0.1354  0.4712
 4801TIP3    H135894   2.151   3.563   1.760 -0.3250  3.0646 -0.6305
 4801TIP3    H235895   2.231   3.648   1.856  1.3437 -0.2135  0.9769
 4802TIP3   OH235896   5.802   0.979   3.069  0.5325  0.2836  0.3973
 4802TIP3    H135897   5.732   0.921   3.038  0.5247  0.0281  0.8942
 4802TIP3    H235898   5.831   0.940   3.151 -0.2483  1.6151  1.3245
 4803TIP3   OH235899   5.391   4.772   1.098  0.2879  0.4294 -0.0612
 4803TIP3    H135900   5.380   4.803   1.008 -5.5263 -1.0025 -0.0513
 4803TIP3    H235901   5.417   4.680   1.089  2.3539  1.0036 -0.1932
 4804TIP3   OH235902   3.237   0.880   1.150  0.2968  0.5958 -0.4641
 4804TIP3    H135903   3.264   0.965   1.115 -0.7675 -0.1676 -3.3391
 4804TIP3    H235904   3.299   0.818   1.111 -0.5400 -0.2204 -0.5158
 4805TIP3   OH235905   6.619   1.741   4.389  0.7634  0.2727  0.0620
 4805TIP3    H135906   6.620   1.650   4.419  0.5099  0.3373  0.2635
 4805TIP3    H235907   6.665   1.790   4.457  0.0124  0.4500  0.4405
 4806TIP3   OH235908   2.571   2.231  12.853 -0.0741 -0.4700  0.3937
 4806TIP3    H135909   2.500   2.274  12.900  0.6448  0.4906  0.6106
 4806TIP3    H235910   2.631   2.202  12.922  1.6505  2.1146  0.0357
 4807TIP3   OH235911   6.152   1.703  15.471 -0.3022 -0.1323  0.0052
 4807TIP3    H135912   6.174   1.647  15.396 -0.6735 -3.2541  2.1632
 4807TIP3    H235913   6.061   1.730  15.455 -0.3411 -0.6853 -0.7409
 4808TIP3   OH235914   3.072   5.412   2.484 -0.1489 -0.0840 -0.4599
 4808TIP3    H135915   3.013   5.391   2.411 -1.5933  1.0421  0.3620
 4808TIP3    H235916   3.160   5.403   2.447 -0.8512 -0.5822 -2.0475
 4809TIP3   OH235917   6.227   3.239   0.749  0.3172  0.1528  0.2816
 4809TIP3    H135918   6.239   3.333   0.760  1.3787 -0.0166  0.6064
 4809TIP3    H235919   6.138   3.230   0.715  1.0607  1.4369 -2.1172
 4810TIP3   OH235920   4.975   0.409  14.446 -0.4421 -0.1034 -0.0454
 4810TIP3    H135921   4.929   0.482  14.488 -1.6028  0.2992 -1.9628
 4810TIP3    H235922   4.912   0.337  14.448  1.0118 -1.3995  2.6458
 4811TIP3   OH235923   0.734   3.240  14.867 -0.1338 -0.3534  0.2231
 4811TIP3    H135924   0.686   3.179  14.922  1.8825 -3.4506 -1.3233
 4811TIP3    H235925   0.725   3.205  14.778  0.4983  2.0093 -0.8258
 4812TIP3   OH235926   6.424   3.560  15.644 -0.6144  0.2170  0.1645
 4812TIP3    H135927   6.413   3.591  15.555  0.5766  2.1646  0.6677
 4812TIP3    H235928   6.499   3.500  15.640 -1.0182 -0.2628 -0.2601
 4813TIP3   OH235929   6.492   3.176  15.585 -0.2818  0.0833  0.6644
 4813TIP3    H135930   6.454   3.190  15.671 -0.3052  0.4734  0.5935
 4813TIP3    H235931   6.417   3.172  15.526 -0.2073  0.9299  0.5129
 4814TIP3   OH235932   4.704   0.288  13.853 -0.3467 -0.1885  0.4368
 4814TIP3    H135933   4.756   0.314  13.777 -0.2323  0.9127  0.8838
 4814TIP3    H235934   4.769   0.257  13.916 -0.4858 -1.6729 -0.1150
 4815TIP3   OH235935   1.298   0.118  12.464 -0.6789  0.0576  0.2776
 4815TIP3    H135936   1.206   0.105  12.443 -0.7241  1.3226 -0.3068
 4815TIP3    H235937   1.336   0.157  12.385 -0.1575  1.8037  1.3659
 4816TIP3   OH235938   5.041   6.500   6.258  0.0635 -0.2092  0.1102
 4816TIP3    H135939   5.027   6.418   6.305 -1.3416  1.6856  3.1562
 4816TIP3    H235940   4.960   6.549   6.271  1.2835  2.1013 -0.7234
 4817TIP3   OH235941   3.866   6.572  16.208  0.2074 -0.6877 -0.0378
 4817TIP3    H135942   3.853   6.652  16.259  1.0960 -0.9038  0.5408
 4817TIP3    H235943   3.795   6.515  16.235 -1.0541  0.2871 -1.2335
 4818TIP3   OH235944   4.995   2.974  14.759  0.2828 -0.1134 -1.0075
 4818TIP3    H135945   5.079   2.944  14.794  0.2330 -0.4197 -1.1514
 4818TIP3    H235946   4.931   2.943  14.822  0.1039 -1.4516 -1.8269
 4819TIP3   OH235947   2.276   6.083  15.401  0.2967 -0.7893  0.3224
 4819TIP3    H135948   2.294   6.016  15.335  1.8641  0.1725 -0.2579
 4819TIP3    H235949   2.227   6.150  15.355  1.4754 -0.0727  0.0897
 4820TIP3   OH235950   4.892   2.643  12.919  0.5385 -0.1974  0.0041
 4820TIP3    H135951   4.844   2.561  12.930  0.1737 -0.0208 -0.2732
 4820TIP3    H235952   4.856   2.682  12.839  0.8143  0.1620  0.0519
 4821TIP3   OH235953   3.802   0.599  17.165 -0.5797  0.2633  0.1923
 4821TIP3    H135954   3.843   0.670  17.214 -0.6489  1.3019 -1.2141
 4821TIP3    H235955   3.724   0.638  17.126 -1.0662 -0.8072  0.0693
 4822TIP3   OH235956   3.903   0.907   3.317  0.1502  0.1568  0.4761
 4822TIP3    H135957   3.942   0.891   3.403  0.1000 -1.2916  0.2482
 4822TIP3    H235958   3.905   1.002   3.306 -0.3573  0.3991  2.3165
 4823TIP3   OH235959   4.933   0.342  12.103  0.3651  0.8580 -0.3671
 4823TIP3    H135960   4.876   0.275  12.140  0.2564  1.0243 -0.2361
 4823TIP3    H235961   5.015   0.296  12.085 -0.5267  0.0637 -2.6442
 4824TIP3   OH235962   4.167   4.848  12.689 -0.1935 -0.3030  0.7000
 4824TIP3    H135963   4.074   4.833  12.677 -0.1581  0.0234  0.0156
 4824TIP3    H235964   4.207   4.819  12.607  0.3134 -0.5046  1.0157
 4825TIP3   OH235965   1.348   0.363   5.636 -0.7150  0.3508 -0.0055
 4825TIP3    H135966   1.349   0.417   5.715  0.6562  1.7649 -0.9662
 4825TIP3    H235967   1.291   0.411   5.575 -1.0877 -0.2998 -0.1698
 4826TIP3   OH235968   3.040   3.404  16.665 -0.6124  0.2228 -0.1651
 4826TIP3    H135969   2.999   3.482  16.704 -1.9846  0.0018 -1.1451
 4826TIP3    H235970   3.088   3.438  16.589 -0.0140  0.3013  0.2408
 4827TIP3   OH235971   2.940   5.555  15.822 -0.1324  0.4957 -0.6169
 4827TIP3    H135972   2.988   5.562  15.905  1.0725  1.9839 -1.4072
 4827TIP3    H235973   3.002   5.588  15.757 -2.1423  2.1978 -1.7001
 4828TIP3   OH235974   1.620   2.613   3.128 -0.1249 -0.0377  0.4071
 4828TIP3    H135975   1.679   2.688   3.116  1.8379 -1.4887  0.8069
 4828TIP3    H235976   1.634   2.558   3.051 -1.2970 -0.1861  0.2882
 4829TIP3   OH235977   6.649   1.405  13.162 -0.0378  0.7380 -0.5013
 4829TIP3    H135978   6.659   1.499  13.177  0.7272  0.6561 -0.4634
 4829TIP3    H235979   6.684   1.365  13.241 -2.6402  0.4689  0.5500
 4830TIP3   OH235980   3.822   3.732   2.435  0.0989 -0.5799  0.7909
 4830TIP3    H135981   3.836   3.658   2.376 -1.1045  0.7005 -1.2033
 4830TIP3    H235982   3.875   3.802   2.398 -3.3665  1.2973 -0.9277
 4831TIP3   OH235983   2.074   6.168   5.935  0.3950  0.2749 -0.1252
 4831TIP3    H135984   2.170   6.160   5.936  0.3316 -0.7660 -0.9004
 4831TIP3    H235985   2.045   6.110   6.006  0.3293  0.4054 -0.0460
 4832TIP3   OH235986   4.398   5.539  12.040  0.4970 -0.5947 -0.1312
 4832TIP3    H135987   4.349   5.580  12.111 -0.7487 -0.6733 -0.9313
 4832TIP3    H235988   4.414   5.609  11.977 -1.0169 -1.1529 -1.1659
 4833TIP3   OH235989   2.442   3.062  11.517 -0.5454  0.0361 -0.5816
 4833TIP3    H135990   2.414   2.970  11.522  0.3138 -0.2824 -1.5315
 4833TIP3    H235991   2.440   3.092  11.608  1.4802 -1.6236  0.0446
 4834TIP3   OH235992   1.895   4.825   2.152  0.3419  0.1678  0.2943
 4834TIP3    H135993   1.956   4.762   2.190  0.8175  1.3252  1.4743
 4834TIP3    H235994   1.938   4.853   2.071  0.4272 -0.5284  0.0954
 4835TIP3   OH235995   6.237   5.074  12.947 -0.6222  0.2412 -0.7670
 4835TIP3    H135996   6.197   5.127  13.016 -1.2764  0.3009 -1.1848
 4835TIP3    H235997   6.198   5.107  12.866 -0.0297  0.0187 -1.1482
 4836TIP3   OH235998   5.036   3.603  13.270 -0.3520  0.5656  0.2256
 4836TIP3    H135999   5.041   3.698  13.279 -1.2101  0.5812  0.6230
 4836TIP3    H236000   5.001   3.589  13.183 -1.6562  0.6560  0.7252
 4837TIP3   OH236001   3.368   6.266   5.601 -0.1519 -0.4779 -0.5619
 4837TIP3    H136002   3.325   6.342   5.641 -0.9057 -1.3220  0.2535
 4837TIP3    H236003   3.296   6.213   5.568  0.3502 -1.0674 -0.7088
 4838TIP3   OH236004   5.494   5.414  12.042  0.4182  0.5896 -0.2875
 4838TIP3    H136005   5.523   5.332  12.004  1.9781  1.2145 -0.4917
 4838TIP3    H236006   5.399   5.411  12.037  0.3155 -2.3160  2.0485
 4839TIP3   OH236007   5.979   2.693  13.279 -0.1893  0.4608 -0.3597
 4839TIP3    H136008   6.072   2.690  13.301 -0.1103  1.1438 -0.5701
 4839TIP3    H236009   5.946   2.770  13.325 -0.1764  1.5035 -2.0264
 4840TIP3   OH236010   4.357   4.474   3.569 -0.0217 -0.0145  0.2978
 4840TIP3    H136011   4.347   4.570   3.568  0.3184  0.0226  0.5769
 4840TIP3    H236012   4.282   4.443   3.619  0.9668  0.2362  1.9478
 4841TIP3   OH236013   3.130   0.364  14.267  0.4531 -0.7630  0.0708
 4841TIP3    H136014   3.064   0.407  14.213 -0.4362 -0.3503  1.4740
 4841TIP3    H236015   3.093   0.278  14.286  2.1680 -2.1394 -2.6140
 4842TIP3   OH236016   1.206   3.710   5.192  0.5117  0.6869  0.4928
 4842TIP3    H136017   1.119   3.750   5.196 -0.0945 -0.2882 -2.0664
 4842TIP3    H236018   1.195   3.626   5.237 -0.1717  0.0869 -0.7676
 4843TIP3   OH236019   5.502   5.775   3.667  0.1778 -0.2328  0.7860
 4843TIP3    H136020   5.412   5.774   3.634  0.3982  1.5936  0.1013
 4843TIP3    H236021   5.492   5.791   3.761 -0.2554 -1.4579  0.9673
 4844TIP3   OH236022   2.120   3.295  13.354  0.3503 -0.3682  0.5606
 4844TIP3    H136023   2.087   3.348  13.426 -0.7850  0.8549 -0.8244
 4844TIP3    H236024   2.042   3.250  13.320  0.1907  1.7723 -2.1089
 4845TIP3   OH236025   0.328   3.391   4.575 -0.4183  0.6061 -0.0425
 4845TIP3    H136026   0.312   3.383   4.669  1.0997  1.9220  0.3437
 4845TIP3    H236027   0.423   3.384   4.566 -0.5612  0.4192 -1.4853
 4846TIP3   OH236028   0.297   6.653   5.582  0.8359  0.3055 -0.1344
 4846TIP3    H136029   0.384   6.645   5.619 -0.1658  0.2741  2.2705
 4846TIP3    H236030   0.268   6.563   5.569  1.1669  0.3159 -0.9740
 4847TIP3   OH236031   3.741   2.231   5.746 -0.1726 -0.0884  0.0100
 4847TIP3    H136032   3.728   2.185   5.664  0.5993 -0.2047 -0.0495
 4847TIP3    H236033   3.655   2.233   5.787 -0.6352  0.3199 -0.9820
 4848TIP3   OH236034   2.702   1.775   3.878 -0.0503 -0.2537 -0.0257
 4848TIP3    H136035   2.681   1.697   3.826 -2.1727  0.2992 -0.0391
 4848TIP3    H236036   2.667   1.755   3.965 -0.1945  0.4993  0.0901
 4849TIP3   OH236037   2.936   2.465  14.725  0.2691 -0.9478  0.5107
 4849TIP3    H136038   2.932   2.371  14.708  0.7143 -0.8814  0.0310
 4849TIP3    H236039   3.018   2.477  14.772 -0.3403 -0.9522  1.5984
 4850TIP3   OH236040   2.319   1.872  12.789 -0.4155  0.3069  0.3597
 4850TIP3    H136041   2.387   1.924  12.745 -1.2738 -1.6409 -3.4220
 4850TIP3    H236042   2.254   1.937  12.815  0.4381  1.5814 -0.6002
 4851TIP3   OH236043   5.525   0.282  16.519 -0.2542 -0.2470  0.2030
 4851TIP3    H136044   5.512   0.311  16.610  1.4995 -0.3054  0.4943
 4851TIP3    H236045   5.532   0.364  16.469  1.8598 -0.1628  0.5992
 4852TIP3   OH236046   0.403   5.193  16.742  0.5088 -0.1123  0.1726
 4852TIP3    H136047   0.356   5.133  16.685 -0.6439  1.2736 -0.3816
 4852TIP3    H236048   0.487   5.208  16.699 -0.1786  0.5709 -0.9572
 4853TIP3   OH236049   3.607   1.300   4.581  0.2789 -0.1098 -0.0965
 4853TIP3    H136050   3.604   1.208   4.555  0.4770 -0.3435  0.6885
 4853TIP3    H236051   3.677   1.338   4.527  0.6153 -0.5616  0.0198
 4854TIP3   OH236052   3.376   5.184  16.489  0.3105  0.0624 -0.1120
 4854TIP3    H136053   3.397   5.097  16.524  1.0245 -0.1807 -1.1216
 4854TIP3    H236054   3.323   5.225  16.557  1.2400 -0.5967  1.0232
 4855TIP3   OH236055   5.925   2.697   0.226  0.1188  0.4341  0.5372
 4855TIP3    H136056   5.893   2.727   0.311  0.2910  1.1036  0.3714
 4855TIP3    H236057   5.852   2.714   0.166 -0.5014 -1.2660  0.7804
 4856TIP3   OH236058   0.332   3.846   1.680  0.0780 -0.2394  0.1373
 4856TIP3    H136059   0.426   3.856   1.694  0.4832 -1.0967 -1.8685
 4856TIP3    H236060   0.323   3.764   1.632 -1.6683  0.0504 -0.0671
 4857TIP3   OH236061   3.148   2.468  11.143 -0.1840 -0.3246 -0.2054
 4857TIP3    H136062   3.217   2.402  11.146  0.9414  0.8729  1.7867
 4857TIP3    H236063   3.096   2.445  11.066  0.8479 -2.8324 -0.2166
 4858TIP3   OH236064   0.322   2.797  12.342  0.2507  0.6354  0.0587
 4858TIP3    H136065   0.302   2.817  12.433 -0.4410  1.2906 -0.2303
 4858TIP3    H236066   0.415   2.818  12.333  0.6097 -0.5495  0.9059
 4859TIP3   OH236067   5.521   4.418  15.225 -0.1011  0.4360 -0.2649
 4859TIP3    H136068   5.438   4.373  15.211 -1.0803  1.6213  1.5692
 4859TIP3    H236069   5.509   4.504  15.186 -0.4946  1.3512  1.8261
 4860TIP3   OH236070   4.001   3.623   2.731 -0.1522  0.4327  0.0146
 4860TIP3    H136071   3.988   3.617   2.636  0.5390 -1.4828  0.0330
 4860TIP3    H236072   3.922   3.586   2.770  0.7989 -1.5058  0.1558
 4861TIP3   OH236073   5.257   4.600   3.160 -0.2350 -0.1485 -0.2195
 4861TIP3    H136074   5.268   4.505   3.156 -3.0437 -0.5515  0.6943
 4861TIP3    H236075   5.266   4.622   3.253  1.7498  0.6780 -0.5916
 4862TIP3   OH236076   5.487   2.658   4.822 -0.3096  0.4836  0.1894
 4862TIP3    H136077   5.436   2.738   4.808 -2.3404 -0.8989 -0.6900
 4862TIP3    H236078   5.515   2.663   4.913 -0.2788  2.2665  0.0952
 4863TIP3   OH236079   5.051   4.778   1.610 -0.1597 -0.0117  0.2452
 4863TIP3    H136080   5.039   4.866   1.647 -0.3591  0.0991 -0.0842
 4863TIP3    H236081   4.964   4.739   1.614 -0.4059  0.3838 -1.0949
 4864TIP3   OH236082   3.077   2.681  13.582  0.7401 -0.0957  0.4909
 4864TIP3    H136083   3.001   2.712  13.533 -0.2602 -1.9807  0.7967
 4864TIP3    H236084   3.050   2.597  13.617  2.5690 -0.2388  1.6182
 4865TIP3   OH236085   2.959   1.997   0.882 -0.0053 -0.4121  0.4742
 4865TIP3    H136086   2.957   1.922   0.942  0.2581  0.0033  1.0144
 4865TIP3    H236087   2.918   2.068   0.932  1.8141  0.4265  0.8601
 4866TIP3   OH236088   3.310   6.604  17.016  0.0835  0.1792  0.1744
 4866TIP3    H136089   3.360   6.578  16.938 -1.9278  1.4861 -1.6377
 4866TIP3    H236090   3.292   6.697  17.002 -2.7919 -0.2490  0.7425
 4867TIP3   OH236091   1.058   6.609  16.347  0.2536 -0.1809  0.1010
 4867TIP3    H136092   0.987   6.658  16.390  0.9939 -0.1830  1.3552
 4867TIP3    H236093   1.107   6.676  16.299 -0.5194 -0.1605 -0.6806
 4868TIP3   OH236094   2.695   5.662   1.665  0.1855  0.1284  0.1519
 4868TIP3    H136095   2.735   5.667   1.752  0.2289  2.4241  0.0349
 4868TIP3    H236096   2.744   5.726   1.613  0.1304 -1.1876 -1.5678
 4869TIP3   OH236097   3.870   5.832   1.195  0.0478 -0.5492 -0.2558
 4869TIP3    H136098   3.904   5.912   1.236 -1.8779 -0.2347  0.7686
 4869TIP3    H236099   3.818   5.790   1.264  1.2824 -2.8637 -0.6759
 4870TIP3   OH236100   0.342   5.798   3.651 -0.7855 -0.3457  0.4256
 4870TIP3    H136101   0.423   5.784   3.700  0.0008  1.4522 -0.2976
 4870TIP3    H236102   0.273   5.766   3.709  0.3400 -0.7663  1.5676
 4871TIP3   OH236103   1.873   3.512  13.276 -0.3404  0.5220  0.1678
 4871TIP3    H136104   1.886   3.587  13.217  0.5714 -0.8823 -1.4684
 4871TIP3    H236105   1.909   3.540  13.360 -0.7943  2.2270 -0.1922
 4872TIP3   OH236106   5.951   6.627  14.221 -0.4895  0.0259  0.6726
 4872TIP3    H136107   5.964   6.720  14.240 -0.4000  0.1538 -0.0052
 4872TIP3    H236108   6.005   6.611  14.143 -1.2098 -0.3816  0.2470
 4873TIP3   OH236109   0.090   3.329  15.823  0.6786  0.5520  0.0096
 4873TIP3    H136110  -0.003   3.340  15.843  0.9008 -2.8973  3.4918
 4873TIP3    H236111   0.101   3.367  15.735 -4.3130 -0.3456 -1.1221
 4874TIP3   OH236112   5.731   1.708   2.111 -0.3832 -0.4569 -0.4467
 4874TIP3    H136113   5.784   1.661   2.047  1.2826  0.2701  0.3550
 4874TIP3    H236114   5.793   1.736   2.178 -1.6590  1.0522  0.1584
 4875TIP3   OH236115   3.455   2.473  12.440 -0.7015 -0.8635 -0.8118
 4875TIP3    H136116   3.401   2.487  12.518 -0.8281 -1.9939 -0.6851
 4875TIP3    H236117   3.544   2.494  12.469 -0.4234 -3.3280  0.2721
 4876TIP3   OH236118   2.615   1.745  13.664  0.0492  0.0715 -0.3149
 4876TIP3    H136119   2.546   1.802  13.632 -0.4691  0.1886  0.9659
 4876TIP3    H236120   2.570   1.663  13.688  0.4774 -0.1600 -0.2899
 4877TIP3   OH236121   0.985   3.286  14.948  0.1540  0.2904 -0.2283
 4877TIP3    H136122   0.898   3.271  14.913  0.0114 -1.7300  0.9156
 4877TIP3    H236123   1.036   3.210  14.919  0.7407 -0.0322  1.5785
 4878TIP3   OH236124   2.809   2.940   1.285 -0.2881  0.1149 -0.3671
 4878TIP3    H136125   2.781   2.978   1.369  2.0460 -0.2590  0.6136
 4878TIP3    H236126   2.846   2.855   1.308  1.8073  0.6740 -1.5836
 4879TIP3   OH236127   3.772   4.372  13.759  0.4778 -0.1425 -0.1168
 4879TIP3    H136128   3.834   4.334  13.822 -0.3398  0.2312  0.9247
 4879TIP3    H236129   3.740   4.297  13.709  2.4966 -0.2299 -1.3520
 4880TIP3   OH236130   6.415   0.998   0.967  0.2733  0.2703  0.3003
 4880TIP3    H136131   6.468   1.046   1.031 -1.6075  0.1836  1.9893
 4880TIP3    H236132   6.329   1.039   0.973 -0.5024 -1.2122 -0.5701
 4881TIP3   OH236133   6.302   4.329  12.849  0.2823  0.3193  0.1411
 4881TIP3    H136134   6.236   4.334  12.780  0.9773  0.1806 -0.5426
 4881TIP3    H236135   6.307   4.417  12.884  1.0056  0.7556 -1.0202
 4882TIP3   OH236136   2.786   1.171   4.031  0.0282 -0.5553 -0.0434
 4882TIP3    H136137   2.868   1.145   3.990 -0.8377 -0.8107 -1.6246
 4882TIP3    H236138   2.737   1.216   3.962 -0.6840  0.6372  1.2043
 4883TIP3   OH236139   1.548   4.129   5.459 -0.1042  0.3128  0.2570
 4883TIP3    H136140   1.581   4.176   5.535  0.6824 -0.4078  0.3660
 4883TIP3    H236141   1.582   4.040   5.469 -0.0774  0.1909 -0.8882
 4884TIP3   OH236142   0.129   6.247  16.716 -0.0357 -0.4268 -0.1527
 4884TIP3    H136143   0.112   6.157  16.688 -1.2813 -0.4466  0.6657
 4884TIP3    H236144   0.043   6.286  16.728  0.4916  0.4948  0.7312
 4885TIP3   OH236145   0.688   3.182   1.202  0.3666 -0.1423 -0.0957
 4885TIP3    H136146   0.775   3.216   1.223  0.4812 -0.4823 -0.0152
 4885TIP3    H236147   0.641   3.256   1.165  1.0372 -0.2203 -1.1273
 4886TIP3   OH236148   0.332   1.526   4.109 -0.1961  0.1559  0.2512
 4886TIP3    H136149   0.332   1.609   4.156 -0.4728 -0.5558  1.5156
 4886TIP3    H236150   0.422   1.518   4.076 -0.2504  1.0940 -0.1597
 4887TIP3   OH236151   5.739   6.189   4.515  0.8499 -0.5587  0.3608
 4887TIP3    H136152   5.665   6.192   4.576 -0.0801  1.8409 -0.8077
 4887TIP3    H236153   5.756   6.281   4.494  2.2283 -1.2594 -1.6775
 4888TIP3   OH236154   2.121   2.887   2.690 -0.0215 -0.3172  0.1210
 4888TIP3    H136155   2.064   2.850   2.757 -1.2075 -0.9746 -1.2025
 4888TIP3    H236156   2.070   2.960   2.653  0.7399  0.2327  0.1360
 4889TIP3   OH236157   6.400   0.506   5.188  0.4544 -0.1176 -0.3442
 4889TIP3    H136158   6.452   0.559   5.249 -1.8969 -0.4247  2.0257
 4889TIP3    H236159   6.359   0.570   5.129 -0.7302  0.5751  1.2013
 4890TIP3   OH236160   5.784   4.572  11.090 -0.5589 -0.0354  0.0509
 4890TIP3    H136161   5.691   4.550  11.087 -0.3550 -1.0245  0.7464
 4890TIP3    H236162   5.828   4.489  11.112  0.4591  0.4833  0.0068
 4891TIP3   OH236163   2.808   0.004  10.522 -0.2695 -0.1970  0.1430
 4891TIP3    H136164   2.805  -0.046  10.440  1.2211 -1.3095  0.7688
 4891TIP3    H236165   2.770   0.090  10.498 -2.0592 -1.2925 -1.1238
 4892TIP3   OH236166   0.716   4.013   2.750 -0.2108 -0.3613  0.8871
 4892TIP3    H136167   0.651   3.943   2.746  1.4845 -1.9345  0.0376
 4892TIP3    H236168   0.726   4.042   2.660  0.2898 -0.1629  1.0031
 4893TIP3   OH236169   4.729   0.322   1.993 -0.2634  0.1854  0.6699
 4893TIP3    H136170   4.701   0.393   1.936  1.2290  0.9043  0.8029
 4893TIP3    H236171   4.651   0.267   2.005 -0.5392 -0.1091 -2.2270
 4894TIP3   OH236172   1.688   4.113   1.046 -0.6025 -0.5060 -0.7000
 4894TIP3    H136173   1.688   4.166   1.126 -0.2335 -1.3053 -0.1574
 4894TIP3    H236174   1.768   4.138   1.000  0.3802 -1.6916  0.3169
 4895TIP3   OH236175   2.240   6.588  15.317  0.5882  0.4327  0.1349
 4895TIP3    H136176   2.192   6.513  15.353 -2.0246  1.1409 -1.6819
 4895TIP3    H236177   2.186   6.664  15.340  0.7167  1.2437 -2.0915
 4896TIP3   OH236178   1.534   5.036  14.667 -0.4516 -0.3614  0.1983
 4896TIP3    H136179   1.563   4.949  14.692 -1.8766 -0.2951  2.1842
 4896TIP3    H236180   1.615   5.082  14.643  0.4456 -1.8178  0.3415
 4897TIP3   OH236181   6.351   1.614  12.996 -0.1308 -0.2277  0.1112
 4897TIP3    H136182   6.295   1.688  12.976  0.8722  0.6246  0.3859
 4897TIP3    H236183   6.365   1.571  12.911 -0.4905  0.0644 -0.0954
 4898TIP3   OH236184   3.364   2.760   0.094 -0.6395 -0.1481 -0.6247
 4898TIP3    H136185   3.309   2.713   0.031 -0.4982  0.0590 -0.9019
 4898TIP3    H236186   3.330   2.733   0.180 -1.3663  0.2181 -0.7945
 4899TIP3   OH236187   4.837   6.073  10.942 -0.1463 -0.7900  0.1024
 4899TIP3    H136188   4.862   6.155  10.900 -2.2783 -0.7634 -1.1862
 4899TIP3    H236189   4.918   6.040  10.981  1.0819  1.0730 -0.8098
 4900TIP3   OH236190   3.298   0.187   2.340 -0.0747  0.0067  0.1050
 4900TIP3    H136191   3.279   0.095   2.322  0.2536  0.1170 -0.8256
 4900TIP3    H236192   3.381   0.185   2.389  0.4870 -0.1313 -0.8462
 4901TIP3   OH236193   6.260   6.632  11.372 -0.2441 -0.3594 -0.4093
 4901TIP3    H136194   6.227   6.544  11.390 -0.2649 -0.1517  0.6178
 4901TIP3    H236195   6.193   6.690  11.409  0.0195  0.0847 -0.6278
 4902TIP3   OH236196   3.387   3.818  17.106  0.4580  0.2798  0.4095
 4902TIP3    H136197   3.457   3.853  17.161 -0.1892  1.3753  0.5584
 4902TIP3    H236198   3.326   3.777  17.168 -1.1096  2.9610  0.7214
 4903TIP3   OH236199   4.597   0.233  14.688 -0.3877 -0.2877 -0.0107
 4903TIP3    H136200   4.535   0.259  14.620 -0.8146 -0.9572  0.1183
 4903TIP3    H236201   4.624   0.144  14.663 -1.3503 -0.9534  1.2545
 4904TIP3   OH236202   2.914   1.111   4.937 -0.6627  0.0119 -0.0849
 4904TIP3    H136203   2.967   1.088   4.861  1.4091 -0.7245  1.5356
 4904TIP3    H236204   2.837   1.155   4.900 -0.3243 -1.4378 -2.6781
 4905TIP3   OH236205   1.245   1.421   5.053 -0.1094 -0.1756  0.1217
 4905TIP3    H136206   1.290   1.398   5.134 -1.2698  0.1551  0.8614
 4905TIP3    H236207   1.262   1.514   5.041 -0.2444 -0.1466  0.1644
 4906TIP3   OH236208   2.438   1.147  12.673  0.3463  0.1491 -0.1033
 4906TIP3    H136209   2.490   1.096  12.611 -1.7290  0.2756 -2.0136
 4906TIP3    H236210   2.450   1.238  12.647  0.0506  0.2620  0.1442
 4907TIP3   OH236211   3.645   5.624   4.099 -0.2731  0.0387  0.4345
 4907TIP3    H136212   3.647   5.532   4.070  2.6873 -0.3843  1.8163
 4907TIP3    H236213   3.553   5.640   4.119 -0.9030 -2.5419 -0.1348
 4908TIP3   OH236214   3.741   0.411  12.092 -0.2096  0.1928  0.1091
 4908TIP3    H136215   3.721   0.384  12.182  1.2997  0.8528  0.6631
 4908TIP3    H236216   3.662   0.458  12.064 -1.0434 -0.7808  0.7653
 4909TIP3   OH236217   5.405   0.094   4.250  0.0343 -0.1847 -0.0105
 4909TIP3    H136218   5.365   0.011   4.274 -0.4195  0.1949  0.5482
 4909TIP3    H236219   5.486   0.069   4.205  0.5203 -0.9134  1.2517
 4910TIP3   OH236220   6.317   6.050   3.465  0.0272 -0.0499  0.2505
 4910TIP3    H136221   6.305   6.115   3.533 -0.5143 -2.6912  2.7865
 4910TIP3    H236222   6.400   6.007   3.486  0.9733  0.5273 -2.0526
 4911TIP3   OH236223   1.927   4.023  15.299  0.4235 -0.0829 -0.1279
 4911TIP3    H136224   1.917   4.096  15.360 -1.1334 -1.4172  1.2758
 4911TIP3    H236225   2.020   4.002  15.301  0.3422 -0.3334  2.0946
 4912TIP3   OH236226   5.112   4.304  15.537  0.1570  0.7212  0.0661
 4912TIP3    H136227   5.052   4.358  15.485  0.4636  0.4585 -0.5578
 4912TIP3    H236228   5.138   4.233  15.479  0.0883  0.1327  0.7509
 4913TIP3   OH236229   3.117   4.016  16.785  0.0819 -0.4430  0.1642
 4913TIP3    H136230   3.147   4.098  16.745  2.3115 -0.5547  1.5116
 4913TIP3    H236231   3.083   3.965  16.712  1.8011  0.3368 -1.2296
 4914TIP3   OH236232   3.893   2.742  14.027  0.0458  0.5056 -0.4493
 4914TIP3    H136233   3.812   2.752  14.078  0.7508 -1.7325  1.1918
 4914TIP3    H236234   3.895   2.649  14.004  0.8582  1.0552 -2.7386
 4915TIP3   OH236235   5.132   0.422  15.119  0.0669 -0.0661 -0.0970
 4915TIP3    H136236   5.150   0.499  15.064  1.0595  0.1626  0.5232
 4915TIP3    H236237   5.190   0.354  15.083  1.0534  0.2130  0.9241
 4916TIP3   OH236238   5.337   0.675   2.258  0.3757 -0.2482 -0.3815
 4916TIP3    H136239   5.260   0.683   2.202  1.2649  0.3240 -1.5225
 4916TIP3    H236240   5.399   0.624   2.207  0.8334 -0.5393  0.4586
 4917TIP3   OH236241   0.616   5.313   1.346 -0.3193  0.2383  0.1302
 4917TIP3    H136242   0.594   5.220   1.358  1.5279 -0.5570 -2.1675
 4917TIP3    H236243   0.531   5.357   1.337 -1.2024 -1.3071  0.7102
 4918TIP3   OH236244   4.902   2.631  15.933 -0.3019  0.0826 -0.1769
 4918TIP3    H136245   4.995   2.623  15.912 -0.4531  1.7063 -1.5650
 4918TIP3    H236246   4.899   2.674  16.018  0.2580 -3.5781  1.7974
 4919TIP3   OH236247   2.532   2.960  11.158 -0.2209  0.0049  0.2635
 4919TIP3    H136248   2.587   2.991  11.087 -1.2959  0.5424 -0.3345
 4919TIP3    H236249   2.577   2.991  11.238  0.1751  0.7018 -0.2214
 4920TIP3   OH236250   3.567   0.303   4.912 -0.0929  0.5801  0.6016
 4920TIP3    H136251   3.631   0.373   4.896 -0.5830  0.8876 -0.0474
 4920TIP3    H236252   3.615   0.239   4.964  0.7833  0.7703  0.0532
 4921TIP3   OH236253   1.339   0.129  15.481  0.4297 -0.2451  0.2389
 4921TIP3    H136254   1.333   0.201  15.544  0.8975 -0.0367  0.0418
 4921TIP3    H236255   1.415   0.078  15.510  0.9544  0.1381 -0.4572
 4922TIP3   OH236256   4.874   3.667   4.795  0.5688 -0.5930 -0.7363
 4922TIP3    H136257   4.857   3.590   4.741 -1.8917 -0.6966  0.0968
 4922TIP3    H236258   4.877   3.633   4.884  0.7305  0.1072 -0.4743
 4923TIP3   OH236259   1.792   1.186  15.170 -0.0276  0.7132 -0.0960
 4923TIP3    H136260   1.778   1.099  15.132  2.0204 -0.4034  1.6316
 4923TIP3    H236261   1.704   1.222  15.180 -0.9053 -1.2024 -0.7148
 4924TIP3   OH236262   5.059   5.767  16.262  0.0012 -0.0727  0.1705
 4924TIP3    H136263   5.106   5.845  16.292 -1.5613  0.4055  1.4490
 4924TIP3    H236264   4.969   5.797  16.249  0.2260 -0.7148 -3.2972
 4925TIP3   OH236265   0.824   4.431  13.076  0.2836  0.2879 -0.6792
 4925TIP3    H136266   0.771   4.493  13.027  0.9259  0.1194 -1.5908
 4925TIP3    H236267   0.762   4.385  13.132 -0.4642  0.3667 -1.4481
 4926TIP3   OH236268   2.623   2.264  11.174  0.1791 -1.0114  0.4575
 4926TIP3    H136269   2.588   2.273  11.085 -1.4222 -0.5492  1.1032
 4926TIP3    H236270   2.618   2.352  11.210 -0.3781 -1.4433  1.4292
 4927TIP3   OH236271   4.759   1.060  16.084  0.2828  0.1233  0.3414
 4927TIP3    H136272   4.701   1.042  16.010 -0.2955  1.5362  0.4371
 4927TIP3    H236273   4.751   1.154  16.099  2.5688  0.3463  0.4034
 4928TIP3   OH236274   1.320   4.841   3.148 -0.6306  0.5722 -0.6336
 4928TIP3    H136275   1.399   4.789   3.135 -0.0709  2.0911 -3.9220
 4928TIP3    H236276   1.248   4.780   3.135  0.0108 -0.3324  0.0555
 4929TIP3   OH236277   5.388   4.730   1.835 -0.0145 -0.0156 -0.2869
 4929TIP3    H136278   5.420   4.733   1.745  1.8718  1.0652  0.3785
 4929TIP3    H236279   5.466   4.712   1.888 -1.1551 -1.0312  1.1065
 4930TIP3   OH236280   6.002   2.334   0.355  0.3467 -0.4231  0.3059
 4930TIP3    H136281   6.053   2.345   0.275  1.7297 -2.1989  0.9306
 4930TIP3    H236282   6.060   2.361   0.426 -0.5220  0.1711  0.8112
 4931TIP3   OH236283   5.445   5.564  11.310 -0.0638 -1.0509  0.2761
 4931TIP3    H136284   5.434   5.546  11.403 -0.1582  0.5991  0.5962
 4931TIP3    H236285   5.431   5.659  11.302 -0.7022 -1.2810 -1.5076
 4932TIP3   OH236286   0.915   3.695  15.333  0.1861 -0.4577 -0.5654
 4932TIP3    H136287   0.899   3.662  15.422  2.2922 -1.7188 -0.5917
 4932TIP3    H236288   0.952   3.619  15.287 -1.9594 -0.1496 -2.8776
 4933TIP3   OH236289   5.323   2.347   4.603  0.4504 -0.1112 -0.1619
 4933TIP3    H136290   5.270   2.267   4.596 -0.1064  0.3523 -1.3532
 4933TIP3    H236291   5.412   2.318   4.586  0.4255 -0.6884  0.6467
 4934TIP3   OH236292   2.168   1.422   0.993 -0.6798 -1.3588 -0.0882
 4934TIP3    H136293   2.191   1.515   0.998  2.8286 -2.1826  0.4457
 4934TIP3    H236294   2.180   1.399   0.900  0.2793 -1.6664  0.1000
 4935TIP3   OH236295   6.187   1.550   4.433  0.3157 -0.4133 -0.1402
 4935TIP3    H136296   6.172   1.631   4.385  1.3152  0.0273  0.2778
 4935TIP3    H236297   6.120   1.550   4.502  1.1941  0.7406  0.7224
 4936TIP3   OH236298   3.231   5.289  17.124 -0.6791 -0.0392 -0.6423
 4936TIP3    H136299   3.249   5.262  17.215  1.5446 -1.9619 -1.5847
 4936TIP3    H236300   3.219   5.383  17.129  1.1854  0.1446  1.4411
 4937TIP3   OH236301   0.894   1.720  15.403 -0.2674  0.3770  0.0824
 4937TIP3    H136302   0.811   1.674  15.417 -1.0760  2.0415  0.9532
 4937TIP3    H236303   0.869   1.802  15.361  0.7470  1.5957  1.7874
 4938TIP3   OH236304   2.745   5.231   3.136 -0.1748  0.3438 -0.1538
 4938TIP3    H136305   2.806   5.267   3.200  1.7907  0.2605 -1.9522
 4938TIP3    H236306   2.798   5.212   3.059 -2.5220  0.6047 -1.9072
 4939TIP3   OH236307   6.215   5.038  14.713 -0.2003  0.0099  0.5253
 4939TIP3    H136308   6.247   5.119  14.673 -0.5717  1.1804  2.5193
 4939TIP3    H236309   6.166   4.994  14.643 -0.2417  1.6514 -0.5007
 4940TIP3   OH236310   0.598   4.894  15.842  0.4309 -0.1675  0.3010
 4940TIP3    H136311   0.636   4.963  15.897 -0.5537  0.1302  0.6191
 4940TIP3    H236312   0.506   4.918  15.833 -0.0080 -1.6192  0.7041
 4941TIP3   OH236313   1.395   5.711   5.646  0.1665 -0.0075 -0.8619
 4941TIP3    H136314   1.309   5.748   5.629  0.0996 -0.0612 -0.6383
 4941TIP3    H236315   1.386   5.666   5.730  0.4271  0.0362 -0.8110
 4942TIP3   OH236316   1.682   3.323   1.507 -0.0185  0.4068 -0.3612
 4942TIP3    H136317   1.759   3.269   1.525  0.5712  1.8954  1.7156
 4942TIP3    H236318   1.715   3.398   1.457 -0.6506 -0.4785 -2.1837
 4943TIP3   OH236319   1.241   2.663  11.493  0.1329  0.3140  0.1349
 4943TIP3    H136320   1.310   2.617  11.542  1.5107 -0.1595 -2.1840
 4943TIP3    H236321   1.187   2.593  11.456  0.5367  0.6161 -1.0311
 4944TIP3   OH236322   5.958   4.443   0.319  0.0638 -0.1008  0.3205
 4944TIP3    H136323   6.053   4.449   0.318 -0.0210  1.4541  0.0465
 4944TIP3    H236324   5.931   4.505   0.387 -0.7707 -0.4127  0.2815
 4945TIP3   OH236325   2.891   1.301  11.666  0.6659 -0.3636  0.3924
 4945TIP3    H136326   2.873   1.392  11.643  2.0530 -0.0926  0.3334
 4945TIP3    H236327   2.963   1.306  11.729  2.9105 -1.5489 -1.9968
 4946TIP3   OH236328   0.050   2.102   3.027 -0.0099 -0.2338  0.5300
 4946TIP3    H136329   0.117   2.141   2.971 -0.4181  0.5741  0.5955
 4946TIP3    H236330   0.003   2.041   2.969  0.0412  0.0546  0.1825
 4947TIP3   OH236331   5.051   2.778  11.932 -0.0945  0.0800  0.3131
 4947TIP3    H136332   5.050   2.759  11.839 -0.1203  0.5250  0.2247
 4947TIP3    H236333   5.112   2.714  11.969  0.1389  0.0978 -0.0428
 4948TIP3   OH236334   2.684   2.485  14.979 -0.0502  0.4062  0.1926
 4948TIP3    H136335   2.614   2.540  15.013 -0.2558  0.4054 -0.2223
 4948TIP3    H236336   2.645   2.439  14.905  0.4387  0.5596 -0.1685
 4949TIP3   OH236337   1.239   6.518  12.381 -0.0176  0.2024 -0.2585
 4949TIP3    H136338   1.273   6.476  12.302  0.0864 -1.0338  0.4295
 4949TIP3    H236339   1.284   6.603  12.384  0.8267 -0.2127 -0.9224
 4950TIP3   OH236340   2.310   3.045   5.217 -0.4380 -0.0434 -0.2628
 4950TIP3    H136341   2.318   3.071   5.125 -1.5247 -0.8246 -0.5914
 4950TIP3    H236342   2.395   3.009   5.240  0.1557  1.0811 -0.6665
 4951TIP3   OH236343   2.557   2.034  15.233 -0.4131 -0.2236  0.1851
 4951TIP3    H136344   2.648   2.060  15.251 -0.4468  0.4828 -0.6510
 4951TIP3    H236345   2.518   2.112  15.194 -0.5708 -1.4902 -2.2187
 4952TIP3   OH236346   1.614   1.314  13.464  0.0482 -0.4474  0.8517
 4952TIP3    H136347   1.617   1.408  13.450 -1.1206 -0.3813  0.9841
 4952TIP3    H236348   1.674   1.278  13.399 -1.1657  0.2456 -0.7087
 4953TIP3   OH236349   0.264   4.166  15.514  0.0907  0.6343 -0.2966
 4953TIP3    H136350   0.278   4.224  15.588 -0.3353  0.2930  0.0519
 4953TIP3    H236351   0.222   4.089  15.551  1.8123 -0.4499 -0.5498
 4954TIP3   OH236352   4.911   4.220  10.327 -0.3744 -0.1582  0.0300
 4954TIP3    H136353   4.877   4.309  10.335 -0.1303 -0.0821  0.2396
 4954TIP3    H236354   5.002   4.227  10.356 -0.6350 -0.6692  0.9821
 4955TIP3   OH236355   4.344   2.545   5.410  0.8966  0.1331  0.6905
 4955TIP3    H136356   4.423   2.543   5.463  1.2125  0.6245  0.2493
 4955TIP3    H236357   4.299   2.625   5.437 -0.2065 -0.9245  2.0129
 4956TIP3   OH236358   0.980   5.832  15.902 -0.1849  0.3478 -0.2164
 4956TIP3    H136359   1.070   5.864  15.912 -0.4793  0.9174  0.6754
 4956TIP3    H236360   0.978   5.794  15.814  0.9304  0.3195 -0.2453
 4957TIP3   OH236361   1.900   1.948  14.146 -0.1970  0.1131 -0.4949
 4957TIP3    H136362   1.894   2.037  14.180 -0.2684 -0.9484  2.3777
 4957TIP3    H236363   1.812   1.912  14.158 -0.1238 -0.4201 -1.4731
 4958TIP3   OH236364   5.725   2.712  10.609 -0.4114 -0.3522 -0.3058
 4958TIP3    H136365   5.759   2.628  10.578  0.9441  0.6659 -1.6107
 4958TIP3    H236366   5.712   2.698  10.703 -0.2574 -2.0374 -0.5107
 4959TIP3   OH236367   6.108   1.764   3.982  0.0419 -0.1512  0.1151
 4959TIP3    H136368   6.115   1.788   4.075 -1.2975 -0.9054  0.4204
 4959TIP3    H236369   6.018   1.786   3.959  0.4107  0.1630 -1.0619
 4960TIP3   OH236370   4.343   0.362  12.637  0.9406  0.4645  0.2300
 4960TIP3    H136371   4.319   0.287  12.583 -1.4430  1.5158 -0.2424
 4960TIP3    H236372   4.364   0.431  12.574  1.8741  0.5947  0.6677
 4961TIP3   OH236373   4.741   1.422  16.992 -0.4163 -0.4689 -0.5588
 4961TIP3    H136374   4.805   1.393  17.057  0.3697  0.7300 -0.7953
 4961TIP3    H236375   4.793   1.465  16.925 -1.6030  1.8183 -0.0429
 4962TIP3   OH236376   1.007   1.656   4.935 -0.3066  0.3293 -0.0544
 4962TIP3    H136377   0.964   1.739   4.913 -0.7479 -0.2368 -1.3573
 4962TIP3    H236378   0.938   1.605   4.978 -0.7042 -0.2571 -1.3818
 4963TIP3   OH236379   1.062   6.182   2.135 -0.4922  0.6059  0.3876
 4963TIP3    H136380   1.117   6.142   2.067  2.9498  2.0261  2.2423
 4963TIP3    H236381   1.011   6.248   2.088 -1.0800 -1.0921 -1.4617
 4964TIP3   OH236382   3.521   3.039   0.846 -0.3792 -0.0325  0.1352
 4964TIP3    H136383   3.519   2.961   0.792  0.4643  0.7263 -1.0199
 4964TIP3    H236384   3.429   3.056   0.867 -0.8305  0.3109 -2.0195
 4965TIP3   OH236385   4.042   2.217   0.462  0.3261  0.5926 -0.3296
 4965TIP3    H136386   3.953   2.193   0.487  0.6220 -2.3914 -1.8921
 4965TIP3    H236387   4.073   2.143   0.409  3.1352  2.3198 -1.2217
 4966TIP3   OH236388   0.684   4.094   5.361  0.3401  0.6090  0.1496
 4966TIP3    H136389   0.715   4.010   5.396 -0.4475  0.3485  0.2381
 4966TIP3    H236390   0.761   4.133   5.320  1.3746  1.1075  2.5199
 4967TIP3   OH236391   2.971   4.522   3.523 -0.2067 -0.1332 -0.2275
 4967TIP3    H136392   2.983   4.531   3.428 -1.1508  0.0275 -0.3304
 4967TIP3    H236393   2.906   4.588   3.546 -0.9083 -1.0175  0.3399
 4968TIP3   OH236394   0.640   3.613   3.344 -0.0244 -0.5673 -0.0805
 4968TIP3    H136395   0.721   3.642   3.303  0.2608 -0.9241  0.2264
 4968TIP3    H236396   0.668   3.559   3.418 -0.5379 -1.4021 -0.4875
 4969TIP3   OH236397   0.619   3.100  13.429 -0.2765 -0.6673 -0.4070
 4969TIP3    H136398   0.651   3.188  13.451 -2.1755 -0.3942  1.4094
 4969TIP3    H236399   0.696   3.044  13.438  0.3389  0.3889  1.1600
 4970TIP3   OH236400   1.146   5.856   3.643  0.2801  0.2969 -0.2878
 4970TIP3    H136401   1.186   5.907   3.573 -0.6683  0.0276 -1.0332
 4970TIP3    H236402   1.171   5.766   3.624 -1.3178  0.0347 -1.2019
 4971TIP3   OH236403   1.156   3.134   6.051  0.1290 -0.1441  0.6494
 4971TIP3    H136404   1.096   3.120   5.977  0.5704  1.7669 -0.1212
 4971TIP3    H236405   1.149   3.228   6.069 -1.1164 -0.8470  4.0703
 4972TIP3   OH236406   4.661   2.883  16.855  1.0349  0.0783 -0.6245
 4972TIP3    H136407   4.716   2.909  16.929 -1.2060  0.4967  0.9467
 4972TIP3    H236408   4.595   2.952  16.848 -0.7830 -1.6118 -0.8672
 4973TIP3   OH236409   1.872   2.466  15.102  0.3134 -0.1562  0.2420
 4973TIP3    H136410   1.870   2.552  15.145 -0.2639 -0.8942  1.7320
 4973TIP3    H236411   1.821   2.478  15.022  0.3639  0.9295  0.3626
 4974TIP3   OH236412   4.045   3.934  11.684  0.2979  0.1012 -0.4002
 4974TIP3    H136413   4.027   3.983  11.604  0.5645 -1.4277 -1.4038
 4974TIP3    H236414   4.095   3.858  11.655  2.9660  1.0238  1.5642
 4975TIP3   OH236415   5.539   0.644  15.757  0.0120  0.0329  0.1499
 4975TIP3    H136416   5.449   0.626  15.728 -0.6259  0.3411  1.8656
 4975TIP3    H236417   5.567   0.716  15.701 -1.0077  0.2791 -0.0693
 4976TIP3   OH236418   3.119   2.563   1.814 -0.4700 -0.5742 -0.0192
 4976TIP3    H136419   3.200   2.512   1.821 -0.7788 -1.0308  0.2320
 4976TIP3    H236420   3.050   2.498   1.809 -0.6796 -0.2016 -2.1982
 4977TIP3   OH236421   2.640   0.950  13.974  0.2629  0.3219 -0.8947
 4977TIP3    H136422   2.721   0.924  14.016 -1.2063 -1.4349  0.9478
 4977TIP3    H236423   2.603   1.017  14.031 -0.1090  0.3251 -1.1310
 4978TIP3   OH236424   4.552   6.458  12.998 -0.4317  0.5140 -0.1955
 4978TIP3    H136425   4.458   6.451  13.012 -0.4998  0.2219 -0.7629
 4978TIP3    H236426   4.561   6.528  12.932 -0.1717  1.3850  0.7539
 4979TIP3   OH236427   0.279   1.386  15.587 -0.0437  0.1794  0.3598
 4979TIP3    H136428   0.235   1.382  15.501 -0.3617 -1.1461  0.5818
 4979TIP3    H236429   0.302   1.479  15.597 -0.6074  0.4662 -0.8578
 4980TIP3   OH236430   2.641   1.833   4.152  0.0697  1.0401  0.3574
 4980TIP3    H136431   2.683   1.915   4.126 -1.2253  1.8657  0.8163
 4980TIP3    H236432   2.610   1.849   4.241 -0.1041  0.0134  0.4919
 4981TIP3   OH236433   6.141   0.057  11.441  0.2866 -0.4496 -0.4857
 4981TIP3    H136434   6.163   0.102  11.359 -0.9105 -0.3808 -0.7891
 4981TIP3    H236435   6.071   0.111  11.479 -0.6314 -1.6259 -0.4754
 4982TIP3   OH236436   0.159   6.187   2.422 -0.0574  0.1219  0.2291
 4982TIP3    H136437   0.084   6.240   2.395 -1.0614 -2.0270 -1.3170
 4982TIP3    H236438   0.233   6.223   2.373 -0.2254  1.6558  1.0598
 4983TIP3   OH236439   5.087   1.202   5.751 -0.0832  0.3702 -0.0559
 4983TIP3    H136440   5.145   1.265   5.794  0.0141  1.4112 -1.6761
 4983TIP3    H236441   5.106   1.211   5.657 -1.7084 -0.4322 -0.4923
 4984TIP3   OH236442   4.810   4.851  12.489 -0.3412 -1.1019  0.0906
 4984TIP3    H136443   4.835   4.768  12.450  0.5590 -0.4212 -0.7950
 4984TIP3    H236444   4.738   4.882  12.433  1.1591  0.0254 -1.2667
 4985TIP3   OH236445   1.218   2.210  17.246 -0.1231  0.5460  0.0242
 4985TIP3    H136446   1.135   2.201  17.198  0.2672  0.1064 -0.5668
 4985TIP3    H236447   1.196   2.266  17.320 -1.2856 -0.6678  0.6357
 4986TIP3   OH236448   2.846   2.198   0.647  0.0435 -0.4160 -0.3056
 4986TIP3    H136449   2.872   2.128   0.707  0.4945 -0.5345 -0.6325
 4986TIP3    H236450   2.913   2.196   0.578 -0.4444 -0.2566 -0.7874
 4987TIP3   OH236451   0.046   3.344   2.937 -0.2074 -0.2634 -0.1502
 4987TIP3    H136452  -0.007   3.411   2.979 -0.6751 -1.8349  1.8404
 4987TIP3    H236453   0.110   3.393   2.885  0.1068  1.7649  2.0502
 4988TIP3   OH236454   5.158   0.276  13.105  0.0214 -0.4790 -1.1475
 4988TIP3    H136455   5.080   0.224  13.087  0.1009 -1.0842  0.1329
 4988TIP3    H236456   5.222   0.212  13.139  1.1482 -0.0299 -2.3557
 4989TIP3   OH236457   4.760   0.659  14.361 -0.5491  0.1556  0.3391
 4989TIP3    H136458   4.696   0.650  14.432 -0.7016  0.4877  0.2444
 4989TIP3    H236459   4.743   0.745  14.324  0.1361  0.3515  0.4786
 4990TIP3   OH236460   2.469   4.120  10.781 -0.4249 -0.6167 -0.7103
 4990TIP3    H136461   2.503   4.191  10.836  1.1205 -0.5027 -1.7809
 4990TIP3    H236462   2.544   4.062  10.769 -1.0964 -1.2917 -1.6759
 4991TIP3   OH236463   1.507   1.648  11.600  0.7132 -0.5604  0.2080
 4991TIP3    H136464   1.568   1.711  11.561  0.0776  0.9013  1.5033
 4991TIP3    H236465   1.431   1.701  11.626 -0.5785 -2.1479 -0.2339
 4992TIP3   OH236466   0.994   4.853   0.526  0.2746 -0.2880  0.1935
 4992TIP3    H136467   0.989   4.839   0.432 -2.7928  1.5173  0.0237
 4992TIP3    H236468   1.058   4.923   0.536  1.9720 -1.7274 -0.3713
 4993TIP3   OH236469   6.317   5.418  15.624 -0.9113  0.4629  0.4923
 4993TIP3    H136470   6.240   5.362  15.633 -0.1361 -0.4205  1.8972
 4993TIP3    H236471   6.285   5.496  15.579 -1.9220 -1.2580 -1.8606
 4994TIP3   OH236472   2.504   1.022  10.716  0.0895  0.5287  0.0024
 4994TIP3    H136473   2.485   1.115  10.704  0.5889  0.4501 -1.5664
 4994TIP3    H236474   2.597   1.013  10.695  0.7566  0.1127  2.8701
 4995TIP3   OH236475   3.246   2.700   1.341  0.4068 -0.3023 -0.7186
 4995TIP3    H136476   3.298   2.688   1.261  0.6369  0.4297 -0.6773
 4995TIP3    H236477   3.310   2.724   1.408  0.0599  0.2106 -0.5746
 4996TIP3   OH236478   4.731   2.557   4.694 -0.0157  0.0614  0.2948
 4996TIP3    H136479   4.665   2.503   4.651  1.0825  0.0597 -1.4359
 4996TIP3    H236480   4.692   2.645   4.699  0.0502  0.1783 -1.1943
 4997TIP3   OH236481   1.812   2.171  12.576  0.1469  0.0434 -0.5665
 4997TIP3    H136482   1.896   2.216  12.568  0.2344  0.3840  1.9301
 4997TIP3    H236483   1.830   2.081  12.551  1.2148  0.1722 -0.2565
 4998TIP3   OH236484   6.065   4.122   3.865 -0.0511  0.2537  0.0632
 4998TIP3    H136485   6.056   4.206   3.909  0.7039  0.9699 -1.1282
 4998TIP3    H236486   6.107   4.143   3.781  0.9919 -1.4159  0.1531
 4999TIP3   OH236487   6.679   4.923   0.319 -0.0239  0.8015 -0.4535
 4999TIP3    H136488   6.696   4.850   0.260 -1.5543 -0.1897  0.3065
 4999TIP3    H236489   6.695   4.887   0.406 -0.8130  1.3750 -0.0757
 5000TIP3   OH236490   0.186   1.597   2.015  0.3427  0.2415  0.2709
 5000TIP3    H136491   0.184   1.524   1.953  0.2424  1.0613 -0.6920
 5000TIP3    H236492   0.185   1.676   1.961 -1.7080  0.9953  1.3315
 5001TIP3   OH236493   5.823   0.227   0.389 -0.4803  0.4310 -0.2540
 5001TIP3    H136494   5.760   0.162   0.421 -0.4736  0.4777 -0.1451
 5001TIP3    H236495   5.905   0.179   0.380 -0.3461  0.5499  0.3325
 5002TIP3   OH236496   2.768   5.356  10.517  0.1119 -0.3261 -0.2765
 5002TIP3    H136497   2.725   5.426  10.469 -0.6396 -1.5626 -1.4300
 5002TIP3    H236498   2.800   5.296  10.449 -1.1600 -2.2078  0.7418
 5003TIP3   OH236499   6.205   5.561  12.298 -0.0587  0.0830  0.1827
 5003TIP3    H136500   6.241   5.640  12.258 -0.0762 -0.0674 -0.1266
 5003TIP3    H236501   6.115   5.556  12.265  0.6374 -1.2878 -1.5825
 5004TIP3   OH236502   6.487   3.114   5.474  0.2730 -0.3344  0.2071
 5004TIP3    H136503   6.460   3.206   5.467 -3.4553 -1.2130  1.8065
 5004TIP3    H236504   6.581   3.117   5.489  0.2935  3.1974 -0.2936
 5005TIP3   OH236505   4.662   0.381   3.608  0.5820  0.9071  0.1912
 5005TIP3    H136506   4.597   0.435   3.562  0.2445  1.7627  1.6368
 5005TIP3    H236507   4.746   0.419   3.582  0.6054 -0.8490 -2.5057
 5006TIP3   OH236508   5.103   0.763  15.482  0.0543  0.1060  0.2149
 5006TIP3    H136509   5.130   0.679  15.445  0.3855 -0.8799  2.5844
 5006TIP3    H236510   5.009   0.767  15.466  0.2770 -0.0725 -1.1519
 5007TIP3   OH236511   5.549   3.271  13.880 -0.2505 -0.2925 -0.4120
 5007TIP3    H136512   5.620   3.207  13.869  2.1107  2.1080  0.3018
 5007TIP3    H236513   5.518   3.286  13.791  0.8031 -0.6499 -0.8582
 5008TIP3   OH236514   3.247   4.810  11.310 -0.2679  0.4029  0.3207
 5008TIP3    H136515   3.321   4.760  11.343  2.1349  3.6016  0.0590
 5008TIP3    H236516   3.170   4.768  11.348  1.8288 -1.5750  2.5275
 5009TIP3   OH236517   1.573   4.847  16.331  0.3207  1.0087 -0.1420
 5009TIP3    H136518   1.543   4.759  16.353  0.1567  0.1163 -3.5662
 5009TIP3    H236519   1.502   4.905  16.357 -0.6042 -0.1498 -0.0884
 5010TIP3   OH236520   6.342   3.121   4.313  0.0826 -0.1676  0.0801
 5010TIP3    H136521   6.407   3.088   4.250 -0.0293 -0.6801  0.2280
 5010TIP3    H236522   6.316   3.043   4.362 -0.5489  0.0668  0.1107
 5011TIP3   OH236523   2.522   3.704   5.814  0.3112  0.3319 -0.3760
 5011TIP3    H136524   2.440   3.657   5.832  0.1500  0.3658 -0.9864
 5011TIP3    H236525   2.520   3.720   5.719  2.1359 -1.7469 -0.7964
 5012TIP3   OH236526   6.240   4.600  17.198  0.3160  0.2601  0.1540
 5012TIP3    H136527   6.219   4.507  17.209 -0.5510  0.4279 -0.0502
 5012TIP3    H236528   6.178   4.631  17.132 -0.7920  1.4842  1.7619
 5013TIP3   OH236529   1.082   3.185   3.024 -0.1869 -0.2185  0.2306
 5013TIP3    H136530   1.061   3.266   2.978  0.1211 -0.4930 -0.3888
 5013TIP3    H236531   1.053   3.116   2.966  1.8739 -0.6056 -0.3878
 5014TIP3   OH236532   6.286   0.054  11.868 -0.1946 -0.1738  0.3944
 5014TIP3    H136533   6.192   0.060  11.856 -0.4709 -0.8686  2.0413
 5014TIP3    H236534   6.320   0.139  11.839 -1.5455  0.8266  1.6752
 5015TIP3   OH236535   5.901   1.769   2.327  0.6652  0.7030 -0.0589
 5015TIP3    H136536   5.979   1.781   2.274 -0.2492  2.8303 -0.9629
 5015TIP3    H236537   5.925   1.802   2.413  0.9634  0.6933 -0.1363
 5016TIP3   OH236538   2.583   2.916   4.710  0.5099 -0.0598 -0.0272
 5016TIP3    H136539   2.554   2.936   4.621  0.1363 -0.3609  0.0287
 5016TIP3    H236540   2.625   2.998   4.740  0.2422  0.1832 -0.3144
 5017TIP3   OH236541   2.525   0.869  16.797  0.1864  0.4510 -0.3549
 5017TIP3    H136542   2.453   0.825  16.752 -1.2913  2.1318  0.3360
 5017TIP3    H236543   2.571   0.917  16.727 -1.3110  1.9866 -0.3020
 5018TIP3   OH236544   2.171   2.490   3.811  0.1777 -0.1579  0.1815
 5018TIP3    H136545   2.253   2.474   3.857  0.2217 -0.4115  0.0148
 5018TIP3    H236546   2.197   2.506   3.720  0.1693  1.2125  0.3984
 5019TIP3   OH236547   4.525   6.680   4.354 -0.1016  0.3809 -0.5004
 5019TIP3    H136548   4.441   6.721   4.334  1.1826  3.1502 -0.4192
 5019TIP3    H236549   4.515   6.646   4.443 -1.7785 -1.0751 -1.2335
 5020TIP3   OH236550   6.507   4.179   1.509  0.4876  0.4980 -0.1584
 5020TIP3    H136551   6.521   4.212   1.598 -0.2206 -1.3115  0.6651
 5020TIP3    H236552   6.469   4.252   1.462  0.5939  1.3955  1.1183
 5021TIP3   OH236553   6.806   5.635   5.347  0.0946 -0.6315  0.2095
 5021TIP3    H136554   6.732   5.629   5.288  0.7027 -0.4613 -0.5758
 5021TIP3    H236555   6.843   5.722   5.331  0.3170 -0.6177  0.7737
 5022TIP3   OH236556   0.094   5.213  17.280 -0.2432  0.1233 -0.2457
 5022TIP3    H136557   0.164   5.210  17.345 -0.9185 -0.3148  0.4714
 5022TIP3    H236558   0.083   5.122  17.252 -0.3742  0.2220 -0.5193
 5023TIP3   OH236559   4.102   6.281   4.750  0.0830 -0.4072  0.2123
 5023TIP3    H136560   4.062   6.302   4.835  0.6287  0.9840  0.1360
 5023TIP3    H236561   4.089   6.187   4.740 -1.0493 -0.3790  1.2965
 5024TIP3   OH236562   4.184   5.724  12.878 -0.0759  0.6070  0.0135
 5024TIP3    H136563   4.145   5.705  12.964  0.8896 -0.3931  0.2407
 5024TIP3    H236564   4.156   5.813  12.858 -0.4956  0.7625  1.2659
 5025TIP3   OH236565   4.694   0.139  16.817  0.2141  0.1115 -0.4678
 5025TIP3    H136566   4.735   0.066  16.864 -0.6425 -0.6562 -0.9015
 5025TIP3    H236567   4.701   0.213  16.878  1.9084 -0.0932 -0.3910
 5026TIP3   OH236568   0.887   5.391   5.881 -0.0323 -0.5817  0.8732
 5026TIP3    H136569   0.883   5.368   5.974 -0.2390 -1.6320  0.6181
 5026TIP3    H236570   0.863   5.310   5.836  0.9603 -0.3378 -0.1116
 5027TIP3   OH236571   3.662   0.895  11.952  0.6058  0.0623  0.2225
 5027TIP3    H136572   3.725   0.843  11.902  1.0345  1.4852 -0.7441
 5027TIP3    H236573   3.578   0.851  11.938  1.1431 -1.0085  0.3294
 5028TIP3   OH236574   6.515   0.386   0.761 -0.2258  0.1689 -0.2499
 5028TIP3    H136575   6.600   0.407   0.723 -0.5330 -1.2902 -1.8413
 5028TIP3    H236576   6.453   0.394   0.688 -1.1842 -0.5127  0.4598
 5029TIP3   OH236577   0.238   3.019  15.154 -0.1671 -0.0454  0.0525
 5029TIP3    H136578   0.231   2.953  15.085  1.2763  0.5139 -0.6412
 5029TIP3    H236579   0.257   3.100  15.108  1.3625  0.2336  1.1447
 5030TIP3   OH236580   6.309   6.403  15.433  0.3409  0.1004  0.0147
 5030TIP3    H136581   6.322   6.472  15.499  1.9526  0.3929 -0.5749
 5030TIP3    H236582   6.372   6.424  15.364 -1.6949  0.1226 -1.9026
 5031TIP3   OH236583   0.775   6.362  13.065 -0.0199  0.2696  0.1183
 5031TIP3    H136584   0.737   6.364  13.153  0.4771  0.4277  0.3338
 5031TIP3    H236585   0.706   6.325  13.010 -0.5584  0.7419  0.4646
 5032TIP3   OH236586   2.741   3.558   1.953  0.2552 -0.3044  0.3261
 5032TIP3    H136587   2.833   3.565   1.976  0.3491  0.0394 -0.1440
 5032TIP3    H236588   2.739   3.571   1.858 -0.4902  1.5882  0.5795
 5033TIP3   OH236589   1.082   0.927   4.629  0.2397 -0.2691  0.3539
 5033TIP3    H136590   1.160   0.976   4.655  0.4881 -0.5937  0.2134
 5033TIP3    H236591   1.013   0.994   4.624  0.3568 -0.0810  1.1061
 5034TIP3   OH236592   3.393   0.890   0.158  0.0415  0.5076 -0.2469
 5034TIP3    H136593   3.470   0.842   0.127 -1.0506 -2.0598  0.8343
 5034TIP3    H236594   3.422   0.933   0.239  0.0820 -1.4008  0.7924
 5035TIP3   OH236595   5.950   5.816   1.088 -0.2730  0.2598  0.1448
 5035TIP3    H136596   5.968   5.797   1.180  1.2687  2.1666  0.2577
 5035TIP3    H236597   5.965   5.910   1.079  1.2130 -0.1697 -2.4127
 5036TIP3   OH236598   1.339   3.235  10.799 -0.0121  0.3615  0.5360
 5036TIP3    H136599   1.429   3.221  10.768 -0.1279 -0.6596  0.6431
 5036TIP3    H236600   1.326   3.168  10.865 -1.3130 -0.3684 -0.4458
 5037TIP3   OH236601   1.584   5.977   4.671 -0.4657 -0.3657 -0.2279
 5037TIP3    H136602   1.633   5.980   4.588  2.0744 -0.3908  1.2240
 5037TIP3    H236603   1.596   6.064   4.709 -1.4891 -0.4016  0.1945
 5038TIP3   OH236604   3.886   6.056   0.029 -0.5058  0.3245 -0.1618
 5038TIP3    H136605   3.836   6.052  -0.052 -0.5826  0.6099 -0.1320
 5038TIP3    H236606   3.910   5.966   0.048  1.7360  0.4987 -1.8749
 5039TIP3   OH236607   4.944   6.352   1.642  0.4155 -0.0086 -0.1413
 5039TIP3    H136608   4.936   6.446   1.656 -0.4044 -0.1743  0.5249
 5039TIP3    H236609   4.935   6.313   1.729 -1.7439 -0.8533 -0.7021
 5040TIP3   OH236610   4.200   4.846  13.036 -0.2719  0.3094  0.3347
 5040TIP3    H136611   4.128   4.797  12.996  0.4113  0.0592 -0.5904
 5040TIP3    H236612   4.195   4.823  13.129 -0.9003 -0.3186  0.1534
 5041TIP3   OH236613   3.650   1.260   0.346  0.1707 -0.3486 -0.3701
 5041TIP3    H136614   3.583   1.309   0.297 -1.0055 -2.1259 -0.5649
 5041TIP3    H236615   3.607   1.178   0.370  2.3310 -1.5804 -0.6241
 5042TIP3   OH236616   4.373   0.433  16.842  0.2643 -0.0893 -0.0142
 5042TIP3    H136617   4.403   0.522  16.830  0.3967  0.0434  1.2139
 5042TIP3    H236618   4.277   0.439  16.836  0.2381  0.2423  0.7202
 5043TIP3   OH236619   2.524   4.963   5.509  0.5864  0.2688  0.0532
 5043TIP3    H136620   2.501   5.042   5.557  1.6896  0.1132  0.8675
 5043TIP3    H236621   2.610   4.938   5.544  0.3503 -1.1549 -0.3403
 5044TIP3   OH236622   0.978   6.641  10.996 -0.5546 -0.2708 -0.0858
 5044TIP3    H136623   0.947   6.687  10.917 -0.5706  1.3257  0.8184
 5044TIP3    H236624   1.073   6.649  10.992 -0.4968 -1.0900 -0.4605
 5045TIP3   OH236625   0.547   2.409  11.929  0.1096  0.4697  0.0809
 5045TIP3    H136626   0.621   2.382  11.983 -1.2220 -0.5037  1.4526
 5045TIP3    H236627   0.568   2.374  11.842  1.0949 -0.1055  0.5307
 5046TIP3   OH236628   2.715   4.974  13.209  0.2048  0.2733  0.9541
 5046TIP3    H136629   2.680   5.063  13.197  0.8524  0.4509  0.3410
 5046TIP3    H236630   2.637   4.918  13.213 -0.1855  0.7855  0.6258
 5047TIP3   OH236631   0.086   4.884   5.995  0.9448  0.2303 -0.2800
 5047TIP3    H136632   0.021   4.836   5.944  2.3159 -0.9239 -0.9595
 5047TIP3    H236633   0.156   4.821   6.012  1.8925  1.4454  0.4569
 5048TIP3   OH236634   5.395   6.348  16.596 -0.3953  0.0410  0.0707
 5048TIP3    H136635   5.451   6.294  16.539 -1.7434  0.3577 -1.6087
 5048TIP3    H236636   5.422   6.324  16.685  0.3857 -1.9605 -0.6621
 5049TIP3   OH236637   1.249   5.037   0.474  0.1763  0.4368  0.1079
 5049TIP3    H136638   1.199   5.062   0.551 -0.9142 -0.1077 -0.4079
 5049TIP3    H236639   1.280   5.120   0.437  0.3914  0.7187  0.9120
 5050TIP3   OH236640   3.627   6.443  13.415 -0.1167  0.4584 -0.7307
 5050TIP3    H136641   3.721   6.453  13.426 -0.3445  0.1112  1.9611
 5050TIP3    H236642   3.591   6.528  13.439 -0.6587 -0.3285  1.3808
 5051TIP3   OH236643   5.780   5.698   1.602 -0.2737 -0.1492 -0.0287
 5051TIP3    H136644   5.769   5.615   1.649 -2.2324  0.2608  0.2551
 5051TIP3    H236645   5.707   5.701   1.540  1.2438  0.1820 -1.8566
 5052TIP3   OH236646   3.901   4.117  16.886  0.2133 -0.1724 -0.3332
 5052TIP3    H136647   3.862   4.198  16.852  2.8777  0.5392 -1.8718
 5052TIP3    H236648   3.951   4.146  16.963  0.7976 -0.4205 -0.6191
 5053TIP3   OH236649   2.940   1.344   0.344  0.1394  0.1102 -0.7260
 5053TIP3    H136650   2.925   1.435   0.320 -0.3124 -0.1443 -1.4335
 5053TIP3    H236651   2.854   1.310   0.367  0.2546 -0.2306 -0.7848
 5054TIP3   OH236652   4.831   5.413  11.243  0.4044  0.1751 -0.2094
 5054TIP3    H136653   4.896   5.472  11.281  1.0284 -0.4598 -0.2689
 5054TIP3    H236654   4.824   5.341  11.306  0.2481 -0.0862 -0.5223
 5055TIP3   OH236655   1.738   1.665  10.760 -0.0594  1.0109  0.4764
 5055TIP3    H136656   1.683   1.624  10.693 -0.1140  0.0455  1.0944
 5055TIP3    H236657   1.743   1.757  10.734 -0.2420  0.6914 -0.7423
 5056TIP3   OH236658   1.897   5.432  11.288 -0.0654  0.6348  0.0655
 5056TIP3    H136659   1.902   5.375  11.211 -1.1557 -0.0574  0.4813
 5056TIP3    H236660   1.967   5.495  11.276  0.8713 -0.5122 -0.6605
 5057TIP3   OH236661   6.307   2.334   4.707 -0.1756 -0.3974  0.3762
 5057TIP3    H136662   6.289   2.365   4.618 -0.6215  0.7690  0.8626
 5057TIP3    H236663   6.316   2.239   4.698  0.7696 -0.1931 -1.0793
 5058TIP3   OH236664   3.364   5.882   4.600 -0.4902  0.3868  0.0963
 5058TIP3    H136665   3.283   5.853   4.557  0.0118  0.8541 -1.1785
 5058TIP3    H236666   3.333   5.932   4.676 -1.3801 -0.8362  0.5603
 5059TIP3   OH236667   4.969   6.181  15.023 -0.2944  0.8365 -0.4102
 5059TIP3    H136668   4.977   6.235  14.945 -1.2987  2.9793  0.9221
 5059TIP3    H236669   4.909   6.229  15.080 -2.1796 -2.2892  0.3571
 5060TIP3   OH236670   0.652   2.312  13.750 -0.3726  0.6738  0.5457
 5060TIP3    H136671   0.616   2.247  13.810 -2.0792  0.7759 -0.3294
 5060TIP3    H236672   0.700   2.260  13.684 -2.3174  0.2217 -0.5461
 5061TIP3   OH236673   2.092   4.990  16.158 -0.3355 -0.4598 -0.1387
 5061TIP3    H136674   2.093   4.936  16.078  1.9705  0.6118 -0.8682
 5061TIP3    H236675   2.002   5.023  16.163 -1.1656 -2.4964 -0.9356
 5062TIP3   OH236676   6.460   5.502   3.832  0.5537 -0.1853 -1.1024
 5062TIP3    H136677   6.408   5.577   3.802  1.6720  1.3979  0.7691
 5062TIP3    H236678   6.396   5.435   3.853 -0.7163  1.4983  0.5592
 5063TIP3   OH236679   0.072   3.532  13.202 -0.2899 -0.2318 -0.4273
 5063TIP3    H136680   0.127   3.454  13.212 -1.1895 -1.2684 -3.0204
 5063TIP3    H236681   0.096   3.588  13.275  1.3641 -2.3626  0.7305
 5064TIP3   OH236682   5.350   6.334  15.122  0.0211  0.3777  0.1280
 5064TIP3    H136683   5.389   6.307  15.039 -0.7384  0.5060 -0.2808
 5064TIP3    H236684   5.415   6.312  15.188  0.2453 -0.5914 -0.4122
 5065TIP3   OH236685   6.108   2.661   4.486 -0.0191  0.3152  0.7191
 5065TIP3    H136686   6.195   2.642   4.521  0.0619  0.3825  0.5558
 5065TIP3    H236687   6.102   2.756   4.486  0.6565  0.3800 -1.0763
 5066TIP3   OH236688   0.323   5.942   1.830 -0.0421  0.3869 -0.5750
 5066TIP3    H136689   0.300   5.850   1.843 -0.7567  0.5238 -0.8634
 5066TIP3    H236690   0.244   5.982   1.792 -0.1228  1.3559  0.5890
 5067TIP3   OH236691   1.273   4.676   5.670 -0.0350  0.3435  0.5538
 5067TIP3    H136692   1.227   4.611   5.617  1.2281 -0.9664  1.0288
 5067TIP3    H236693   1.251   4.760   5.630 -1.3805 -0.4121 -0.2970
 5068TIP3   OH236694   5.384   4.575   3.421 -0.4890  0.7158  0.1450
 5068TIP3    H136695   5.417   4.534   3.501  1.4909 -1.5935 -1.7712
 5068TIP3    H236696   5.441   4.650   3.407  1.1974 -0.6781 -0.7209
 5069TIP3   OH236697   3.074   0.090  14.303  0.4049 -0.3619  0.3582
 5069TIP3    H136698   3.088   0.000  14.272  0.2275  0.6927 -2.9764
 5069TIP3    H236699   2.979   0.103  14.296  0.2535 -0.3575  2.2085
 5070TIP3   OH236700   4.094   0.636   0.409  0.5777  0.0085  0.0702
 5070TIP3    H136701   4.052   0.633   0.495  1.2299 -1.3740  0.3616
 5070TIP3    H236702   4.147   0.556   0.406  2.7892  1.4647 -0.4788
 5071TIP3   OH236703   6.297   2.083  17.291 -0.1420 -0.2051  0.5727
 5071TIP3    H136704   6.346   2.006  17.262 -0.2010 -0.0649  0.0867
 5071TIP3    H236705   6.207   2.053  17.297 -0.1090 -0.2697  0.7317
 5072TIP3   OH236706   6.794   1.846   5.245 -0.9491  0.0355  0.5631
 5072TIP3    H136707   6.751   1.762   5.228 -0.9341  0.1560 -0.0855
 5072TIP3    H236708   6.799   1.852   5.340 -1.3090 -0.5187  0.6162
 5073TIP3   OH236709   2.862   3.656  17.127  0.0779 -0.4193 -0.5279
 5073TIP3    H136710   2.905   3.717  17.068 -1.7307  0.7240 -0.7071
 5073TIP3    H236711   2.931   3.597  17.155  1.3596  0.2156 -2.2670
 5074TIP3   OH236712   6.028   5.875   1.363  0.1000 -0.1073  0.4596
 5074TIP3    H136713   6.027   5.847   1.455  0.8848  1.0729  0.8359
 5074TIP3    H236714   6.117   5.907   1.348  0.6153 -2.2426 -1.3302
 5075TIP3   OH236715   1.243   2.418  13.699 -0.3982 -0.2648  0.5302
 5075TIP3    H136716   1.319   2.378  13.657 -0.0647  0.6186  0.2676
 5075TIP3    H236717   1.208   2.478  13.633 -1.5208 -0.8939  0.5378
 5076TIP3   OH236718   4.894   5.314   0.423  0.1629 -0.0925  0.4943
 5076TIP3    H136719   4.885   5.219   0.438  1.6671 -0.0580  1.7724
 5076TIP3    H236720   4.911   5.321   0.329 -1.2021 -0.9913  0.1620
 5077TIP3   OH236721   0.710   3.448  16.774  0.3717  0.4785 -0.6858
 5077TIP3    H136722   0.652   3.392  16.723 -0.6933  1.3366 -0.4546
 5077TIP3    H236723   0.796   3.409  16.765 -0.5403 -1.9073  0.4749
 5078TIP3   OH236724   4.383   6.347  11.693  0.3511  0.0237  0.0539
 5078TIP3    H136725   4.330   6.420  11.662  0.8757  0.9430  1.2529
 5078TIP3    H236726   4.362   6.275  11.635 -0.3079  1.0894 -1.0456
 5079TIP3   OH236727   2.493   3.476   1.786 -0.2416  0.2159  0.7025
 5079TIP3    H136728   2.406   3.515   1.776  0.7234  2.3186  0.2052
 5079TIP3    H236729   2.553   3.546   1.762  1.5640 -1.6648 -0.3672
 5080TIP3   OH236730   4.415   5.328   5.918  0.1166 -0.1673 -0.1926
 5080TIP3    H136731   4.436   5.379   5.996 -0.2699  0.9847 -0.8316
 5080TIP3    H236732   4.447   5.382   5.845  2.8817 -2.3897 -0.7376
 5081TIP3   OH236733   6.136   6.774   4.037  0.2437 -0.1658 -0.6035
 5081TIP3    H136734   6.123   6.849   4.096  0.9396  0.0509 -0.7190
 5081TIP3    H236735   6.133   6.698   4.094  0.0662 -0.0152 -0.4105
 5082TIP3   OH236736   0.814   4.839  13.892 -0.6217 -0.7936 -0.0783
 5082TIP3    H136737   0.777   4.912  13.942  1.1882  0.8011 -1.0078
 5082TIP3    H236738   0.743   4.776  13.885 -1.6590  0.0618  2.3398
 5083TIP3   OH236739   3.557   6.186  14.974 -0.0150 -0.1596 -0.3864
 5083TIP3    H136740   3.537   6.134  15.052 -0.3710  0.4071 -0.1011
 5083TIP3    H236741   3.642   6.226  14.993 -1.0627  1.6689  0.5992
 5084TIP3   OH236742   1.440   2.565  11.292  0.0628  0.2024 -0.1426
 5084TIP3    H136743   1.385   2.572  11.215 -0.0728 -0.7624 -0.1406
 5084TIP3    H236744   1.432   2.650  11.336 -2.1253 -0.2245  0.3283
 5085TIP3   OH236745   4.400   1.221   4.125 -0.0603 -0.0066 -0.4160
 5085TIP3    H136746   4.495   1.213   4.121  0.0189  0.7700 -0.2542
 5085TIP3    H236747   4.385   1.311   4.155 -0.8183 -0.6524  1.2161
 5086TIP3   OH236748   5.535   2.573   5.390 -0.0999 -0.3452 -0.0276
 5086TIP3    H136749   5.518   2.481   5.413  1.3852 -0.5867  0.1497
 5086TIP3    H236750   5.605   2.569   5.324  1.1402  0.7276  1.1929
 5087TIP3   OH236751   6.591   6.060   0.245  0.7460 -0.0312  0.1972
 5087TIP3    H136752   6.558   6.059   0.335  0.1433 -0.5282 -0.0227
 5087TIP3    H236753   6.681   6.028   0.252  1.3244  1.6916  0.8540
 5088TIP3   OH236754   1.935   2.638  15.593 -0.4037 -0.2831  0.5791
 5088TIP3    H136755   1.979   2.566  15.638  0.6646  0.4624  0.7307
 5088TIP3    H236756   2.004   2.683  15.546 -1.3167 -0.2546 -0.7538
 5089TIP3   OH236757   5.810   2.827   5.555 -0.1695  0.1325 -0.0456
 5089TIP3    H136758   5.874   2.828   5.626  0.9777  1.2523 -1.0859
 5089TIP3    H236759   5.782   2.918   5.547 -1.4487 -0.2441 -0.0195
 5090TIP3   OH236760   0.061   0.001  12.719  0.2630  0.4690  0.6017
 5090TIP3    H136761   0.021  -0.086  12.711  2.2824 -0.2873 -1.8889
 5090TIP3    H236762   0.145  -0.015  12.763  0.9279  1.0669 -0.4411
 5091TIP3   OH236763   0.631   1.844   6.118  0.0712 -0.5483  0.2901
 5091TIP3    H136764   0.660   1.759   6.150 -2.2830 -2.0884 -1.4699
 5091TIP3    H236765   0.543   1.855   6.156  0.1587  0.8849  0.1109
 5092TIP3   OH236766   4.375   6.482   0.245  0.2124 -0.3807 -0.5899
 5092TIP3    H136767   4.403   6.418   0.179 -0.5640  0.3773 -1.6790
 5092TIP3    H236768   4.287   6.507   0.217  0.6515  1.4553 -0.4059
 5093TIP3   OH236769   2.359   0.040  15.978 -0.1925 -0.1723  0.4545
 5093TIP3    H136770   2.265   0.022  15.981 -0.2040 -0.4085 -1.0637
 5093TIP3    H236771   2.399  -0.033  16.025 -0.8367  0.5835  2.2374
 5094TIP3   OH236772   1.001   5.412  14.365  0.1939 -0.0690 -0.0019
 5094TIP3    H136773   0.944   5.345  14.327 -0.2007  0.0231  0.4188
 5094TIP3    H236774   0.976   5.493  14.320  1.3513 -0.3581 -1.2236
 5095TIP3   OH236775   3.265   3.783   2.458  0.4531 -0.7225  0.0987
 5095TIP3    H136776   3.324   3.714   2.487  2.3110  1.3587  1.4636
 5095TIP3    H236777   3.191   3.778   2.518  2.2429  0.7205  2.5077
 5096TIP3   OH236778   4.951   4.976   6.062  0.8615 -0.0930  0.4337
 5096TIP3    H136779   4.919   5.066   6.075  1.2699 -0.2262  2.5428
 5096TIP3    H236780   5.046   4.987   6.051  0.9346 -0.2662  0.8726
 5097TIP3   OH236781   4.181   4.713  11.423  0.4935  0.3058  0.1421
 5097TIP3    H136782   4.225   4.765  11.355 -0.3922  0.6428 -0.1812
 5097TIP3    H236783   4.251   4.691  11.484  1.1939  0.5043 -0.5688
 5098TIP3   OH236784   0.062   2.532   1.588  0.0290  0.2697  0.0901
 5098TIP3    H136785   0.002   2.546   1.661 -1.0850  0.8699 -0.9306
 5098TIP3    H236786   0.005   2.519   1.512  1.1770  0.1327 -0.7603
 5099TIP3   OH236787   3.283   3.975  11.096 -0.1709 -0.0100  0.2937
 5099TIP3    H136788   3.354   3.962  11.034 -0.2824 -0.3224  0.2301
 5099TIP3    H236789   3.245   4.059  11.072 -0.5953 -0.4145 -0.4429
 5100TIP3   OH236790   5.714   4.922  16.683 -0.5185 -0.2983 -0.3747
 5100TIP3    H136791   5.754   4.894  16.601  2.5378 -1.6979  1.4785
 5100TIP3    H236792   5.786   4.960  16.733 -1.9079 -1.0737  2.3332
 5101TIP3   OH236793   0.053   4.754   3.693  0.2651  0.1117  0.1779
 5101TIP3    H136794   0.144   4.772   3.715 -0.1996  2.3856  0.3343
 5101TIP3    H236795   0.021   4.699   3.764  1.2584  0.0794  0.6041
 5102TIP3   OH236796   0.439   0.898   2.355  0.3859  0.2123 -0.2105
 5102TIP3    H136797   0.477   0.818   2.391  0.9087  1.3183  1.7884
 5102TIP3    H236798   0.393   0.870   2.277  3.1286 -1.5890 -1.2578
 5103TIP3   OH236799   4.415   2.246  15.605 -0.3118  0.4381 -0.3581
 5103TIP3    H136800   4.380   2.263  15.692  1.4075 -0.4347  0.5255
 5103TIP3    H236801   4.480   2.177  15.618  0.0384  0.3642 -2.3216
 5104TIP3   OH236802   3.717   6.788   0.830  0.0712  0.2737 -0.4222
 5104TIP3    H136803   3.664   6.761   0.905 -0.7309  2.6727 -0.0593
 5104TIP3    H236804   3.655   6.835   0.773  1.1845  0.5820 -1.4003
 5105TIP3   OH236805   1.316   3.410   1.514  0.3574  0.2720  0.4687
 5105TIP3    H136806   1.398   3.459   1.522  0.4501  0.1505  0.2680
 5105TIP3    H236807   1.248   3.477   1.515  0.4862  0.4056  0.1623
 5106TIP3   OH236808   0.463   1.228  11.571 -0.1277 -0.1040  0.4260
 5106TIP3    H136809   0.475   1.224  11.666  1.5642 -1.3506  0.1814
 5106TIP3    H236810   0.462   1.136  11.544 -0.5190  0.2530 -0.7721
 5107TIP3   OH236811   2.071   5.195  17.268  0.2061  0.0079  0.4498
 5107TIP3    H136812   2.129   5.155  17.203 -0.7452 -0.9316  0.1838
 5107TIP3    H236813   2.113   5.177  17.352 -0.2746 -1.6603  0.3433
 5108TIP3   OH236814   4.815   2.845  11.472  0.2096  0.5203  0.2217
 5108TIP3    H136815   4.905   2.874  11.458  0.5662 -1.2827 -1.5056
 5108TIP3    H236816   4.761   2.908  11.425  0.5853  1.4104  0.9755
 5109TIP3   OH236817   4.733   1.684  11.104 -0.0672 -0.4786 -0.1412
 5109TIP3    H136818   4.794   1.748  11.141 -1.5068 -0.4304  2.2850
 5109TIP3    H236819   4.757   1.601  11.146 -1.8743 -0.3794  1.1594
 5110TIP3   OH236820   0.111   6.147   1.719  0.0622  0.7149  0.5236
 5110TIP3    H136821   0.089   6.097   1.641  0.2582  2.2387 -0.5361
 5110TIP3    H236822   0.027   6.162   1.763 -0.3368  1.6398 -0.5167
 5111TIP3   OH236823   3.949   3.882  14.324  0.1878 -0.0275  0.2339
 5111TIP3    H136824   3.905   3.827  14.388  0.3112  2.1927  2.3237
 5111TIP3    H236825   4.042   3.874  14.345  0.2027  0.9881  0.5699
 5112TIP3   OH236826   0.193   0.383  14.862  0.3114  0.8492 -0.3976
 5112TIP3    H136827   0.241   0.440  14.923 -0.9169  1.4196  0.0441
 5112TIP3    H236828   0.157   0.314  14.918  0.2670  0.6526 -0.6693
 5113TIP3   OH236829   2.228   0.507  17.022 -0.1864  0.0878 -0.6324
 5113TIP3    H136830   2.245   0.434  16.963 -1.0654  1.0608 -2.1301
 5113TIP3    H236831   2.132   0.510  17.031 -0.1802  1.1720 -0.7655
 5114TIP3   OH236832   3.740   0.047   3.167 -0.3087  0.0792 -0.2955
 5114TIP3    H136833   3.680   0.075   3.237 -1.7107  1.5983 -2.0529
 5114TIP3    H236834   3.803   0.119   3.160  0.0521 -0.2426 -0.3258
 5115TIP3   OH236835   0.843   6.014   5.911 -0.4081 -0.4686  0.1233
 5115TIP3    H136836   0.888   6.038   5.992 -0.2679  1.9369 -0.6255
 5115TIP3    H236837   0.764   5.969   5.940  0.5851 -1.3544  1.5379
 5116TIP3   OH236838   3.665   6.075  15.249  0.1033 -0.2644  0.2327
 5116TIP3    H136839   3.638   6.004  15.307  0.7573  0.0028  0.8783
 5116TIP3    H236840   3.726   6.127  15.302 -0.6955  1.0230 -0.0791
 5117TIP3   OH236841   3.255   3.231   2.755 -0.5899  0.1688  0.5320
 5117TIP3    H136842   3.187   3.235   2.822 -0.0185 -2.8575  1.3470
 5117TIP3    H236843   3.337   3.226   2.804 -0.1065 -1.1698 -0.4023
 5118TIP3   OH236844   6.788   0.751  14.489  0.1112  0.0556 -0.1432
 5118TIP3    H136845   6.816   0.698  14.564  0.0180 -0.0747 -0.1982
 5118TIP3    H236846   6.866   0.760  14.435  0.3787  0.8484  0.3799
 5119TIP3   OH236847   1.669   0.753   2.652  0.4797 -0.0845  0.4727
 5119TIP3    H136848   1.575   0.752   2.668  0.3195  1.0687 -0.3745
 5119TIP3    H236849   1.691   0.661   2.637 -0.6935 -0.2436 -0.3316
 5120TIP3   OH236850   5.803   0.746  15.716 -0.0603 -0.6393  0.0431
 5120TIP3    H136851   5.752   0.671  15.746  1.5276 -1.2380  1.3706
 5120TIP3    H236852   5.739   0.807  15.681 -1.4712 -2.2237 -0.1919
 5121TIP3   OH236853   4.193   0.230  13.247  0.4247 -0.2083  0.8833
 5121TIP3    H136854   4.172   0.320  13.221 -1.6064 -0.8288  0.2308
 5121TIP3    H236855   4.115   0.201  13.295  0.9170 -1.7251  0.7923
 5122TIP3   OH236856   6.469   5.487   2.075 -0.3917 -0.3282 -0.0285
 5122TIP3    H136857   6.398   5.447   2.126  0.1312 -0.0212  0.9509
 5122TIP3    H236858   6.531   5.415   2.060 -0.5744 -0.4327 -0.2869
 5123TIP3   OH236859   3.673   4.460   4.714  0.1284  0.2396 -0.4469
 5123TIP3    H136860   3.668   4.532   4.652 -0.8883 -0.3870 -1.1105
 5123TIP3    H236861   3.588   4.416   4.706  0.9443 -1.3644 -0.4762
 5124TIP3   OH236862   4.977   4.879  15.731 -0.3903  0.0742  0.0682
 5124TIP3    H136863   5.049   4.821  15.756 -1.2626 -0.9523  0.2443
 5124TIP3    H236864   5.019   4.954  15.689  0.7199 -0.9410 -0.6439
 5125TIP3   OH236865   6.289   0.974   5.637 -0.2449  0.6220  0.4834
 5125TIP3    H136866   6.377   0.989   5.672  0.3725 -0.3533 -0.6042
 5125TIP3    H236867   6.287   1.022   5.554  1.2018 -3.6878 -2.2297
 5126TIP3   OH236868   4.900   3.820  11.165  0.0793 -0.1134  0.1350
 5126TIP3    H136869   4.969   3.886  11.160  1.4383 -1.2673  2.6234
 5126TIP3    H236870   4.820   3.870  11.174  0.8900  1.2219  0.0941
 5127TIP3   OH236871   6.328   4.859  15.026  0.4067  0.0195  0.9937
 5127TIP3    H136872   6.357   4.900  14.945  0.9267 -1.5545  0.3709
 5127TIP3    H236873   6.248   4.812  15.002 -1.2339  2.1255  2.1131
 5128TIP3   OH236874   4.013   3.102  13.736 -0.4032 -0.5655 -0.7013
 5128TIP3    H136875   3.922   3.100  13.765 -0.4859 -1.4028 -1.0004
 5128TIP3    H236876   4.057   3.160  13.798 -1.4648  1.1570 -1.5189
 5129TIP3   OH236877   0.359   6.424  13.094 -0.0871 -0.3445  0.3278
 5129TIP3    H136878   0.289   6.365  13.121  1.5844 -2.1971  0.7832
 5129TIP3    H236879   0.339   6.445  13.003 -0.2837 -2.3078 -0.1028
 5130TIP3   OH236880   3.682   6.168   3.826  0.0178 -0.1534  0.1153
 5130TIP3    H136881   3.728   6.126   3.753 -0.4322 -1.4883  0.5883
 5130TIP3    H236882   3.703   6.114   3.902  0.7877  1.4421  1.0716
 5131TIP3   OH236883   2.324   2.683   2.761  0.0278  0.7113 -0.3243
 5131TIP3    H136884   2.292   2.771   2.740 -0.8120 -0.2929 -3.6207
 5131TIP3    H236885   2.248   2.627   2.747  1.3167 -0.8548 -1.1155
 5132TIP3   OH236886   4.980   5.715   5.962  0.2553 -0.1502 -0.4329
 5132TIP3    H136887   4.912   5.670   6.013 -1.6005  1.2729 -1.5812
 5132TIP3    H236888   4.937   5.739   5.880  2.2714  0.4556 -1.3512
 5133TIP3   OH236889   1.322   4.475   0.221 -0.6973  0.1055  0.2808
 5133TIP3    H136890   1.267   4.511   0.151 -2.2665 -2.1233  0.3313
 5133TIP3    H236891   1.394   4.431   0.176 -1.3535 -0.7691  0.0939
 5134TIP3   OH236892   5.150   5.952   0.646  0.4394  0.1909  0.5951
 5134TIP3    H136893   5.224   6.006   0.620  0.7622 -0.9300 -0.9514
 5134TIP3    H236894   5.136   5.972   0.738  2.1168  1.0617  0.6804
 5135TIP3   OH236895   4.198   3.035   2.188 -0.2157 -0.2136 -0.4528
 5135TIP3    H136896   4.181   2.958   2.242  1.3506 -0.8685 -0.8801
 5135TIP3    H236897   4.262   3.006   2.124 -4.0994 -0.2395 -4.5405
 5136TIP3   OH236898   0.159   5.235  11.717 -0.0989  0.5633  0.2313
 5136TIP3    H136899   0.248   5.202  11.706  0.1612  1.2777  0.1442
 5136TIP3    H236900   0.103   5.158  11.704  0.4476  0.3631 -1.0334
 5137TIP3   OH236901   2.722   3.779  12.907 -0.2571 -0.1258 -0.1803
 5137TIP3    H136902   2.725   3.684  12.918 -1.9405 -0.0387  1.1892
 5137TIP3    H236903   2.635   3.797  12.871 -0.2064  0.9616  0.2174
 5138TIP3   OH236904   0.057   4.326  15.408  0.1455  0.3196  0.2043
 5138TIP3    H136905   0.085   4.406  15.364  0.0471 -0.3952 -1.1953
 5138TIP3    H236906   0.134   4.270  15.407 -0.7113 -0.9147 -1.9520
 5139TIP3   OH236907   1.418   5.283   5.842 -0.0886  0.4007 -0.4406
 5139TIP3    H136908   1.417   5.208   5.902  3.1160  0.5565 -0.1279
 5139TIP3    H236909   1.459   5.249   5.762  0.0862  1.4608 -0.7982
 5140TIP3   OH236910   0.748   0.703  12.991  0.5376 -0.1873 -0.4390
 5140TIP3    H136911   0.670   0.648  13.000  1.1122 -1.1062 -1.0306
 5140TIP3    H236912   0.726   0.762  12.919  0.1141  0.0378 -0.1325
 5141TIP3   OH236913   4.262   5.912  13.576 -0.2061  0.3467  0.7316
 5141TIP3    H136914   4.341   5.963  13.592  1.6800 -2.1486 -0.2638
 5141TIP3    H236915   4.251   5.859  13.655 -0.7729  0.5434  0.7863
 5142TIP3   OH236916   1.512   2.306  11.255 -0.2205  0.2427  0.0725
 5142TIP3    H136917   1.489   2.386  11.302  2.1640  0.3590  1.0965
 5142TIP3    H236918   1.540   2.336  11.168 -3.1833  0.1467 -0.9735
 5143TIP3   OH236919   5.112   1.550   4.404 -0.0381  0.6940  0.2784
 5143TIP3    H136920   5.046   1.550   4.473 -1.5036 -0.1758 -1.0710
 5143TIP3    H236921   5.061   1.548   4.323  1.6513 -1.8492 -0.7836
 5144TIP3   OH236922   4.155   0.943  12.816 -0.0872 -0.1108 -0.0212
 5144TIP3    H136923   4.087   0.923  12.881 -0.5513 -1.4500 -0.8977
 5144TIP3    H236924   4.192   1.026  12.845 -0.8240 -0.3015  1.5210
 5145TIP3   OH236925   1.196   0.543   5.455  0.2540  0.5100  0.6017
 5145TIP3    H136926   1.200   0.631   5.418  1.7839  0.9117  1.6966
 5145TIP3    H236927   1.103   0.530   5.475 -0.1379  1.4669 -0.5222
 5146TIP3   OH236928   4.183   1.207  12.943  0.1582  0.4256 -0.1111
 5146TIP3    H136929   4.216   1.198  13.033 -3.2216  1.9310  1.3486
 5146TIP3    H236930   4.206   1.297  12.919  0.7982  0.1173 -0.6608
 5147TIP3   OH236931   4.846   3.877   4.408  0.0744  0.6589  0.2009
 5147TIP3    H136932   4.887   3.855   4.325  0.2823  0.9323  0.2319
 5147TIP3    H236933   4.768   3.926   4.384  0.9247  2.0343  0.2152
 5148TIP3   OH236934   3.848   3.026   1.976  0.5095  0.1055  0.8477
 5148TIP3    H136935   3.906   3.097   1.949 -0.6896  0.7694  0.0116
 5148TIP3    H236936   3.793   3.064   2.044 -1.3264  0.5012 -0.8249
 5149TIP3   OH236937   2.351   4.162   3.613  0.6160 -0.4078  0.0691
 5149TIP3    H136938   2.267   4.147   3.656  0.8583 -0.4722  0.5264
 5149TIP3    H236939   2.346   4.253   3.582  0.2187 -0.5480 -0.2746
 5150TIP3   OH236940   6.337   3.882  12.685 -0.0009  0.2976  0.3287
 5150TIP3    H136941   6.305   3.907  12.771  0.5811 -1.1027  0.9681
 5150TIP3    H236942   6.426   3.917  12.682  0.1380 -0.0426  0.4725
 5151TIP3   OH236943   3.720   1.378  14.376 -0.0814 -0.5715  0.2436
 5151TIP3    H136944   3.647   1.352  14.433 -0.9384  0.6402 -0.3019
 5151TIP3    H236945   3.688   1.453  14.327  1.2021 -0.6286 -0.7210
 5152TIP3   OH236946   6.318   1.355   5.108  0.2808 -0.4375 -0.3996
 5152TIP3    H136947   6.319   1.286   5.042  2.0866  0.9641 -1.8839
 5152TIP3    H236948   6.410   1.378   5.120 -0.1693  0.5868  1.2946
 5153TIP3   OH236949   4.926   1.002  14.736 -0.4035  0.8932 -0.7544
 5153TIP3    H136950   4.888   0.914  14.734 -1.6346  1.3244  1.7188
 5153TIP3    H236951   4.851   1.061  14.725 -0.3943  1.7404  3.1505
 5154TIP3   OH236952   2.726   3.581   2.379 -0.0234  0.4073 -0.5719
 5154TIP3    H136953   2.811   3.625   2.383 -0.6133  1.5072  0.0099
 5154TIP3    H236954   2.690   3.606   2.294 -0.5886  1.4889 -0.0198
 5155TIP3   OH236955   3.721   5.944   1.702  0.2173  0.2754  0.4142
 5155TIP3    H136956   3.784   5.949   1.774 -0.1629  1.6033  0.6587
 5155TIP3    H236957   3.677   6.028   1.702 -0.9479 -0.3186 -0.3334
 5156TIP3   OH236958   2.937   1.826  12.984  0.7715 -0.2672  0.6553
 5156TIP3    H136959   2.886   1.829  13.066 -1.0606 -2.4721 -0.3602
 5156TIP3    H236960   2.885   1.880  12.923  0.9340 -0.5228  0.2940
 5157TIP3   OH236961   6.673   2.734  14.205  0.0002  0.3648 -0.2743
 5157TIP3    H136962   6.695   2.825  14.226 -2.6738  1.1225 -0.5164
 5157TIP3    H236963   6.685   2.687  14.287 -0.6234  1.3614  0.4056
 5158TIP3   OH236964   3.777   0.999   0.514 -0.8820  0.2972  0.6617
 5158TIP3    H136965   3.766   0.942   0.590 -3.3981 -0.3177 -0.1186
 5158TIP3    H236966   3.806   0.940   0.444 -0.1976  0.5780  0.7028
 5159TIP3   OH236967   6.094   5.171  12.712  0.6162 -0.0094 -0.1571
 5159TIP3    H136968   6.081   5.102  12.647 -1.0348  0.9289 -0.8488
 5159TIP3    H236969   6.045   5.246  12.678  2.6045  1.6205  0.4292
 5160TIP3   OH236970   4.849   2.381  12.975 -0.2519 -0.2921  0.1074
 5160TIP3    H136971   4.940   2.355  12.992 -0.5038 -0.8915  0.5759
 5160TIP3    H236972   4.838   2.370  12.881  0.0307 -0.6514  0.1131
 5161TIP3   OH236973   2.584   6.124  10.590  0.7671  0.5979 -0.1832
 5161TIP3    H136974   2.510   6.158  10.540  1.2765 -1.2887 -2.3138
 5161TIP3    H236975   2.660   6.168  10.554  0.7442  2.3384  1.8247
 5162TIP3   OH236976   4.619   1.494  17.271 -0.2723 -0.6321 -0.1984
 5162TIP3    H136977   4.687   1.440  17.231  1.9552  0.1979  2.2972
 5162TIP3    H236978   4.563   1.432  17.318  1.1064 -0.9982  1.0012
 5163TIP3   OH236979   2.156   2.019   3.884 -0.0734  0.0108  0.0797
 5163TIP3    H136980   2.155   2.012   3.789 -0.9088  0.8690  0.0235
 5163TIP3    H236981   2.168   1.929   3.915 -1.5921 -0.4989 -0.7989
 5164TIP3   OH236982   0.506   4.790  14.804  0.1932  0.2223 -0.3410
 5164TIP3    H136983   0.443   4.721  14.785 -1.8464  1.4299  1.7297
 5164TIP3    H236984   0.564   4.752  14.871  1.2278 -0.6158 -1.6818
 5165TIP3   OH236985   4.964   4.494  15.377  0.3102 -0.5109 -0.3217
 5165TIP3    H136986   4.907   4.478  15.302  1.0912  1.2882 -1.3448
 5165TIP3    H236987   4.986   4.587  15.370  3.4396 -1.1875 -0.0048
 5166TIP3   OH236988   0.936   2.982  15.877 -0.0842 -0.2450  0.1865
 5166TIP3    H136989   0.955   3.009  15.967 -0.9489 -1.1749  0.6625
 5166TIP3    H236990   0.910   3.063  15.833  1.3521  0.3999  0.4888
 5167TIP3   OH236991   3.447   0.142   5.468  0.2413 -0.1125  0.3758
 5167TIP3    H136992   3.422   0.225   5.507 -0.7408  1.0248 -2.5441
 5167TIP3    H236993   3.411   0.076   5.528 -2.2690  1.5497  0.7826
 5168TIP3   OH236994   0.070   5.234  10.898 -0.2629 -0.8492  0.1329
 5168TIP3    H136995  -0.012   5.219  10.849  0.9228  0.1407 -2.2474
 5168TIP3    H236996   0.083   5.329  10.894  0.4243 -0.8756  1.5124
 5169TIP3   OH236997   5.848   4.573   5.986 -0.4150 -0.4110 -0.8883
 5169TIP3    H136998   5.881   4.556   6.074  0.0803  0.6198 -0.8696
 5169TIP3    H236999   5.766   4.621   5.999  0.0443  0.4166 -0.9881
 5170TIP3   OH237000   4.056   3.294   5.588 -0.2036  0.1300  0.4048
 5170TIP3    H137001   4.139   3.340   5.596 -0.9989  1.6973 -0.0523
 5170TIP3    H237002   3.992   3.352   5.630 -1.4527  0.0937 -1.3629
 5171TIP3   OH237003   4.579   3.884  10.724 -0.4622  0.3144  0.3967
 5171TIP3    H137004   4.511   3.952  10.726 -0.0265  0.7570  0.2361
 5171TIP3    H237005   4.624   3.898  10.640 -2.2567 -2.0296 -1.0123
 5172TIP3   OH237006   3.008   3.544   2.042  0.7221 -0.1308 -0.4495
 5172TIP3    H137007   3.095   3.533   2.080  0.1182  1.1753  1.4128
 5172TIP3    H237008   2.996   3.638   2.036  0.0323 -0.3087 -2.1672
 5173TIP3   OH237009   6.804   1.091   0.214 -0.1245 -0.2425  0.1419
 5173TIP3    H137010   6.893   1.096   0.180  0.0855  1.3411  0.8738
 5173TIP3    H237011   6.802   1.010   0.266  0.3386 -1.2289 -1.3405
 5174TIP3   OH237012   2.082   5.282   3.495 -0.4581  0.1302 -0.0745
 5174TIP3    H137013   2.154   5.343   3.481  1.2179 -1.5328  1.0018
 5174TIP3    H237014   2.003   5.336   3.494  0.8007  1.9796 -1.3241
 5175TIP3   OH237015   2.018   2.425   0.065 -0.4138  0.1705  0.6352
 5175TIP3    H137016   1.924   2.447   0.059 -0.3972  0.0786 -0.0260
 5175TIP3    H237017   2.022   2.354   0.128 -0.8057  0.1104  0.5953
 5176TIP3   OH237018   0.993   6.303   4.656  0.5436  0.4571 -0.1617
 5176TIP3    H137019   1.042   6.285   4.575  0.5274  2.3652 -0.6191
 5176TIP3    H237020   0.907   6.265   4.641  1.3763 -1.5377  0.0169
 5177TIP3   OH237021   5.659   4.569   2.977  0.2795 -0.2747  0.0512
 5177TIP3    H137022   5.656   4.660   3.008 -0.9234  0.1813 -1.3570
 5177TIP3    H237023   5.752   4.552   2.963  0.3653  1.3937 -1.5240
 5178TIP3   OH237024   5.916   3.944  15.912  0.1065  0.1684  0.0741
 5178TIP3    H137025   5.965   3.880  15.963 -0.2791  0.1293  0.3928
 5178TIP3    H237026   5.824   3.931  15.937 -0.1445 -0.1890 -0.9847
 5179TIP3   OH237027   5.507   6.766  15.071  0.2728 -0.4327  0.1278
 5179TIP3    H137028   5.577   6.749  15.007 -0.5727  0.3179 -0.9957
 5179TIP3    H237029   5.523   6.855  15.101 -1.3953  0.5113 -1.6705
 5180TIP3   OH237030   1.387   4.211   2.914 -0.3194 -0.7000  0.3839
 5180TIP3    H137031   1.481   4.197   2.921 -0.3340 -0.2553  1.6909
 5180TIP3    H237032   1.356   4.206   3.004 -0.9099  3.5046  0.5251
 5181TIP3   OH237033   1.940   4.009   1.585  0.5440  0.1428 -0.4990
 5181TIP3    H137034   1.876   4.079   1.575  1.0365  0.5380 -0.9293
 5181TIP3    H237035   2.013   4.050   1.633 -0.4808 -0.9157  2.0630
 5182TIP3   OH237036   2.734   4.836  16.378 -0.1575  0.1586  0.0313
 5182TIP3    H137037   2.726   4.850  16.283 -2.1275 -1.0564 -0.0077
 5182TIP3    H237038   2.683   4.907  16.416 -0.6380 -0.2519  0.1463
 5183TIP3   OH237039   0.514   1.870  16.399  0.0012  0.2283  0.0038
 5183TIP3    H137040   0.462   1.925  16.340  0.1131  0.6429  0.2910
 5183TIP3    H237041   0.469   1.785  16.398 -1.5499  1.0095  1.4046
 5184TIP3   OH237042   1.061   4.347   2.823  0.1207 -0.1178  0.1796
 5184TIP3    H137043   1.092   4.308   2.741  1.8753  1.4591  0.0541
 5184TIP3    H237044   0.969   4.366   2.806 -0.0382 -1.5670 -0.7386
 5185TIP3   OH237045   6.256   5.791  16.909 -0.3077  0.6231 -0.0742
 5185TIP3    H137046   6.205   5.750  16.979  2.4817 -3.3816 -0.2255
 5185TIP3    H237047   6.230   5.744  16.830  0.8625  1.1076 -0.7580
 5186TIP3   OH237048   3.161   4.366  11.225  0.0473 -0.1452  0.7641
 5186TIP3    H137049   3.071   4.398  11.217 -0.9147 -2.5850  1.3528
 5186TIP3    H237050   3.176   4.316  11.145  1.4087  1.3591  0.0314
 5187TIP3   OH237051   6.029   5.872   5.459 -0.5377  0.2284  0.0167
 5187TIP3    H137052   6.051   5.795   5.511  2.4405  0.5112 -0.6799
 5187TIP3    H237053   5.949   5.907   5.498 -0.7995 -2.0601  1.5914
 5188TIP3   OH237054   6.272   2.493  13.184  0.2679  0.4343 -0.5073
 5188TIP3    H137055   6.361   2.465  13.161  0.1182 -0.4460 -0.0155
 5188TIP3    H237056   6.227   2.499  13.100 -0.4790 -3.4770 -0.4899
 5189TIP3   OH237057   0.846   4.598  16.295  0.0417  0.2257  0.3131
 5189TIP3    H137058   0.847   4.575  16.388 -1.1459  0.5221  0.4101
 5189TIP3    H237059   0.807   4.522  16.252  2.1385 -0.6258 -0.1704
 5190TIP3   OH237060   2.890   3.922  13.712 -0.3795 -0.5084  0.1183
 5190TIP3    H137061   2.841   4.001  13.735 -0.6964 -0.7058  0.1229
 5190TIP3    H237062   2.882   3.916  13.617  0.2201 -0.1591  0.0426
 5191TIP3   OH237063   2.746   1.990   5.064 -0.5886  0.0807  0.6862
 5191TIP3    H137064   2.810   1.919   5.064 -0.2521  0.3726  1.2777
 5191TIP3    H237065   2.690   1.973   4.988 -1.2008 -1.4191  1.4558
 5192TIP3   OH237066   6.311   3.740   0.634 -0.0614 -0.5710 -0.0575
 5192TIP3    H137067   6.385   3.761   0.691  1.1726 -0.2992 -1.7080
 5192TIP3    H237068   6.331   3.786   0.552 -2.4837  0.1779 -0.2530
 5193TIP3   OH237069   1.967   0.121   1.442  0.2516 -0.2175 -0.1020
 5193TIP3    H137070   1.938   0.070   1.366  0.7461 -0.5411 -0.0787
 5193TIP3    H237071   1.974   0.057   1.513 -1.7094  0.3475  0.6344
 5194TIP3   OH237072   1.868   6.291   4.844  0.4232  0.1743  0.0524
 5194TIP3    H137073   1.928   6.318   4.774  2.5556 -0.4159  1.6095
 5194TIP3    H237074   1.904   6.330   4.923 -1.4508  0.0675  0.9761
 5195TIP3   OH237075   5.618   2.953   3.996 -0.5021 -0.1627  0.3297
 5195TIP3    H137076   5.553   2.883   3.993 -1.3675  0.6103  1.0173
 5195TIP3    H237077   5.579   3.025   3.946 -0.1991  0.3200  0.7778
 5196TIP3   OH237078   2.820   2.729  16.914 -0.2564  0.0543  0.4472
 5196TIP3    H137079   2.853   2.808  16.872  0.3758 -0.3718  0.1354
 5196TIP3    H237080   2.840   2.741  17.007  0.8593 -0.2336  0.2531
 5197TIP3   OH237081   0.189   0.541  13.385  0.0226  0.6144 -0.1110
 5197TIP3    H137082   0.279   0.508  13.389 -0.3316 -0.3191  0.1579
 5197TIP3    H237083   0.146   0.505  13.462 -0.5119  1.2980 -0.0767
 5198TIP3   OH237084   3.309   6.182  15.431  0.3830  0.6745  0.2897
 5198TIP3    H137085   3.247   6.124  15.476  1.5219 -0.2827  0.6405
 5198TIP3    H237086   3.303   6.155  15.339  0.8021  0.0787  0.4304
 5199TIP3   OH237087   5.351   2.597   0.491  0.1512 -0.3898 -0.3898
 5199TIP3    H137088   5.322   2.511   0.459  0.3961 -0.2963 -0.8562
 5199TIP3    H237089   5.272   2.650   0.490  0.5228  0.1438 -2.5810
 5200TIP3   OH237090   5.565   1.922   3.845 -0.0715 -0.4887 -0.0211
 5200TIP3    H137091   5.651   1.926   3.886 -0.2936  0.4233  0.3752
 5200TIP3    H237092   5.579   1.872   3.765  0.2444 -2.7344  1.4158
 5201TIP3   OH237093   6.366   0.655  16.160 -0.3892  0.2224 -0.9752
 5201TIP3    H137094   6.357   0.676  16.067  0.1458 -0.6268 -1.2307
 5201TIP3    H237095   6.348   0.561  16.165  1.8024 -0.1993 -0.5673
 5202TIP3   OH237096   5.128   4.709   3.535  0.4538  0.5560  0.3706
 5202TIP3    H137097   5.170   4.656   3.603 -0.8941 -1.2884 -0.1770
 5202TIP3    H237098   5.050   4.745   3.577  1.0703  1.6768  0.5753
 5203TIP3   OH237099   2.840   5.497   1.992 -0.0113 -0.1422  0.5212
 5203TIP3    H137100   2.753   5.459   1.997 -0.0903 -0.1583 -0.8178
 5203TIP3    H237101   2.894   5.443   2.049 -0.4516 -1.3432 -0.1927
 5204TIP3   OH237102   4.325   3.788   3.813  0.1000  0.2843 -0.8086
 5204TIP3    H137103   4.264   3.719   3.839  1.1090  0.0073  0.9206
 5204TIP3    H237104   4.302   3.807   3.722 -0.1523 -2.3824 -1.3593
 5205TIP3   OH237105   6.550   5.771  14.554 -0.2678  0.3033 -0.1482
 5205TIP3    H137106   6.548   5.763  14.649  0.4644 -0.7734 -0.2158
 5205TIP3    H237107   6.610   5.702  14.525  0.1506  1.1398 -1.3317
 5206TIP3   OH237108   0.499   4.273   5.452 -0.2274  0.3274  0.5066
 5206TIP3    H137109   0.529   4.267   5.543 -2.7195 -1.3653  1.2571
 5206TIP3    H237110   0.560   4.219   5.403  0.2581  0.0528  1.3981
 5207TIP3   OH237111   6.088   4.819   1.133 -0.2561 -0.1315 -0.4193
 5207TIP3    H137112   6.057   4.853   1.049 -1.1776 -0.6617 -0.2999
 5207TIP3    H237113   6.136   4.892   1.172 -1.4140  0.7294 -0.5893
 5208TIP3   OH237114   4.478   2.166   1.225 -0.2103 -0.8159  0.0235
 5208TIP3    H137115   4.458   2.187   1.134 -0.4930  0.2380  0.3143
 5208TIP3    H237116   4.572   2.149   1.227  0.0731  0.6443 -0.2084
 5209TIP3   OH237117   1.512   4.777  16.890  0.5828  0.2372  0.2826
 5209TIP3    H137118   1.491   4.717  16.818 -0.1912  0.5166  0.2680
 5209TIP3    H237119   1.517   4.721  16.968  2.7647 -0.2734 -0.1760
 5210TIP3   OH237120   3.411   1.129   3.519 -0.3113 -0.3595 -0.2848
 5210TIP3    H137121   3.478   1.118   3.452  0.5006 -2.3383  0.8263
 5210TIP3    H237122   3.395   1.223   3.521  2.5315  0.1732 -0.4651
 5211TIP3   OH237123   5.100   4.588  12.191 -0.2421 -0.1648  0.0533
 5211TIP3    H137124   5.112   4.506  12.143 -0.9821  0.4793 -1.2614
 5211TIP3    H237125   5.186   4.630  12.188  0.1251 -0.8589  0.6793
 5212TIP3   OH237126   1.601   4.071  15.980 -0.1352 -0.5127 -0.2083
 5212TIP3    H137127   1.656   4.080  16.058 -0.5296  1.2006 -0.1070
 5212TIP3    H237128   1.599   3.977  15.962  1.7757 -0.7109  0.5375
 5213TIP3   OH237129   0.624   5.849   4.075 -0.2575 -0.9728  0.1505
 5213TIP3    H137130   0.631   5.756   4.095  1.0962 -1.2205 -1.3348
 5213TIP3    H237131   0.715   5.879   4.067 -0.6850 -0.0906 -1.8088
 5214TIP3   OH237132   3.266   3.621   5.484  0.3945  1.1007 -0.0481
 5214TIP3    H137133   3.208   3.649   5.413 -0.9949  1.5539  1.2449
 5214TIP3    H237134   3.283   3.701   5.534  0.5890  0.6004  0.6903
 5215TIP3   OH237135   4.994   6.071  14.433  0.2424  0.4177  0.6420
 5215TIP3    H137136   4.950   6.143  14.479 -3.2149  0.1259 -1.9224
 5215TIP3    H237137   4.955   5.992  14.469 -0.8522  0.1230 -1.1018
 5216TIP3   OH237138   0.343   0.502   3.139 -0.3310  0.1007  0.4337
 5216TIP3    H137139   0.311   0.590   3.160 -0.0489  0.3625 -0.2385
 5216TIP3    H237140   0.275   0.443   3.172 -1.5424  0.6586 -1.0185
 5217TIP3   OH237141   5.572   0.046  12.925  0.1707  0.0306  0.6712
 5217TIP3    H137142   5.567   0.046  12.829  3.2045  3.1354  0.4269
 5217TIP3    H237143   5.644  -0.014  12.945 -0.4504 -0.6004  1.0548
 5218TIP3   OH237144   5.282   3.219  14.383 -1.1398  0.0857 -0.3453
 5218TIP3    H137145   5.371   3.229  14.418 -1.1261 -0.4996 -0.2142
 5218TIP3    H237146   5.226   3.243  14.457 -1.0868  1.9061 -0.8671
 5219TIP3   OH237147   1.580   3.860   1.539 -0.0846  0.6055 -0.0270
 5219TIP3    H137148   1.665   3.826   1.569 -0.6058 -0.4095  0.3511
 5219TIP3    H237149   1.601   3.943   1.497  1.2274 -0.1261 -0.8727
 5220TIP3   OH237150   6.106   1.730   1.138  0.3543  0.0274  0.2228
 5220TIP3    H137151   6.080   1.766   1.054  1.9739 -1.0006 -0.7366
 5220TIP3    H237152   6.193   1.764   1.154  0.8786 -1.3929  0.5146
 5221TIP3   OH237153   0.781   0.033   3.766 -0.1266 -0.9095 -0.1919
 5221TIP3    H137154   0.865  -0.010   3.750 -0.1787 -1.8729  1.9123
 5221TIP3    H237155   0.717  -0.038   3.767 -0.6524 -0.4329  0.3174
 5222TIP3   OH237156   2.605   0.377  16.947  0.2189  0.3557  0.7784
 5222TIP3    H137157   2.545   0.430  16.999 -1.2910 -0.2797 -0.2629
 5222TIP3    H237158   2.686   0.427  16.945 -0.6325  1.7823  1.2787
 5223TIP3   OH237159   5.711   1.787  16.049  0.0207 -0.1152 -0.0517
 5223TIP3    H137160   5.791   1.745  16.082  1.2040  0.9575 -1.5092
 5223TIP3    H237161   5.671   1.721  15.993  0.4452 -0.2639 -0.1806
 5224TIP3   OH237162   4.817   6.810  16.404  1.0637  0.0475 -0.1474
 5224TIP3    H137163   4.834   6.895  16.445  0.7839 -0.9141  2.0593
 5224TIP3    H237164   4.877   6.807  16.329  2.1266  1.5839  0.6148
 5225TIP3   OH237165   2.798   4.342   2.683 -0.7098 -0.6889  0.9419
 5225TIP3    H137166   2.799   4.247   2.673 -0.7343 -0.6558  0.6402
 5225TIP3    H237167   2.720   4.360   2.735  0.1242 -0.9714  2.3395
 5226TIP3   OH237168   3.550   2.235   3.926  0.3574  0.3923  0.1076
 5226TIP3    H137169   3.462   2.201   3.914  0.2164  1.2310 -1.3334
 5226TIP3    H237170   3.590   2.175   3.990 -0.9693 -0.4693  0.1567
 5227TIP3   OH237171   1.517   2.182  12.530  0.1975 -0.4054  0.2385
 5227TIP3    H137172   1.498   2.231  12.451  0.1690 -1.3093 -0.3267
 5227TIP3    H237173   1.613   2.178  12.535  0.2074 -1.7454 -0.6514
 5228TIP3   OH237174   5.927   0.684  13.125  0.1724  0.0978 -0.1581
 5228TIP3    H137175   5.855   0.714  13.180  2.1209  2.6277  1.0959
 5228TIP3    H237176   5.999   0.742  13.146  2.0941 -1.2888 -2.6635
 5229TIP3   OH237177   2.066   1.694  15.389  0.3157  0.8700 -0.2991
 5229TIP3    H137178   2.152   1.684  15.431  0.0066 -1.4840 -0.1561
 5229TIP3    H237179   2.023   1.763  15.439  1.7113  1.3433  0.2917
 5230TIP3   OH237180   1.840   5.516  13.725  0.0509  0.7217 -0.0408
 5230TIP3    H137181   1.892   5.578  13.776 -0.6191  0.9519  0.3772
 5230TIP3    H237182   1.832   5.439  13.782 -0.6932  0.9767  0.2143
 5231TIP3   OH237183   1.552   0.216   1.355 -0.2233  0.0117 -0.1543
 5231TIP3    H137184   1.510   0.130   1.365  1.8461 -0.8897  0.9566
 5231TIP3    H237185   1.530   0.243   1.266  0.3777 -2.3811 -1.0519
 5232TIP3   OH237186   5.078   6.043   1.340 -0.2640 -0.6861 -0.5044
 5232TIP3    H137187   5.132   5.981   1.291  1.0823  0.1828 -0.1693
 5232TIP3    H237188   5.049   5.994   1.417  0.5730 -0.9849 -0.3737
 5233TIP3   OH237189   2.108   4.534   0.833  0.7269  0.3958  0.5228
 5233TIP3    H137190   2.039   4.552   0.769  0.1470  1.0193  1.3125
 5233TIP3    H237191   2.134   4.444   0.815 -0.7162 -0.0565  0.5946
 5234TIP3   OH237192   2.717   6.723  13.932 -0.2941  0.8123 -0.1537
 5234TIP3    H137193   2.801   6.696  13.970 -1.1181 -0.5222  0.7639
 5234TIP3    H237194   2.707   6.814  13.960  0.6677  0.8602  0.0570
 5235TIP3   OH237195   4.295   2.694  11.468 -0.8197  0.4447 -0.8352
 5235TIP3    H137196   4.325   2.722  11.555  0.0880 -1.1453 -0.6213
 5235TIP3    H237197   4.368   2.716  11.409 -1.5867  1.8685 -1.2666
 5236TIP3   OH237198   1.485   2.082   3.889 -0.1393 -0.0269 -0.3946
 5236TIP3    H137199   1.397   2.050   3.868  0.0846 -0.9426  0.0389
 5236TIP3    H237200   1.477   2.177   3.884 -2.0260  0.0896  2.8436
 5237TIP3   OH237201   5.492   1.703   5.312 -0.3614 -0.1374  0.0419
 5237TIP3    H137202   5.490   1.762   5.237  0.4046  2.4888  1.9906
 5237TIP3    H237203   5.584   1.701   5.338 -0.2374 -2.8320 -0.4076
 5238TIP3   OH237204   4.546   4.102   6.037  0.2767 -0.6326 -0.1100
 5238TIP3    H137205   4.546   4.006   6.039 -0.4359 -0.6390  2.7152
 5238TIP3    H237206   4.488   4.127   6.109 -2.3877  1.9364 -3.0082
 5239TIP3   OH237207   3.010   3.267   2.368  0.0085 -0.5374  0.0694
 5239TIP3    H137208   2.964   3.280   2.284 -0.8973 -2.8979  0.1540
 5239TIP3    H237209   3.076   3.200   2.349 -0.1142 -0.9943  1.2114
 5240TIP3   OH237210   5.378   4.610  13.880 -0.3730  1.1699  0.2673
 5240TIP3    H137211   5.319   4.563  13.821  0.6854  1.5200 -1.0799
 5240TIP3    H237212   5.371   4.563  13.963 -0.2216 -0.6417 -0.7286
 5241TIP3   OH237213   3.619   2.611   2.459  0.5584 -0.0816 -0.2967
 5241TIP3    H137214   3.583   2.547   2.398 -1.6266  0.7831  0.0422
 5241TIP3    H237215   3.688   2.655   2.410 -1.1007  0.5438 -2.1433
 5242TIP3   OH237216   1.294   0.442   2.083  0.2172  0.6184  0.0607
 5242TIP3    H137217   1.300   0.411   1.993  0.6290  0.4522  0.1421
 5242TIP3    H237218   1.350   0.521   2.085  2.2392 -0.7801  0.7663
 5243TIP3   OH237219   5.020   6.390   0.476  0.4981 -0.2394  0.2565
 5243TIP3    H137220   5.082   6.386   0.403  0.1059  1.9384 -0.2280
 5243TIP3    H237221   4.955   6.323   0.457  1.1316 -0.5768 -0.7210
 5244TIP3   OH237222   1.721   3.731   0.457 -0.0563 -0.1314  0.6311
 5244TIP3    H137223   1.631   3.750   0.483  0.0448  1.9558 -0.4456
 5244TIP3    H237224   1.746   3.805   0.402  1.8681 -1.3468 -0.1836
 5245TIP3   OH237225   2.650   3.335  15.049  0.1267 -0.2068 -0.0328
 5245TIP3    H137226   2.589   3.373  14.985 -0.7732 -1.0592  0.3062
 5245TIP3    H237227   2.642   3.392  15.126 -0.2467 -0.3242  0.0161
 5246TIP3   OH237228   0.217   5.673  17.089 -0.2661  0.4134  0.0482
 5246TIP3    H137229   0.277   5.599  17.101  0.9909  1.3462 -0.3235
 5246TIP3    H237230   0.192   5.698  17.178  0.7349  0.6771  0.2609
 5247TIP3   OH237231   6.050   3.098   2.248 -0.4695 -0.1030  0.5077
 5247TIP3    H137232   6.089   3.028   2.301  0.3982 -0.5386 -0.6906
 5247TIP3    H237233   6.123   3.133   2.198 -0.7958  2.0532  1.5086
 5248TIP3   OH237234   3.294   5.963   1.032  0.5063  0.5031  0.2246
 5248TIP3    H137235   3.301   5.969   0.937  1.9008 -0.6087  0.2466
 5248TIP3    H237236   3.203   5.988   1.050  0.1396  0.4404 -1.4184
 5249TIP3   OH237237   2.048   6.072   1.203  0.3755 -0.1216 -0.2790
 5249TIP3    H137238   2.014   6.094   1.116 -0.4497  2.7797  0.7406
 5249TIP3    H237239   1.982   6.013   1.240  0.6068 -1.1723 -1.5036
 5250TIP3   OH237240   5.500   3.551   0.397 -0.0711 -0.1871  0.3079
 5250TIP3    H137241   5.482   3.470   0.351 -0.9367  0.9232 -1.3594
 5250TIP3    H237242   5.591   3.542   0.426  0.1842 -1.3028 -0.7916
 5251TIP3   OH237243   3.349   6.238   2.657  0.1530 -0.0524 -0.2521
 5251TIP3    H137244   3.323   6.232   2.565  0.6371 -1.0727 -0.3197
 5251TIP3    H237245   3.438   6.273   2.655  0.0293  0.2793 -0.1455
 5252TIP3   OH237246   2.778   2.290  12.483 -0.0980 -0.1247  0.3311
 5252TIP3    H137247   2.699   2.317  12.435  0.1481 -0.6601 -0.3940
 5252TIP3    H237248   2.839   2.265  12.414  0.2431 -0.9734  0.9419
 5253TIP3   OH237249   4.966   6.669  13.585 -0.1876  0.4163  0.0163
 5253TIP3    H137250   4.882   6.714  13.591  0.0644  1.0425 -0.9748
 5253TIP3    H237251   5.008   6.706  13.507  1.5146  0.9763  1.1699
 5254TIP3   OH237252   3.784   2.054  12.145  0.0032 -0.1984  0.4505
 5254TIP3    H137253   3.815   2.105  12.220  1.5490  0.0766 -0.3550
 5254TIP3    H237254   3.860   2.049  12.087 -0.6231 -2.0300 -0.2322
 5255TIP3   OH237255   5.350   2.827   5.689  0.1009 -0.2453 -0.0051
 5255TIP3    H137256   5.288   2.824   5.762  0.9225  0.2318  0.7233
 5255TIP3    H237257   5.434   2.846   5.730  0.9770 -2.1808 -0.8268
 5256TIP3   OH237258   4.469   2.535  16.746 -0.0452 -0.5376  0.3402
 5256TIP3    H137259   4.460   2.473  16.675  2.5421 -0.4341 -0.1326
 5256TIP3    H237260   4.421   2.613  16.717 -0.8720 -1.2823 -0.2946
 5257TIP3   OH237261   3.548   2.126   4.458 -0.0367 -0.6124 -0.4508
 5257TIP3    H137262   3.477   2.066   4.434  1.3865 -2.1304 -0.9292
 5257TIP3    H237263   3.557   2.116   4.553  2.0691 -3.3124 -0.8842
 5258TIP3   OH237264   2.953   3.217  16.887 -0.2877  0.3809  0.0847
 5258TIP3    H137265   2.959   3.286  16.821  3.0829  0.8878  0.8190
 5258TIP3    H237266   2.996   3.142  16.847  1.0167  0.4302  1.3699
 5259TIP3   OH237267   6.643   6.050   2.847 -0.2615  1.0440 -0.3301
 5259TIP3    H137268   6.567   6.058   2.905 -1.2933 -1.5955 -1.2339
 5259TIP3    H237269   6.716   6.030   2.906 -0.5987  1.8844  0.3848
 5260TIP3   OH237270   4.589   2.326  13.289 -0.1005 -0.3711  0.1056
 5260TIP3    H137271   4.585   2.398  13.352 -4.0380  0.0301 -0.4685
 5260TIP3    H237272   4.605   2.248  13.343 -0.1302  0.3896  1.2317
 5261TIP3   OH237273   1.246   6.243  12.685 -0.5676  0.2770 -0.1526
 5261TIP3    H137274   1.188   6.319  12.678 -1.0758 -0.0751  0.2008
 5261TIP3    H237275   1.316   6.260  12.622 -1.3367  0.4540 -0.9676
 5262TIP3   OH237276   3.526   3.451  16.231 -0.7801  0.2908  0.1961
 5262TIP3    H137277   3.475   3.491  16.161 -0.1168 -2.4747 -1.9465
 5262TIP3    H237278   3.600   3.511  16.243 -0.5411  0.4547 -1.9517
 5263TIP3   OH237279   0.661   1.609  12.886  0.4574  0.5668  0.7680
 5263TIP3    H137280   0.695   1.665  12.816  0.3298 -1.0874 -0.6702
 5263TIP3    H237281   0.567   1.626  12.889  0.2840 -0.1349 -0.2352
 5264TIP3   OH237282   3.163   1.593   1.119  0.1610  0.1621 -0.0063
 5264TIP3    H137283   3.191   1.605   1.210  0.0819  2.3281 -0.2592
 5264TIP3    H237284   3.068   1.580   1.126  0.0838  0.8342  0.1659
 5265TIP3   OH237285   4.021   5.105  15.750 -0.5168 -0.5170  0.1777
 5265TIP3    H137286   4.071   5.044  15.805  0.0627 -0.3968 -0.2179
 5265TIP3    H237287   4.044   5.192  15.783  0.6466 -0.3938 -0.9384
 5266TIP3   OH237288   1.849   6.262  16.743 -0.1720 -0.6964 -0.1786
 5266TIP3    H137289   1.876   6.216  16.664  2.2422 -0.4350  0.4625
 5266TIP3    H237290   1.862   6.198  16.813 -3.9277 -1.5235 -0.1197
 5267TIP3   OH237291   6.321   6.090   5.464 -0.1856  0.3172 -0.3647
 5267TIP3    H137292   6.268   6.092   5.543  1.1385  0.9059  0.5103
 5267TIP3    H237293   6.257   6.088   5.393 -1.3762  0.6803  0.6856
 5268TIP3   OH237294   3.004   1.405   2.728 -0.1399 -0.2401 -0.2311
 5268TIP3    H137295   3.025   1.360   2.646  0.3651 -2.1418  0.8968
 5268TIP3    H237296   2.910   1.420   2.723 -0.7579 -3.5393  0.3229
 5269TIP3   OH237297   5.323   2.266   5.787 -0.2146 -0.1747  0.1728
 5269TIP3    H137298   5.326   2.352   5.746  1.0295 -0.0156  0.5959
 5269TIP3    H237299   5.230   2.241   5.783 -0.4641  0.8502 -0.6203
 5270TIP3   OH237300   0.094   4.616  13.347  0.4915  0.3099 -0.4151
 5270TIP3    H137301   0.010   4.606  13.301  0.1709  0.8363  0.0474
 5270TIP3    H237302   0.099   4.709  13.368  1.4363  0.3698 -0.8832
 5271TIP3   OH237303   2.567   2.121  12.033  0.3015  0.1623 -0.0091
 5271TIP3    H137304   2.476   2.143  12.053  1.3391  0.4291  5.2474
 5271TIP3    H237305   2.563   2.031  12.000 -1.6507 -1.1326  3.4596
 5272TIP3   OH237306   3.912   6.185  12.847  0.4339  0.3342 -0.0712
 5272TIP3    H137307   3.991   6.239  12.847  0.6993 -0.0192 -2.0113
 5272TIP3    H237308   3.863   6.215  12.771 -1.5413  0.8622  1.3752
 5273TIP3   OH237309   4.136   0.699  14.772  0.4395  0.5717 -0.2630
 5273TIP3    H137310   4.125   0.767  14.705  0.8788 -1.0601 -2.0376
 5273TIP3    H237311   4.047   0.671  14.793  0.3793 -0.7879 -2.1838
 5274TIP3   OH237312   4.674   1.426   5.415 -0.0930 -0.5019 -0.1188
 5274TIP3    H137313   4.689   1.384   5.330  2.3989 -1.5215  0.7702
 5274TIP3    H237314   4.581   1.411   5.434 -0.0896 -2.4040 -1.5164
 5275TIP3   OH237315   1.054   0.070   0.162  0.1583 -0.3578  0.2444
 5275TIP3    H137316   0.978   0.013   0.157  0.2443 -0.6034  1.4553
 5275TIP3    H237317   1.130   0.011   0.158  0.2422 -0.4397  2.2721
 5276TIP3   OH237318   1.317   2.915  14.867  0.1478  0.2559  0.0754
 5276TIP3    H137319   1.392   2.864  14.837  1.0744  1.3305  0.5318
 5276TIP3    H237320   1.273   2.858  14.930  1.1463 -0.0080  0.5458
 5277TIP3   OH237321   0.456   3.239  16.842  0.4087  0.1308  0.3058
 5277TIP3    H137322   0.518   3.253  16.913  0.6219  0.6384  0.0212
 5277TIP3    H237323   0.509   3.244  16.763  0.1439 -0.2655  0.1044
 5278TIP3   OH237324   1.642   0.308   0.444 -0.0145  0.1227 -0.2518
 5278TIP3    H137325   1.731   0.277   0.426 -0.0660 -0.1953  0.0352
 5278TIP3    H237326   1.621   0.271   0.530 -0.5892 -0.1724 -0.5158
 5279TIP3   OH237327   3.971   3.628  16.582  0.5823 -0.1606 -0.3111
 5279TIP3    H137328   3.990   3.556  16.642  1.0342 -0.1585 -0.4422
 5279TIP3    H237329   3.876   3.636  16.582  0.5490 -0.5511 -0.0534
 5280TIP3   OH237330   4.369   6.075  14.775  0.1275  0.0130 -0.5062
 5280TIP3    H137331   4.385   6.025  14.854  1.5011 -0.2475 -0.9220
 5280TIP3    H237332   4.379   6.166  14.801  0.9363 -0.0882 -0.4420
 5281TIP3   OH237333   4.765   1.910   1.289 -0.9102 -0.2919  0.3902
 5281TIP3    H137334   4.709   1.914   1.212  0.6210 -0.6551 -0.7736
 5281TIP3    H237335   4.718   1.854   1.350 -2.6634  0.9103  0.1661
 5282TIP3   OH237336   1.309   6.367  17.016  0.2103  0.1692  0.7607
 5282TIP3    H137337   1.319   6.392  16.924 -1.4950 -0.6641  0.3342
 5282TIP3    H237338   1.329   6.273  17.018  0.2595  0.1866  1.2473
 5283TIP3   OH237339   0.860   1.325  12.361 -0.2399  0.2145 -0.1846
 5283TIP3    H137340   0.767   1.326  12.382 -0.3017  1.0789 -0.5043
 5283TIP3    H237341   0.898   1.265  12.425 -0.7815  1.0240  0.9148
 5284TIP3   OH237342   0.954   1.234   2.047 -0.2058  0.2482 -0.9361
 5284TIP3    H137343   0.928   1.323   2.023 -1.3274  0.2093  0.0238
 5284TIP3    H237344   0.945   1.183   1.966  0.2726  0.9706 -1.4464
 5285TIP3   OH237345   0.597   0.788  15.021 -0.0345 -0.1327  0.3432
 5285TIP3    H137346   0.550   0.856  15.069 -1.1373 -0.7344  0.1453
 5285TIP3    H237347   0.561   0.791  14.933  0.1434 -0.7476  0.2429
 5286TIP3   OH237348   5.063   5.110  13.183  0.1721  0.0536  0.6335
 5286TIP3    H137349   5.118   5.088  13.108 -0.3988  0.9824 -0.0796
 5286TIP3    H237350   5.113   5.082  13.259  0.1116 -2.2470 -0.1545
 5287TIP3   OH237351   3.174   2.671  14.535 -0.0728 -0.3130  0.0688
 5287TIP3    H137352   3.173   2.575  14.529 -1.2833 -0.3813  1.2149
 5287TIP3    H237353   3.172   2.689  14.628 -0.4793  0.8504 -0.1662
 5288TIP3   OH237354   3.432   5.769   3.825  0.2893 -0.2772  0.5727
 5288TIP3    H137355   3.427   5.710   3.900 -2.3909  1.5130  1.8892
 5288TIP3    H237356   3.428   5.857   3.864  2.0593  0.7405 -1.4740
 5289TIP3   OH237357   3.204   3.519  11.331  0.0113  0.0925  0.3438
 5289TIP3    H137358   3.198   3.585  11.401  0.9188 -0.1451  0.6422
 5289TIP3    H237359   3.294   3.487  11.335  0.0453  0.0190 -0.8880
 5290TIP3   OH237360   1.923   0.173  16.591 -0.4581  0.0492  0.2630
 5290TIP3    H137361   1.874   0.168  16.673  0.8800 -1.2512  1.0122
 5290TIP3    H237362   1.910   0.262  16.561 -4.7576 -0.7133 -0.5023
 5291TIP3   OH237363   0.306   5.839  15.467 -0.3128 -0.1617 -0.2301
 5291TIP3    H137364   0.361   5.760  15.468  1.9391  1.3324 -1.2193
 5291TIP3    H237365   0.264   5.840  15.552  1.0139 -1.4963  0.4695
 5292TIP3   OH237366   4.944   6.283   1.903  0.5641 -0.1153 -0.0671
 5292TIP3    H137367   5.001   6.342   1.952 -0.4772 -0.4254  1.5743
 5292TIP3    H237368   4.960   6.197   1.942  0.1976 -0.4761 -0.7111
 5293TIP3   OH237369   4.779   4.229  13.737 -0.4726  0.0810  0.1857
 5293TIP3    H137370   4.763   4.135  13.729 -0.6466  0.1236 -0.0068
 5293TIP3    H237371   4.834   4.250  13.661 -0.0406  0.0511  0.4893
 5294TIP3   OH237372   0.974   3.495  13.090  0.0718  0.5510  0.1148
 5294TIP3    H137373   0.958   3.589  13.090 -0.7441  0.4483 -2.5484
 5294TIP3    H237374   0.888   3.456  13.075  0.7123 -0.5519 -0.7616
 5295TIP3   OH237375   3.709   0.746  15.600 -0.1805 -0.4808  0.0096
 5295TIP3    H137376   3.690   0.839  15.613 -0.3806 -0.4223 -0.6421
 5295TIP3    H237377   3.793   0.745  15.554 -0.5463 -0.5929 -0.6614
 5296TIP3   OH237378   6.504   5.212   4.073 -0.4443 -0.0545  0.8134
 5296TIP3    H137379   6.578   5.158   4.100 -0.1015 -0.6132 -1.1344
 5296TIP3    H237380   6.511   5.292   4.125  0.1204 -1.0970  2.3832
 5297TIP3   OH237381   5.651   3.088   3.607 -0.8796  0.1927  0.6325
 5297TIP3    H137382   5.654   3.018   3.542  0.0699  1.4847 -0.7467
 5297TIP3    H237383   5.565   3.129   3.594 -0.6072  0.5868  0.0207
 5298TIP3   OH237384   6.107   5.878   5.769 -0.0595 -0.3296  0.5565
 5298TIP3    H137385   6.135   5.941   5.834 -0.5821 -1.2409  1.6891
 5298TIP3    H237386   6.095   5.929   5.689  0.6741  0.7786  1.1510
 5299TIP3   OH237387   5.238   3.306   5.629  0.2430  0.4591  0.1074
 5299TIP3    H137388   5.225   3.378   5.691  2.5203  1.3064 -0.3342
 5299TIP3    H237389   5.296   3.246   5.676  1.8275  1.0167 -1.1060
 5300TIP3   OH237390   1.929   3.653   1.207 -0.4283 -0.0374  0.3463
 5300TIP3    H137391   1.903   3.745   1.198  0.0343  0.1307  0.6814
 5300TIP3    H237392   2.015   3.657   1.251  0.4670 -0.5576 -1.3274
 5301TIP3   OH237393   2.526   2.586   3.750 -0.4791  0.2029 -0.2734
 5301TIP3    H137394   2.557   2.676   3.742  1.4517 -0.5137 -0.8977
 5301TIP3    H237395   2.530   2.550   3.661 -0.2819 -0.8213  0.1407
 5302TIP3   OH237396   2.704   5.533  10.336  0.1315  0.1317  0.1882
 5302TIP3    H137397   2.797   5.515  10.318  0.1645  0.4876 -0.0100
 5302TIP3    H237398   2.695   5.627  10.319 -0.5227 -0.1144 -0.9153
 5303TIP3   OH237399   2.811   2.839   5.625 -0.1611  0.1516 -0.2206
 5303TIP3    H137400   2.730   2.827   5.674 -0.5953 -1.6459 -1.3353
 5303TIP3    H237401   2.863   2.762   5.646  0.3565  0.2306 -1.1975
 5304TIP3   OH237402   6.220   6.672  12.036  0.1765  0.4122 -0.1233
 5304TIP3    H137403   6.241   6.731  11.963  1.6825  1.7762  1.3625
 5304TIP3    H237404   6.299   6.619  12.047 -0.6379 -0.9209 -0.4997
 5305TIP3   OH237405   6.610   4.281  16.150  0.0088 -0.1029  0.0795
 5305TIP3    H137406   6.572   4.200  16.117  1.8437 -0.9196 -0.0825
 5305TIP3    H237407   6.604   4.273  16.245 -0.1720 -0.2637  0.0550
 5306TIP3   OH237408   5.329   4.392   1.777  0.2519  1.0490 -0.2711
 5306TIP3    H137409   5.272   4.469   1.779  0.1326  0.9993 -1.3244
 5306TIP3    H237410   5.275   4.321   1.809  0.4675  1.4603  1.0504
 5307TIP3   OH237411   3.053   6.176  13.959 -0.3816 -0.4023 -0.3089
 5307TIP3    H137412   3.112   6.191  14.033 -0.3384 -2.2598  0.0492
 5307TIP3    H237413   2.967   6.205  13.991  0.2279  2.0075 -0.7237
 5308TIP3   OH237414   2.485   1.321  14.994  0.2278 -0.0352  0.3741
 5308TIP3    H137415   2.563   1.289  15.039  1.3813  3.2305  0.7955
 5308TIP3    H237416   2.419   1.329  15.062  1.4868  3.3357  1.2862
 5309TIP3   OH237417   0.188   6.379  15.128  0.1763  0.1508  0.4268
 5309TIP3    H137418   0.215   6.299  15.083 -1.2328  1.7398 -3.4305
 5309TIP3    H237419   0.258   6.442  15.109 -0.6680  0.9795  0.0402
 5310TIP3   OH237420   3.198   4.474   3.862 -0.8611 -0.0324  0.0234
 5310TIP3    H137421   3.211   4.513   3.776 -1.4338 -0.3722 -0.2167
 5310TIP3    H237422   3.286   4.465   3.898 -0.7736  3.3603  0.9207
 5311TIP3   OH237423   1.138   2.610   1.727 -0.0564  0.0523 -0.1609
 5311TIP3    H137424   1.047   2.595   1.701 -0.1769 -0.2623  0.4244
 5311TIP3    H237425   1.183   2.529   1.705 -0.3555 -0.5704  1.4533
 5312TIP3   OH237426   3.775   1.670  11.094  0.7281 -0.1556 -1.0461
 5312TIP3    H137427   3.725   1.732  11.041 -1.4269 -1.8629 -1.0747
 5312TIP3    H237428   3.761   1.585  11.052  2.0702 -0.9554  0.0796
 5313TIP3   OH237429   1.999   6.165  13.930  0.2787  0.1649 -0.6023
 5313TIP3    H137430   1.910   6.154  13.963  0.4302  1.2367  0.1921
 5313TIP3    H237431   1.988   6.205  13.843 -0.0176  0.0498 -0.6160
 5314TIP3   OH237432   6.631   1.715  12.139  0.4555  0.0038  0.2543
 5314TIP3    H137433   6.652   1.742  12.049  0.1453 -0.8783 -0.0915
 5314TIP3    H237434   6.661   1.788  12.193 -1.1221  1.4078 -0.7010
 5315TIP3   OH237435   2.814   0.057  16.880  0.2961  0.1505  0.0301
 5315TIP3    H137436   2.793  -0.031  16.911 -0.2168  0.2003 -0.1645
 5315TIP3    H237437   2.730   0.092  16.850  0.5214  0.6587 -0.0093
 5316TIP3   OH237438   1.630   6.145   2.918  0.3616 -0.4372 -0.4844
 5316TIP3    H137439   1.536   6.158   2.905  0.1494 -0.4606  0.9351
 5316TIP3    H237440   1.655   6.211   2.982  0.9317 -1.5877  0.5095
 5317TIP3   OH237441   2.934   6.618  14.313  0.8352  0.2501 -0.0245
 5317TIP3    H137442   3.010   6.584  14.361 -0.0979  0.6741  1.7843
 5317TIP3    H237443   2.859   6.579  14.356 -0.0616  1.2402 -0.6739
 5318TIP3   OH237444   6.711   1.589   6.030  0.3708  0.1724 -1.0030
 5318TIP3    H137445   6.689   1.578   5.937  3.1355 -0.2293 -1.6720
 5318TIP3    H237446   6.708   1.684   6.043 -0.9861  0.1739 -1.2278
 5319TIP3   OH237447   1.786   5.024   5.023  0.2555  0.0891 -0.7329
 5319TIP3    H137448   1.747   5.014   4.936  1.6745 -0.4798 -1.3080
 5319TIP3    H237449   1.872   5.062   5.006 -0.1319  1.6045  0.5496
 5320TIP3   OH237450   5.394   6.059   0.296  0.0314  0.5630 -0.1702
 5320TIP3    H137451   5.411   6.047   0.390  1.2554 -2.3171 -0.7147
 5320TIP3    H237452   5.342   5.983   0.271  2.2042 -0.2521 -2.3962
 5321TIP3   OH237453   6.063   0.421   2.130 -0.8000 -0.1131 -0.7278
 5321TIP3    H137454   6.026   0.414   2.218 -3.1052  1.0357 -1.5755
 5321TIP3    H237455   6.096   0.333   2.111 -1.3153 -0.6621  0.8185
 5322TIP3   OH237456   0.711   4.025  13.543  0.2318 -0.1125  0.2658
 5322TIP3    H137457   0.779   3.983  13.596 -0.2938 -1.2250  0.0525
 5322TIP3    H237458   0.714   4.117  13.571 -0.7389 -0.8563  3.0090
 5323TIP3   OH237459   1.180   5.920   0.476 -0.3338 -0.0858 -0.0253
 5323TIP3    H137460   1.133   5.959   0.402 -0.8808  0.5468  0.6398
 5323TIP3    H237461   1.247   5.985   0.499  0.9298 -1.0218 -1.0182
 5324TIP3   OH237462   6.466   1.781   5.502 -0.2039  0.1791  0.2846
 5324TIP3    H137463   6.418   1.704   5.469  1.0200 -0.7354  0.6152
 5324TIP3    H237464   6.551   1.747   5.530  1.3062  2.0289 -1.8261
 5325TIP3   OH237465   5.752   0.805   3.608  0.2660  0.8853 -0.0776
 5325TIP3    H137466   5.769   0.894   3.640 -1.7321  1.0267  0.6231
 5325TIP3    H237467   5.663   0.808   3.575  0.8279 -0.3997 -1.7508
 5326TIP3   OH237468   4.445   4.590  11.884  0.7693  0.6601  0.2650
 5326TIP3    H137469   4.443   4.546  11.799  0.0488  0.8130  0.1996
 5326TIP3    H237470   4.536   4.615  11.896  1.3835 -1.6633  0.7220
 5327TIP3   OH237471   5.174   3.336   3.258 -0.2861  0.1726  0.6139
 5327TIP3    H137472   5.197   3.366   3.345 -2.0192  2.1374  0.4315
 5327TIP3    H237473   5.123   3.407   3.220 -0.6481 -1.1663 -1.5359
 5328TIP3   OH237474   2.758   4.513   1.772 -0.4061 -0.4448 -0.1782
 5328TIP3    H137475   2.717   4.498   1.686 -0.2810 -0.2850 -0.2672
 5328TIP3    H237476   2.828   4.575   1.754 -0.1950 -0.6349 -0.0064
 5329TIP3   OH237477   4.375   4.746  13.869  0.3992  0.3157  0.0678
 5329TIP3    H137478   4.323   4.826  13.866 -0.8449 -0.5153 -1.7541
 5329TIP3    H237479   4.383   4.726  13.963  1.3569  2.9243  0.5774
 5330TIP3   OH237480   6.228   3.554  13.093 -0.2963  0.3421 -0.1942
 5330TIP3    H137481   6.260   3.490  13.029 -3.1081 -1.0573 -0.2390
 5330TIP3    H237482   6.251   3.518  13.178 -0.0725  0.2805 -0.2801
 5331TIP3   OH237483   1.948   6.064  10.612 -0.3256  0.0086 -0.3880
 5331TIP3    H137484   1.895   6.067  10.532 -0.1521 -1.4213 -0.5728
 5331TIP3    H237485   2.038   6.066  10.581 -0.2469 -1.4502 -0.2958
 5332TIP3   OH237486   3.798   4.377   0.002  0.3833  0.4550  0.2234
 5332TIP3    H137487   3.885   4.365   0.041  0.3146 -1.8457 -0.2679
 5332TIP3    H237488   3.741   4.393   0.077  1.1428  1.4067  0.6020
 5333TIP3   OH237489   1.064   0.575   2.109 -0.4167 -0.2390 -0.2498
 5333TIP3    H137490   1.004   0.501   2.114  1.2344 -1.5816 -0.1012
 5333TIP3    H237491   1.147   0.537   2.081  0.8081  1.3548  1.1178
 5334TIP3   OH237492   0.914   5.406   4.691  0.4694  0.0069 -0.3280
 5334TIP3    H137493   0.957   5.466   4.629  2.4391 -1.1617 -0.1280
 5334TIP3    H237494   0.846   5.459   4.733  0.9008  1.5536 -1.5448
 5335TIP3   OH237495   2.883   0.190   4.890 -0.7516 -0.0989  0.1972
 5335TIP3    H137496   2.847   0.214   4.975  0.9017 -0.0249  0.8874
 5335TIP3    H237497   2.915   0.272   4.853 -0.2533 -0.3442  0.0820
 5336TIP3   OH237498   1.066   0.897  14.248  0.1889  0.1831 -0.1344
 5336TIP3    H137499   1.089   0.911  14.156  2.3248 -0.6774  0.2314
 5336TIP3    H237500   1.119   0.959  14.296  0.0652 -0.2732  0.6049
 5337TIP3   OH237501   6.702   0.520  16.196 -0.1008  0.0605  0.0797
 5337TIP3    H137502   6.740   0.434  16.177  1.7925  0.8494  0.2604
 5337TIP3    H237503   6.617   0.500  16.235  0.6372 -1.7437  0.8050
 5338TIP3   OH237504   2.623   4.138  15.375  0.0179 -0.1400 -0.2809
 5338TIP3    H137505   2.646   4.160  15.465  0.0720  1.4655 -0.6754
 5338TIP3    H237506   2.629   4.221  15.328  0.6656 -1.0888 -1.9038
 5339TIP3   OH237507   1.809   1.407   5.558 -0.3988  0.2927 -0.0383
 5339TIP3    H137508   1.893   1.361   5.554 -0.4844 -0.1047  1.9730
 5339TIP3    H237509   1.759   1.374   5.484  1.2550  0.5921 -1.3055
 5340TIP3   OH237510   2.083   3.129   4.546 -0.3839  0.6103  0.2544
 5340TIP3    H137511   2.108   3.053   4.493  0.0610  0.1840  1.0735
 5340TIP3    H237512   2.163   3.180   4.554 -0.4107  0.5880  0.6620
 5341TIP3   OH237513   0.001   6.795  14.047  0.4887  0.0453  0.7401
 5341TIP3    H137514  -0.062   6.789  13.975  0.7176  1.3971  0.4102
 5341TIP3    H237515   0.012   6.705  14.077 -1.5598 -0.2130  0.7594
 5342TIP3   OH237516   3.747   1.883   4.992 -0.7024  0.1445 -0.1164
 5342TIP3    H137517   3.671   1.828   5.013  0.8466 -2.6833 -1.6265
 5342TIP3    H237518   3.716   1.972   5.005 -3.6265 -1.0222  1.4325
 5343TIP3   OH237519   1.739   5.324  13.878 -0.1353  0.4055  0.5390
 5343TIP3    H137520   1.774   5.255  13.934  0.2500  1.7300  1.9785
 5343TIP3    H237521   1.644   5.317  13.886 -0.0631  1.2788  2.2417
 5344TIP3   OH237522   6.026   1.506  11.456 -0.2597  0.2442  0.1622
 5344TIP3    H137523   6.104   1.452  11.442 -0.9352 -0.8634  0.5334
 5344TIP3    H237524   5.977   1.499  11.374  0.3062  1.4007 -0.2736
 5345TIP3   OH237525   4.935   4.290  11.830 -0.4295 -0.0962 -0.1112
 5345TIP3    H137526   4.909   4.200  11.853  0.4972 -0.5465 -0.7695
 5345TIP3    H237527   4.871   4.317  11.764 -0.5610 -0.3660 -0.0969
 5346TIP3   OH237528   1.077   2.042   0.164 -0.2382  0.0421 -0.5546
 5346TIP3    H137529   1.101   1.983   0.235 -1.4667 -0.9336 -0.9313
 5346TIP3    H237530   1.159   2.088   0.142 -0.2296  1.7410  2.6946
 5347TIP3   OH237531   4.706   5.421  12.684  0.3729 -0.1846 -0.3299
 5347TIP3    H137532   4.634   5.408  12.622  1.1415  0.6311 -1.4122
 5347TIP3    H237533   4.719   5.335  12.723  0.1811 -0.8297 -1.6418
 5348TIP3   OH237534   5.551   1.382   0.382 -0.5330 -0.2351 -0.0525
 5348TIP3    H137535   5.478   1.332   0.418 -0.9057  0.3266 -0.0350
 5348TIP3    H237536   5.608   1.316   0.343  0.4105 -0.9932  2.4903
 5349TIP3   OH237537   2.584   4.967   0.649 -0.2063  1.2843 -0.4164
 5349TIP3    H137538   2.581   4.908   0.573 -0.9840 -0.5644  1.0180
 5349TIP3    H237539   2.572   5.054   0.612 -1.4315  0.3363 -2.3296
 5350TIP3   OH237540   2.814   4.030   1.224  0.0108  0.1437 -0.0596
 5350TIP3    H137541   2.879   4.094   1.194 -0.1986  0.1641 -0.4731
 5350TIP3    H237542   2.761   4.077   1.288  0.0869  0.2740 -0.0926
 5351TIP3   OH237543   6.396   2.013  11.731 -0.7643  0.3517  0.5370
 5351TIP3    H137544   6.482   2.008  11.689 -0.0330  0.0503  2.0456
 5351TIP3    H237545   6.346   1.940  11.694 -0.1820  0.1718  0.1081
 5352TIP3   OH237546   5.793   1.667   3.373  0.1012  0.2001  0.1424
 5352TIP3    H137547   5.750   1.705   3.449  1.1824  0.8742  0.4223
 5352TIP3    H237548   5.801   1.739   3.311  0.1839 -0.0908 -0.1866
 5353TIP3   OH237549   3.894   5.296   5.841 -0.1212 -0.1771  0.6424
 5353TIP3    H137550   3.894   5.245   5.922 -0.6588 -2.5249 -0.8012
 5353TIP3    H237551   3.986   5.322   5.830  0.7893 -3.4860 -0.1725
 5354TIP3   OH237552   1.405   5.474  13.344 -0.4885 -0.1619  0.0501
 5354TIP3    H137553   1.442   5.429  13.420 -0.5605  1.0189  0.7962
 5354TIP3    H237554   1.439   5.563  13.350  0.8167 -0.4673 -2.2024
 5355TIP3   OH237555   5.902   5.942  15.377  0.0456  0.3937 -0.0097
 5355TIP3    H137556   5.928   5.904  15.460 -1.8951  0.5466  0.7046
 5355TIP3    H237557   5.979   5.935  15.321  1.0318 -0.6652  1.4699
 5356TIP3   OH237558   2.417   3.899   3.632 -0.1467  0.1903 -0.1980
 5356TIP3    H137559   2.428   3.967   3.566 -0.0667  1.4367  1.0735
 5356TIP3    H237560   2.411   3.818   3.582  1.3517  0.9406 -1.6494
 5357TIP3   OH237561   5.621   2.562  15.023  0.2355  0.3368 -0.5587
 5357TIP3    H137562   5.591   2.643  14.982 -1.0351  0.9092  1.4113
 5357TIP3    H237563   5.541   2.522  15.058  0.9676 -1.3492 -0.7562
 5358TIP3   OH237564   0.252   5.042   3.128 -0.4974 -0.1016 -0.2174
 5358TIP3    H137565   0.320   5.064   3.192 -0.6017  0.1011 -0.1761
 5358TIP3    H237566   0.171   5.070   3.170 -0.9054 -2.8929  0.9295
 5359TIP3   OH237567   1.976   2.188  14.270 -0.0972 -0.3566 -0.4760
 5359TIP3    H137568   2.019   2.270  14.292 -0.1497 -0.1617 -1.1084
 5359TIP3    H237569   1.997   2.130  14.343  0.6122 -0.0306 -0.4187
 5360TIP3   OH237570   4.832   3.864   0.929 -0.2389  0.5883  0.0593
 5360TIP3    H137571   4.894   3.861   0.856 -1.6116  2.6390 -1.2580
 5360TIP3    H237572   4.869   3.928   0.989 -0.7220  1.3086 -0.4032
 5361TIP3   OH237573   6.186   4.688  12.008 -0.4024  0.1214 -0.4515
 5361TIP3    H137574   6.239   4.700  11.929 -1.4900  2.0555 -0.9093
 5361TIP3    H237575   6.099   4.718  11.984 -0.7721  0.6612  1.4552
 5362TIP3   OH237576   6.182   5.291  13.655  0.4098 -0.5409 -0.0025
 5362TIP3    H137577   6.222   5.360  13.709  0.2412 -0.3561 -0.1162
 5362TIP3    H237578   6.096   5.325  13.632  0.5278 -0.5695 -0.4917
 5363TIP3   OH237579   5.312   0.067   2.022  0.2387  0.2360  0.0387
 5363TIP3    H137580   5.264   0.073   1.939  0.1346 -1.1176 -0.0233
 5363TIP3    H237581   5.400   0.040   1.996  0.3800  0.4245  0.3232
 5364TIP3   OH237582   1.610   2.709   4.366  0.0110 -0.1338  0.6254
 5364TIP3    H137583   1.546   2.726   4.297 -0.2924 -1.3493  0.5827
 5364TIP3    H237584   1.557   2.683   4.442  0.2814  2.3935  1.7066
 5365TIP3   OH237585   2.401   6.490   1.891  0.1677 -0.2125 -0.3333
 5365TIP3    H137586   2.444   6.533   1.818  1.3569 -1.4730 -0.3956
 5365TIP3    H237587   2.449   6.520   1.969 -0.8535  0.8306 -0.0934
 5366TIP3   OH237588   6.503   4.764   2.825 -0.1904 -0.0158 -0.1831
 5366TIP3    H137589   6.580   4.747   2.770 -0.5294 -1.3753 -0.2555
 5366TIP3    H237590   6.437   4.703   2.793 -1.2766  1.0533 -0.0450
 5367TIP3   OH237591   5.524   0.344   6.467  0.3385 -0.4493  0.5107
 5367TIP3    H137592   5.447   0.291   6.488 -0.0244 -0.8018 -1.5616
 5367TIP3    H237593   5.497   0.434   6.484 -1.0245 -0.4455 -1.4398
 5368TIP3   OH237594   5.553   0.486  13.549 -0.9134  0.0297 -0.9356
 5368TIP3    H137595   5.584   0.495  13.458  3.0022 -0.3444  0.2364
 5368TIP3    H237596   5.537   0.575  13.578 -0.3394  0.3113 -1.4502
 5369TIP3   OH237597   6.177   5.063   0.688  1.1919  0.8340 -0.0439
 5369TIP3    H137598   6.115   5.077   0.760  0.0682  1.7904 -1.1877
 5369TIP3    H237599   6.218   5.149   0.675  4.1728 -0.1860  1.9436
 5370TIP3   OH237600   3.161   2.686  11.911 -0.5146  0.0580 -0.1247
 5370TIP3    H137601   3.130   2.760  11.964  2.7408  1.8042 -0.5525
 5370TIP3    H237602   3.115   2.695  11.828 -0.3857  1.4101 -0.0557
 5371TIP3   OH237603   6.090   0.418  13.804 -0.4746 -0.7389 -0.5766
 5371TIP3    H137604   6.181   0.400  13.830 -0.7291 -1.8251 -0.4162
 5371TIP3    H237605   6.055   0.471  13.876 -0.6617 -2.2777  0.4795
 5372TIP3   OH237606   4.878   3.383   0.538 -0.1536 -0.2938  0.1983
 5372TIP3    H137607   4.913   3.431   0.462 -0.5295 -2.3132 -1.2905
 5372TIP3    H237608   4.954   3.336   0.573  0.0204  0.6434  1.0844
 5373TIP3   OH237609   6.053   2.335  16.897  0.0192  0.1879  0.1290
 5373TIP3    H137610   6.132   2.281  16.900  0.2063  0.4956  1.1481
 5373TIP3    H237611   6.082   2.418  16.859 -0.0216 -0.0379 -0.3904
 5374TIP3   OH237612   1.426   4.991   6.702  0.0541 -0.0874  0.7498
 5374TIP3    H137613   1.347   4.972   6.751 -0.3062  0.7256  0.5087
 5374TIP3    H237614   1.463   5.068   6.745 -0.3456  0.7284 -0.3097
 5375TIP3   OH237615   0.973   1.521   3.797  0.1344  0.3063 -0.2798
 5375TIP3    H137616   1.049   1.576   3.814  0.1988  0.9389 -2.4062
 5375TIP3    H237617   1.003   1.458   3.732 -0.3362 -1.3789  1.0906
 5376TIP3   OH237618   2.223   3.284  11.676 -0.1232 -0.0938  0.2798
 5376TIP3    H137619   2.258   3.366  11.642  0.0466 -1.0736 -2.0445
 5376TIP3    H237620   2.301   3.231  11.695 -0.2546 -0.3857  0.0158
 5377TIP3   OH237621   5.552   4.080   5.952  0.4180  0.6219  0.5556
 5377TIP3    H137622   5.496   4.044   6.021  0.8180 -0.0770  0.5216
 5377TIP3    H237623   5.490   4.121   5.891 -0.0566 -0.0267  0.5871
 5378TIP3   OH237624   6.462   5.773  14.812 -0.1332 -0.1987 -0.4910
 5378TIP3    H137625   6.398   5.721  14.861  0.6123 -1.3243 -0.6828
 5378TIP3    H237626   6.473   5.852  14.864 -1.1360 -0.3162 -0.0825
 5379TIP3   OH237627   0.212   5.394  14.911 -0.2700 -0.2571 -0.0138
 5379TIP3    H137628   0.283   5.391  14.846  0.8254 -1.1078  1.1954
 5379TIP3    H237629   0.140   5.346  14.869  0.9698 -2.2128  0.0008
 5380TIP3   OH237630   2.854   1.367   1.704  0.0990 -0.4339  0.1920
 5380TIP3    H137631   2.941   1.387   1.736 -0.8830  0.3410  2.4930
 5380TIP3    H237632   2.818   1.305   1.769 -1.0149 -0.8277 -0.7727
 5381TIP3   OH237633   3.420   0.704   5.424  0.4869 -0.0438  0.0504
 5381TIP3    H137634   3.432   0.626   5.370  0.5587  1.7753 -2.6538
 5381TIP3    H237635   3.332   0.694   5.461  1.2706 -2.3537  1.3990
 5382TIP3   OH237636   3.792   4.084   5.564  0.2842  0.0534  0.1991
 5382TIP3    H137637   3.747   4.168   5.574  1.2473  0.6031  0.0150
 5382TIP3    H237638   3.856   4.082   5.636  0.3846 -0.4441  0.0991
 5383TIP3   OH237639   6.564   6.178  14.192 -0.2653  0.0062  0.2820
 5383TIP3    H137640   6.649   6.220  14.176  0.1141 -1.1624 -0.8016
 5383TIP3    H237641   6.552   6.186  14.287  1.5648 -0.7510  0.6074
 5384TIP3   OH237642   2.192   0.519  12.487 -0.2715  0.8522 -0.7608
 5384TIP3    H137643   2.250   0.570  12.431 -0.0802  1.6146  0.1224
 5384TIP3    H237644   2.234   0.434  12.496  0.8245  1.4696  0.0471
 5385TIP3   OH237645   3.291   5.883  16.168  0.3768  0.4211 -0.1209
 5385TIP3    H137646   3.386   5.892  16.181  0.6555 -0.0848 -1.6801
 5385TIP3    H237647   3.267   5.959  16.115 -0.2252  0.9387  0.8906
 5386TIP3   OH237648   1.901   3.874  16.922  0.8500  0.1832  0.4802
 5386TIP3    H137649   1.953   3.941  16.878 -0.0241 -0.7708 -2.1360
 5386TIP3    H237650   1.964   3.808  16.950  1.3719  0.4541 -0.0532
 5387TIP3   OH237651   2.704   0.700  15.675  0.5043 -0.9624 -0.2461
 5387TIP3    H137652   2.645   0.625  15.671 -0.1152 -0.4899 -0.0424
 5387TIP3    H237653   2.726   0.719  15.584  0.3450 -1.1410 -0.3221
 5388TIP3   OH237654   4.092   0.788   3.931  0.1902  0.1625 -0.2085
 5388TIP3    H137655   4.175   0.836   3.936  0.3652 -0.2588  1.1449
 5388TIP3    H237656   4.090   0.754   3.842  2.2478 -1.1496  0.1976
 5389TIP3   OH237657   0.624   6.794  15.301 -0.2216 -0.5305  0.9227
 5389TIP3    H137658   0.694   6.820  15.361 -0.2624 -2.0751  1.6685
 5389TIP3    H237659   0.544   6.802  15.353 -0.7411  2.2170 -0.2367
 5390TIP3   OH237660   1.817   3.749   5.703 -0.1894 -0.7820 -0.1017
 5390TIP3    H137661   1.894   3.721   5.753 -2.0290 -2.8762  1.6747
 5390TIP3    H237662   1.752   3.681   5.720 -2.8677  1.6010 -0.5687
 5391TIP3   OH237663   5.848   2.896  11.454 -0.2969 -0.4108  0.2157
 5391TIP3    H137664   5.863   2.955  11.528  1.7602  0.2682 -0.7085
 5391TIP3    H237665   5.845   2.953  11.378 -2.1192 -1.1374 -0.2900
 5392TIP3   OH237666   3.604   5.944  12.174 -0.1289 -0.0370  0.3771
 5392TIP3    H137667   3.660   5.939  12.252 -0.3205  0.6955  0.5712
 5392TIP3    H237668   3.648   6.008  12.118 -0.6069  0.3086  0.3964
 5393TIP3   OH237669   4.391   3.672  12.112 -0.2079 -0.1097  0.2841
 5393TIP3    H137670   4.402   3.752  12.060 -0.9122 -1.1289 -1.4952
 5393TIP3    H237671   4.297   3.661  12.121 -0.0967 -0.1901  1.3988
 5394TIP3   OH237672   0.065   0.213  11.388  0.0763  0.4249  0.4509
 5394TIP3    H137673   0.120   0.203  11.466 -0.1283 -0.1828  0.5192
 5394TIP3    H237674   0.064   0.127  11.348 -0.9758  0.3903  0.5451
 5395TIP3   OH237675   5.653   2.790  13.459  0.2267  0.7519 -0.4799
 5395TIP3    H137676   5.731   2.808  13.406  1.3375 -0.3775  0.7392
 5395TIP3    H237677   5.678   2.813  13.548 -0.5427 -0.4117  0.0611
 5396TIP3   OH237678   2.624   6.488  16.142  0.0033  0.4626  0.3858
 5396TIP3    H137679   2.633   6.432  16.065 -0.6788  0.8821 -0.0110
 5396TIP3    H237680   2.533   6.519  16.139 -0.2399 -0.0739  1.7471
 5397TIP3   OH237681   0.705   0.658   5.659  0.2536 -0.3313 -0.0837
 5397TIP3    H137682   0.682   0.566   5.659  1.3432 -0.6190 -1.0211
 5397TIP3    H237683   0.631   0.702   5.700 -1.2957 -1.3742 -1.6932
 5398TIP3   OH237684   5.264   2.483   1.913 -0.7520 -0.3061 -0.2542
 5398TIP3    H137685   5.209   2.432   1.853  0.0703 -1.0525 -0.3956
 5398TIP3    H237686   5.207   2.506   1.986 -1.2257 -1.1429 -0.3608
 5399TIP3   OH237687   3.702   4.524   6.791 -0.0061 -0.0588  0.1896
 5399TIP3    H137688   3.786   4.570   6.804  0.5304 -1.1017  0.4398
 5399TIP3    H237689   3.636   4.588   6.817  0.7234  0.6671  0.2921
 5400TIP3   OH237690   4.038   1.862  13.508 -0.1353 -0.3495 -0.0867
 5400TIP3    H137691   3.989   1.847  13.427  0.6792 -0.6100 -0.5389
 5400TIP3    H237692   3.973   1.849  13.578 -0.7942 -0.3214 -0.6835
 5401TIP3   OH237693   2.372   0.520   4.644  0.3754  0.2044 -0.7158
 5401TIP3    H137694   2.450   0.464   4.635  0.4578  0.0947  0.6898
 5401TIP3    H237695   2.367   0.565   4.560  1.9130  0.1435 -0.8643
 5402TIP3   OH237696   0.805   4.403   2.336 -0.0880 -0.1357 -0.0989
 5402TIP3    H137697   0.856   4.483   2.346 -1.9127  0.9468  0.7895
 5402TIP3    H237698   0.797   4.391   2.242  0.7909  0.3323 -0.2410
 5403TIP3   OH237699   4.769   3.136   3.057  0.6319 -0.8204 -0.2562
 5403TIP3    H137700   4.749   3.090   2.975 -1.1964 -0.0682 -0.2594
 5403TIP3    H237701   4.810   3.218   3.028 -1.1145 -0.0130 -0.4845
 5404TIP3   OH237702   2.554   1.905  16.182 -0.1755  0.2021 -0.3699
 5404TIP3    H137703   2.495   1.878  16.253  0.0626 -0.7781 -0.5322
 5404TIP3    H237704   2.636   1.927  16.226 -0.2026  0.1372 -0.2859
 5405TIP3   OH237705   3.043   6.265  14.433 -0.1744 -0.4946  0.2288
 5405TIP3    H137706   3.095   6.341  14.407 -0.0442 -1.0277 -1.0890
 5405TIP3    H237707   3.082   6.235  14.514 -0.0005  0.6318  0.5697
 5406TIP3   OH237708   0.165   1.998   4.035  0.4256 -0.4856 -0.1949
 5406TIP3    H137709   0.131   2.007   3.946  0.5352 -3.8374 -0.6324
 5406TIP3    H237710   0.189   2.087   4.061 -0.2937  0.6396 -3.2334
 5407TIP3   OH237711   0.472   5.427   3.598  0.0956  0.3382  0.8631
 5407TIP3    H137712   0.453   5.487   3.526  0.0805 -1.3199 -0.5425
 5407TIP3    H237713   0.388   5.417   3.643  0.5867  3.1343  2.5342
 5408TIP3   OH237714   6.658   3.028  11.935 -0.5585 -0.3746  0.1352
 5408TIP3    H137715   6.636   2.966  11.865  0.2907 -1.3564  0.7163
 5408TIP3    H237716   6.696   3.103  11.890 -0.3101 -0.8616 -0.4744
 5409TIP3   OH237717   4.018   3.314   3.927 -0.3478 -0.3054 -0.3791
 5409TIP3    H137718   4.018   3.226   3.888  0.1638 -1.2020  1.5837
 5409TIP3    H237719   3.933   3.321   3.969 -0.1823 -0.0519 -0.0918
 5410TIP3   OH237720   4.730   0.337   2.942 -0.1953 -0.1989 -0.0722
 5410TIP3    H137721   4.706   0.251   2.977  1.6718 -0.5686  0.3670
 5410TIP3    H237722   4.762   0.318   2.854 -2.6282  0.4412 -1.1383
 5411TIP3   OH237723   5.564   5.689  11.573 -0.1349 -0.3096 -0.3387
 5411TIP3    H137724   5.602   5.704  11.659  0.4913 -0.4941 -0.5828
 5411TIP3    H237725   5.473   5.667  11.591  0.2037 -1.1947  0.3323
 5412TIP3   OH237726   4.034   1.694  15.659  0.2518  0.0770  0.0414
 5412TIP3    H137727   4.040   1.761  15.591  1.2894 -2.1484 -2.1674
 5412TIP3    H237728   3.957   1.642  15.636 -0.2643  0.1882  1.4468
 5413TIP3   OH237729   4.317   1.983  12.084 -0.6116 -0.0882  0.2552
 5413TIP3    H137730   4.317   1.911  12.147  2.0688 -0.4365 -0.0876
 5413TIP3    H237731   4.350   1.945  12.003 -0.0568  1.3018 -0.1905
 5414TIP3   OH237732   1.112   0.116  14.731  0.3202 -0.5888 -0.2582
 5414TIP3    H137733   1.030   0.103  14.682  0.3690  0.7219 -0.7037
 5414TIP3    H237734   1.179   0.120  14.663  0.4914  0.4458 -0.0281
 5415TIP3   OH237735   4.519   3.710   4.006 -0.2998 -0.4948  0.2762
 5415TIP3    H137736   4.467   3.741   3.932  0.1479  1.8865  0.9290
 5415TIP3    H237737   4.460   3.719   4.081  0.1988 -0.1975  0.6326
 5416TIP3   OH237738   1.437   5.254   0.898 -0.4935  0.0502  0.6202
 5416TIP3    H137739   1.386   5.173   0.899  0.2751 -0.4437  2.1923
 5416TIP3    H237740   1.434   5.283   0.807 -1.1357 -1.5251  0.1151
 5417TIP3   OH237741   5.264   0.630  13.597  0.1106  0.3192  0.5261
 5417TIP3    H137742   5.253   0.612  13.504  0.5446 -1.3742  0.7892
 5417TIP3    H237743   5.236   0.549  13.641  1.2790  0.5825  1.7867
 5418TIP3   OH237744   5.306   1.544  15.332 -0.1898 -0.0098 -0.0517
 5418TIP3    H137745   5.231   1.593  15.365 -0.3181  1.2841 -2.1553
 5418TIP3    H237746   5.272   1.457  15.313 -1.4395  0.8377 -1.8800
 5419TIP3   OH237747   5.030   1.068  16.215 -0.3224  0.0360 -0.1257
 5419TIP3    H137748   5.081   1.025  16.147 -1.4533  1.1482 -1.7001
 5419TIP3    H237749   4.942   1.076  16.178 -1.2464 -0.3724  1.9099
 5420TIP3   OH237750   1.903   2.103  15.567 -0.0986  0.1096  0.5006
 5420TIP3    H137751   1.849   2.178  15.543 -1.4242 -0.6863  0.9290
 5420TIP3    H237752   1.911   2.108  15.662 -0.3639 -0.3807  0.5550
 5421TIP3   OH237753   6.158   0.368   1.674 -0.1698 -0.7595  0.0407
 5421TIP3    H137754   6.088   0.312   1.641  0.4918 -1.6378  0.1030
 5421TIP3    H237755   6.213   0.309   1.727  0.8158 -0.1647 -0.3068
 5422TIP3   OH237756   3.368   5.631   0.192 -0.0155 -0.6448 -0.0117
 5422TIP3    H137757   3.307   5.696   0.228  0.9425  0.4365 -0.3292
 5422TIP3    H237758   3.436   5.682   0.148 -1.2878 -1.9016 -3.6840
 5423TIP3   OH237759   1.614   3.913   4.130 -0.6016 -1.0250  0.9043
 5423TIP3    H137760   1.668   3.874   4.200 -0.4723 -1.1553  0.7325
 5423TIP3    H237761   1.527   3.877   4.146 -0.9039  0.1180  1.8972
 5424TIP3   OH237762   6.131   1.261  14.323 -0.2382 -0.1621  0.0177
 5424TIP3    H137763   6.207   1.219  14.363  0.5694  2.9649  1.8469
 5424TIP3    H237764   6.057   1.235  14.378 -0.3974 -2.2715 -1.1112
 5425TIP3   OH237765   0.009   2.307   1.978  0.5399  0.2731  0.0469
 5425TIP3    H137766   0.074   2.276   1.915 -1.6646 -0.3737 -1.9865
 5425TIP3    H237767  -0.051   2.234   1.989 -0.1416  1.0351  1.4982
 5426TIP3   OH237768   2.854   0.655  15.914  0.0768  0.3295  0.1258
 5426TIP3    H137769   2.855   0.562  15.933 -1.8192 -0.2039 -2.2497
 5426TIP3    H237770   2.806   0.663  15.832  0.2857  3.3903  0.2368
 5427TIP3   OH237771   1.675   5.171   6.705 -0.3223  0.1375 -0.0141
 5427TIP3    H137772   1.591   5.180   6.751  0.3605  2.5229  0.8711
 5427TIP3    H237773   1.671   5.237   6.635 -0.2107 -1.5352 -1.6327
 5428TIP3   OH237774   2.257   6.120   6.171 -0.3998  0.5551  0.2599
 5428TIP3    H137775   2.180   6.083   6.128  1.2411 -2.2863 -0.3092
 5428TIP3    H237776   2.244   6.102   6.264 -0.3676  0.0031  0.1551
 5429TIP3   OH237777   0.455   5.343   1.001  0.1156 -0.6679  0.1747
 5429TIP3    H137778   0.521   5.404   1.034 -0.9128  0.9304 -0.6296
 5429TIP3    H237779   0.504   5.280   0.949  1.4555 -1.8004  2.7737
 5430TIP3   OH237780   0.646   6.475  15.601  0.5565 -0.2853  0.2496
 5430TIP3    H137781   0.694   6.393  15.609  1.0104  0.0016  0.4618
 5430TIP3    H237782   0.703   6.541  15.641  0.9094  0.3993 -1.3479
 5431TIP3   OH237783   0.061   3.293  14.836 -0.0820 -0.0972 -0.1316
 5431TIP3    H137784   0.156   3.293  14.825  0.0646  0.6555  1.0180
 5431TIP3    H237785   0.031   3.362  14.777  0.2418  0.6883  0.6023
 5432TIP3   OH237786   1.312   0.146  11.446 -0.0760  0.0476 -0.1418
 5432TIP3    H137787   1.392   0.164  11.397  0.4586 -0.1599  0.6554
 5432TIP3    H237788   1.242   0.182  11.391  0.7438  2.3081  0.2229
 5433TIP3   OH237789   1.638   5.311  14.884 -0.1653  0.2493 -0.3405
 5433TIP3    H137790   1.574   5.367  14.929 -0.1533  0.1660 -0.2211
 5433TIP3    H237791   1.721   5.334  14.925  0.0147  1.0115 -1.1193
 5434TIP3   OH237792   0.297   1.194   0.513  0.0969 -0.1260 -0.1590
 5434TIP3    H137793   0.218   1.239   0.543 -0.8241 -1.1521 -1.0013
 5434TIP3    H237794   0.275   1.101   0.518  2.0560 -0.5333  1.8093
 5435TIP3   OH237795   5.699   2.598   5.613 -0.3696 -0.1083 -0.1018
 5435TIP3    H137796   5.630   2.581   5.548 -0.3538  1.3320 -0.5055
 5435TIP3    H237797   5.746   2.674   5.580  0.9222 -0.5868  0.5885
 5436TIP3   OH237798   6.037   3.673   2.706  0.5379  0.3146 -0.0749
 5436TIP3    H137799   6.090   3.650   2.783  0.5869  2.0163  0.4187
 5436TIP3    H237800   6.102   3.694   2.639  0.4911 -0.3910 -0.3424
 5437TIP3   OH237801   0.816   5.883  12.530  0.3437 -0.1390  0.0353
 5437TIP3    H137802   0.860   5.912  12.450  0.5766 -0.4787  0.0414
 5437TIP3    H237803   0.878   5.901  12.600  0.2638 -0.1294  0.1046
 5438TIP3   OH237804   3.518   0.235  11.653  0.5647 -0.3794 -0.0939
 5438TIP3    H137805   3.465   0.244  11.573  0.9616 -1.4730 -0.4899
 5438TIP3    H237806   3.460   0.191  11.715  0.3411  0.2455  0.1498
 5439TIP3   OH237807   5.021   1.749   3.841  0.0067  0.3941 -0.7182
 5439TIP3    H137808   5.114   1.728   3.836 -0.4449 -1.6855 -0.7708
 5439TIP3    H237809   5.016   1.816   3.909  1.6590  1.3519 -1.4933
 5440TIP3   OH237810   5.622   1.755   2.632 -0.2512  0.2334 -0.2693
 5440TIP3    H137811   5.649   1.828   2.688  1.3332  0.0581 -0.7615
 5440TIP3    H237812   5.568   1.796   2.565 -0.9250  0.6679  0.5250
 5441TIP3   OH237813   4.487   5.589   2.196 -0.3968  0.0053 -1.0555
 5441TIP3    H137814   4.427   5.651   2.154 -1.1460  0.6495  0.8783
 5441TIP3    H237815   4.574   5.625   2.180 -0.8128  1.4474 -0.2014
 5442TIP3   OH237816   1.780   3.483  17.028 -0.3087 -0.1552 -0.6561
 5442TIP3    H137817   1.717   3.428  17.074 -0.2150  0.8574  0.6953
 5442TIP3    H237818   1.824   3.533  17.097 -0.2533  1.4692 -1.8350
 5443TIP3   OH237819   3.068   2.343  16.136  0.1822 -0.1746  0.7283
 5443TIP3    H137820   3.010   2.274  16.104 -0.3153  1.1439 -1.3095
 5443TIP3    H237821   3.122   2.366  16.060  0.4405  1.5500  1.4191
 5444TIP3   OH237822   4.127   4.638  15.641 -0.0633  0.3655 -0.8524
 5444TIP3    H137823   4.032   4.626  15.643 -0.5690  3.9754  1.1358
 5444TIP3    H237824   4.157   4.605  15.725  0.3858 -0.0829 -1.1837
 5445TIP3   OH237825   2.695   5.147   4.608 -0.0760  0.4138  0.3112
 5445TIP3    H137826   2.707   5.164   4.515 -0.0677  0.6560  0.3541
 5445TIP3    H237827   2.737   5.222   4.651 -0.6147  0.6108  0.4919
 5446TIP3   OH237828   0.692   4.388  14.693 -0.5170 -0.0273 -0.2902
 5446TIP3    H137829   0.764   4.330  14.666  1.7063  2.5469 -0.0398
 5446TIP3    H237830   0.682   4.372  14.786 -0.5482 -0.6783 -0.3998
 5447TIP3   OH237831   0.876   3.235   2.786  0.0842 -0.1642  0.0242
 5447TIP3    H137832   0.914   3.307   2.735  0.2799 -0.2633  0.0288
 5447TIP3    H237833   0.915   3.156   2.749 -0.6930 -0.3218 -0.4631
 5448TIP3   OH237834   1.331   4.088   1.986  0.1585  0.0655 -0.1539
 5448TIP3    H137835   1.372   4.004   1.965 -0.0069  0.0729 -0.5180
 5448TIP3    H237836   1.374   4.116   2.067  0.0548 -0.4762  0.0925
 5449TIP3   OH237837   1.472   3.072   2.365  0.1573 -0.1726 -0.0137
 5449TIP3    H137838   1.468   3.012   2.439  1.5029 -0.1120  0.1310
 5449TIP3    H237839   1.516   3.150   2.399 -0.1914  0.2860 -0.5946
 5450TIP3   OH237840   0.505   0.264   6.436  0.6552  0.3573  0.3732
 5450TIP3    H137841   0.503   0.226   6.524 -0.2067  0.9774  0.6325
 5450TIP3    H237842   0.413   0.284   6.417  0.9728  1.3325 -0.1812
 5451TIP3   OH237843   3.765   2.336  12.950  0.4112  0.1768  0.7868
 5451TIP3    H137844   3.759   2.241  12.939  2.3715  0.1859 -0.6266
 5451TIP3    H237845   3.679   2.369  12.923 -0.6284 -1.2332  2.2196
 5452TIP3   OH237846   1.939   0.830  14.666  0.5131  0.0222  0.0846
 5452TIP3    H137847   1.847   0.805  14.665  1.0227 -1.8981 -0.5622
 5452TIP3    H237848   1.956   0.861  14.577  0.9016 -1.1996 -0.2716
 5453TIP3   OH237849   1.285   0.719   1.988  0.1832  0.2952 -0.3090
 5453TIP3    H137850   1.262   0.806   1.957 -1.0817 -0.0096 -0.2825
 5453TIP3    H237851   1.260   0.719   2.081  0.7119  0.0943 -0.1656
 5454TIP3   OH237852   2.831   0.570  13.039 -0.3327 -0.4713 -0.1452
 5454TIP3    H137853   2.771   0.506  13.000  0.2536 -1.6860  0.9250
 5454TIP3    H237854   2.807   0.572  13.131 -0.2381  0.7443 -0.1487
 5455TIP3   OH237855   5.712   6.758   3.402 -0.5462 -0.0052  0.2185
 5455TIP3    H137856   5.781   6.725   3.461 -0.3241  0.1087  0.0230
 5455TIP3    H237857   5.758   6.776   3.320 -1.2721 -2.3831 -0.7521
 5456TIP3   OH237858   5.553   6.763   1.929  0.4935 -0.1399 -0.1591
 5456TIP3    H137859   5.595   6.756   2.015  0.3215 -2.0344 -0.1950
 5456TIP3    H237860   5.591   6.691   1.879 -0.8940 -0.2820 -1.0179
 5457TIP3   OH237861   4.615   5.745  12.637 -0.5511 -0.3350 -0.0001
 5457TIP3    H137862   4.556   5.708  12.702  0.4376  0.3379  1.2810
 5457TIP3    H237863   4.563   5.744  12.556 -2.1673 -0.1715  0.9981
 5458TIP3   OH237864   0.658   1.709   1.355  0.7051  0.0879  0.5819
 5458TIP3    H137865   0.622   1.747   1.436 -0.2610 -0.7065  0.5330
 5458TIP3    H237866   0.753   1.719   1.364  0.5263  1.3363  1.1508
 5459TIP3   OH237867   2.491   6.384  12.346 -0.1358  0.1742 -0.2525
 5459TIP3    H137868   2.523   6.393  12.436 -2.0705  2.0125  0.3068
 5459TIP3    H237869   2.440   6.303  12.346 -0.3911  0.3334  0.4014
 5460TIP3   OH237870   0.227   6.350   3.088 -0.0886  0.2673 -0.4401
 5460TIP3    H137871   0.234   6.419   3.154 -0.1788  0.9541 -1.1446
 5460TIP3    H237872   0.237   6.395   3.005 -1.4533 -0.3758 -0.9733
 5461TIP3   OH237873   2.927   1.599   6.024 -0.1573  0.0625 -0.2818
 5461TIP3    H137874   2.871   1.559   5.957 -0.4919 -1.0284  0.6331
 5461TIP3    H237875   3.005   1.626   5.977 -1.1129  0.8626 -1.4316
 5462TIP3   OH237876   5.423   1.456  11.480  0.0101  0.7945  0.2481
 5462TIP3    H137877   5.495   1.490  11.426 -2.7485  1.8400 -2.9055
 5462TIP3    H237878   5.369   1.532  11.499 -2.1496 -0.5166 -0.4381
 5463TIP3   OH237879   5.291   5.647  14.608  0.2599 -0.2870  0.4127
 5463TIP3    H137880   5.383   5.674  14.602  0.6140 -1.1813  1.5986
 5463TIP3    H237881   5.295   5.552  14.621 -0.8036 -0.2003  1.4199
 5464TIP3   OH237882   1.625   2.055   5.702  0.4698  0.7655  0.2365
 5464TIP3    H137883   1.675   2.070   5.621  2.0258 -0.0075  1.0202
 5464TIP3    H237884   1.646   2.129   5.758 -0.1215  0.9854  0.1715
 5465TIP3   OH237885   4.058   0.945   5.307 -0.6839 -0.0012 -0.4100
 5465TIP3    H137886   3.996   0.983   5.369 -0.2609 -2.2693  1.4935
 5465TIP3    H237887   4.042   0.851   5.312  1.8541 -0.5111 -1.0447
 5466TIP3   OH237888   4.225   5.178  16.072  0.1809 -0.7768 -0.6192
 5466TIP3    H137889   4.185   5.152  16.155 -0.5853 -1.3116 -1.1601
 5466TIP3    H237890   4.318   5.191  16.094  0.0814 -1.4180  0.2108
 5467TIP3   OH237891   0.866   2.409   4.342 -0.2324 -0.6347 -0.0983
 5467TIP3    H137892   0.902   2.496   4.323 -1.7505  0.1441  0.5880
 5467TIP3    H237893   0.856   2.368   4.256  1.7134 -0.6414 -0.3406
 5468TIP3   OH237894   0.651   3.444  15.048  0.5030 -0.5756 -0.0235
 5468TIP3    H137895   0.567   3.473  15.012 -0.1411 -1.6900  0.5529
 5468TIP3    H237896   0.697   3.405  14.973  0.0062 -1.0378 -0.0942
 5469TIP3   OH237897   3.336   2.328   3.480 -0.1580  0.1908 -0.5126
 5469TIP3    H137898   3.422   2.286   3.481 -0.7936 -1.1338 -0.5186
 5469TIP3    H237899   3.315   2.341   3.573 -0.4783 -0.5827 -0.4767
 5470TIP3   OH237900   1.519   2.153  15.264  0.1658 -0.6819 -0.1803
 5470TIP3    H137901   1.610   2.174  15.281 -0.4458  0.9232  1.2480
 5470TIP3    H237902   1.507   2.065  15.301  1.5293 -1.6268 -1.8959
 5471TIP3   OH237903   5.897   3.369   3.766  0.6819  0.0822 -0.0080
 5471TIP3    H137904   5.965   3.403   3.823  0.2077  1.2089 -0.1044
 5471TIP3    H237905   5.838   3.321   3.825  1.5069 -0.8220  0.0839
 5472TIP3   OH237906   0.547   6.188   1.648  1.0269 -0.3382  0.1903
 5472TIP3    H137907   0.565   6.107   1.694 -0.1264 -1.0902 -0.6617
 5472TIP3    H237908   0.621   6.245   1.670  1.3735 -1.2810  1.5366
 5473TIP3   OH237909   3.872   4.064   2.028 -1.0178  0.4165  0.0124
 5473TIP3    H137910   3.910   4.149   2.053  2.1366 -0.1419 -2.4609
 5473TIP3    H237911   3.782   4.069   2.058 -0.8406  4.5382  0.2724
 5474TIP3   OH237912   1.684   5.720  14.414  0.2526  0.3377  0.1692
 5474TIP3    H137913   1.699   5.684  14.326 -0.9047 -0.1840  0.1845
 5474TIP3    H237914   1.742   5.796  14.418  1.2828 -0.3914 -0.5661
 5475TIP3   OH237915   5.017   0.727  14.526  0.0118  0.8863 -0.1804
 5475TIP3    H137916   4.928   0.738  14.561 -0.1471 -0.3520 -0.1704
 5475TIP3    H237917   5.004   0.699  14.436  0.4091  1.2483 -0.3548
 5476TIP3   OH237918   2.166   5.474  12.522  0.5133  0.5091  0.2333
 5476TIP3    H137919   2.201   5.415  12.590 -0.5321 -0.6746 -0.2238
 5476TIP3    H237920   2.073   5.483  12.545  0.1776  0.1877 -0.9703
 5477TIP3   OH237921   4.591   3.160  16.915 -0.3448 -0.2416 -0.4142
 5477TIP3    H137922   4.686   3.150  16.908 -0.1318  1.4276 -0.1350
 5477TIP3    H237923   4.576   3.187  17.006 -1.2663 -2.2052  0.0522
 5478TIP3   OH237924   4.644   5.547  15.028  0.2415 -0.4832 -0.1100
 5478TIP3    H137925   4.577   5.530  14.962  0.7134  2.2804 -1.3538
 5478TIP3    H237926   4.719   5.580  14.979  0.9433  0.7146  1.6923
 5479TIP3   OH237927   6.510   4.282  15.700 -0.1942  0.5989 -0.0571
 5479TIP3    H137928   6.605   4.284  15.713 -0.3038 -1.2732  1.2657
 5479TIP3    H237929   6.498   4.279  15.605  1.1011 -0.4670 -0.1908
 5480TIP3   OH237930   4.123   5.215  16.938  0.7603 -0.1433 -0.7340
 5480TIP3    H137931   4.073   5.291  16.908 -0.3265 -0.7465 -0.4630
 5480TIP3    H237932   4.148   5.170  16.858  2.1692  0.9598 -0.9465
 5481TIP3   OH237933   6.609   4.297   2.550  0.3203 -0.4766 -0.9663
 5481TIP3    H137934   6.553   4.242   2.494 -0.1530 -0.8610 -0.1366
 5481TIP3    H237935   6.553   4.319   2.625  0.7492  0.5362 -0.9383
 5482TIP3   OH237936   4.906   6.391   3.469 -0.1410  0.3755  0.1287
 5482TIP3    H137937   4.889   6.407   3.376  1.0347  0.0251 -0.1601
 5482TIP3    H237938   4.894   6.476   3.511  0.4469  0.7790 -0.5196
 5483TIP3   OH237939   6.811   2.544  13.401 -0.6413  0.3295 -0.4449
 5483TIP3    H137940   6.758   2.531  13.323 -0.1394  0.0226 -0.7410
 5483TIP3    H237941   6.893   2.498  13.382 -0.7437 -0.2628  0.4975
 5484TIP3   OH237942   5.712   3.075  13.754 -0.2325 -0.1576  0.1875
 5484TIP3    H137943   5.735   3.088  13.662  0.8459  0.9814  0.6023
 5484TIP3    H237944   5.716   2.980  13.766 -0.8156 -0.3445 -1.0516
 5485TIP3   OH237945   5.804   5.497  16.677  0.7834 -0.4094 -0.4495
 5485TIP3    H137946   5.778   5.487  16.586  0.4510  1.0062 -0.5238
 5485TIP3    H237947   5.829   5.589  16.685  4.4360 -1.3834 -0.0344
 5486TIP3   OH237948   5.758   1.129   2.662 -0.7840  0.3693  0.1719
 5486TIP3    H137949   5.823   1.154   2.728 -0.5076  0.6380 -0.1977
 5486TIP3    H237950   5.758   1.033   2.665 -0.5878  0.3743  0.3888
 5487TIP3   OH237951   2.179   0.379   5.123  0.2279 -0.1230 -0.1280
 5487TIP3    H137952   2.120   0.329   5.066  1.9912  0.5136 -2.5682
 5487TIP3    H237953   2.257   0.325   5.131  0.4509  0.3156  0.7821
 5488TIP3   OH237954   5.784   5.682   2.785 -0.1974 -0.1418 -0.3424
 5488TIP3    H137955   5.706   5.642   2.747 -1.1727  1.6605 -0.2659
 5488TIP3    H237956   5.810   5.749   2.723  1.5241 -0.9560 -0.5400
 5489TIP3   OH237957   2.041   0.027   1.779 -0.1781 -0.5768 -0.2288
 5489TIP3    H137958   1.986  -0.002   1.707  1.1911 -1.4187 -0.9563
 5489TIP3    H237959   2.094  -0.050   1.801 -0.4457 -0.2775  1.5465
 5490TIP3   OH237960   2.067   0.864  14.996  0.3155 -0.3024 -0.2969
 5490TIP3    H137961   2.045   0.922  15.069  3.2949  0.8982 -0.2586
 5490TIP3    H237962   1.990   0.867  14.939 -2.2778 -1.6778  2.9701
 5491TIP3   OH237963   5.364   2.946   3.331 -0.3093 -0.1253 -0.4112
 5491TIP3    H137964   5.353   2.884   3.259 -0.8064 -1.4099  0.7246
 5491TIP3    H237965   5.450   2.924   3.368 -0.4828 -0.1308 -0.0084
 5492TIP3   OH237966   1.560   3.755  16.152 -0.2504 -0.1250  0.0711
 5492TIP3    H137967   1.587   3.675  16.199 -0.7862 -1.8513 -2.4394
 5492TIP3    H237968   1.588   3.740  16.062 -1.4241  2.0367 -0.6877
 5493TIP3   OH237969   3.342   2.335  13.012 -0.5452 -0.4155 -0.0218
 5493TIP3    H137970   3.263   2.291  13.046 -0.9283 -0.5481 -1.0543
 5493TIP3    H237971   3.333   2.426  13.040 -0.2135 -0.7813  1.3286
 5494TIP3   OH237972   0.740   0.511   0.395 -0.5057  0.1297 -0.1805
 5494TIP3    H137973   0.736   0.431   0.342 -0.3695  0.7754 -1.1909
 5494TIP3    H237974   0.718   0.483   0.483 -0.3861 -1.0401 -0.5151
 5495TIP3   OH237975   0.285   2.546  11.237 -0.1452  0.7479  0.7182
 5495TIP3    H137976   0.353   2.574  11.297 -0.2478  0.0138  1.1847
 5495TIP3    H237977   0.318   2.464  11.199  0.0270  1.3290 -0.4051
 5496TIP3   OH237978   3.376   5.123  12.708 -0.4700 -0.2121 -0.1436
 5496TIP3    H137979   3.471   5.126  12.697 -0.0069 -0.7128  3.2450
 5496TIP3    H237980   3.341   5.171  12.633  2.4331 -0.2983 -1.6033
 5497TIP3   OH237981   1.002   2.431   0.799 -0.0187 -0.1542 -0.0510
 5497TIP3    H137982   0.987   2.485   0.721  2.2530  0.5508 -0.0438
 5497TIP3    H237983   1.098   2.425   0.806 -0.2162 -1.8899  1.5409
 5498TIP3   OH237984   1.124   6.044   6.133 -0.6969 -0.5754  0.3061
 5498TIP3    H137985   1.185   6.036   6.207 -1.5298 -2.7134  0.7944
 5498TIP3    H237986   1.051   6.094   6.169  0.8796  2.3401 -0.3931
 5499TIP3   OH237987   3.478   6.111  11.910 -0.2820 -0.2416 -0.0751
 5499TIP3    H137988   3.495   6.022  11.943 -2.4359 -0.6182  0.0726
 5499TIP3    H237989   3.413   6.098  11.842 -1.5122  1.3699  0.7849
 5500TIP3   OH237990   1.572   3.652  10.955  0.6308  0.3105  0.3418
 5500TIP3    H137991   1.560   3.747  10.956  2.3584  0.5334  0.7411
 5500TIP3    H237992   1.487   3.617  10.926 -1.3126  1.7530  3.9777
 5501TIP3   OH237993   5.454   0.360   6.056 -0.8217  0.3396  0.4693
 5501TIP3    H137994   5.398   0.377   5.980 -0.2639 -1.5829 -0.3925
 5501TIP3    H237995   5.395   0.322   6.121 -0.5278 -1.9299 -0.5328
 5502TIP3   OH237996   1.840   1.617  13.601 -0.1758 -0.0449 -0.1512
 5502TIP3    H137997   1.783   1.562  13.655  1.8420 -0.6749  1.3675
 5502TIP3    H237998   1.926   1.576  13.606  0.9300  2.1127 -0.6430
 5503TIP3   OH237999   0.293   5.466   5.800  0.2001  0.1330  0.4172
 5503TIP3    H138000   0.314   5.406   5.729  1.3801  2.5451 -1.3261
 5503TIP3    H238001   0.219   5.517   5.767 -0.3033  0.1562  1.5694
 5504TIP3   OH238002   4.548   1.245  14.844  0.6352  0.4147  0.3458
 5504TIP3    H138003   4.476   1.192  14.879  1.5205 -1.3605 -0.4632
 5504TIP3    H238004   4.560   1.314  14.909 -1.5694  0.5516  0.6621
 5505TIP3   OH238005   4.757   2.211   1.240  0.0078 -0.1619 -0.1965
 5505TIP3    H138006   4.808   2.131   1.244  2.5544  1.3669 -0.5938
 5505TIP3    H238007   4.765   2.240   1.149 -1.3775  0.2276 -0.2073
 5506TIP3   OH238008   1.634   2.220  10.740  0.2397 -0.3826 -0.6816
 5506TIP3    H138009   1.542   2.232  10.763  0.5007  0.1558  0.0956
 5506TIP3    H238010   1.680   2.291  10.784  0.9350 -0.1711 -1.7101
 5507TIP3   OH238011   2.427   2.212  16.903  0.0778 -0.3304 -0.3958
 5507TIP3    H138012   2.382   2.128  16.909  0.1441 -0.5061 -1.9928
 5507TIP3    H238013   2.519   2.192  16.919  0.3932 -0.9189 -2.7670
 5508TIP3   OH238014   4.486   0.591   3.487 -0.1322 -0.0204  0.0195
 5508TIP3    H138015   4.396   0.614   3.463 -0.5235 -2.9751 -1.5605
 5508TIP3    H238016   4.540   0.637   3.423 -0.5002  1.7480  0.9604
 5509TIP3   OH238017   2.872   4.354   3.744  0.5138  0.1787 -0.1860
 5509TIP3    H138018   2.788   4.394   3.723 -0.4063 -1.3001  0.6558
 5509TIP3    H238019   2.930   4.384   3.673 -0.2483  2.5944  0.1623
 5510TIP3   OH238020   3.207   4.865  10.839 -0.0110  0.1913 -0.0725
 5510TIP3    H138021   3.269   4.844  10.908  0.8994  0.4554 -0.7943
 5510TIP3    H238022   3.214   4.792  10.777 -0.6901  0.0390  0.0289
 5511TIP3   OH238023   2.050   3.393   6.625  0.3088  0.0144 -0.1491
 5511TIP3    H138024   1.970   3.352   6.658  0.2016  0.0068 -0.4177
 5511TIP3    H238025   2.084   3.332   6.560  0.4013  0.1341 -0.2140
 5512TIP3   OH238026   5.795   1.533  14.120  0.2065  0.1086 -0.2396
 5512TIP3    H138027   5.741   1.514  14.196  1.8191  0.8411  1.1145
 5512TIP3    H238028   5.783   1.457  14.063  3.2833 -3.1992  3.2193
 5513TIP3   OH238029   4.767   5.474  16.786  0.1142 -0.1120  0.0728
 5513TIP3    H138030   4.858   5.444  16.795  0.1491  0.4858  1.7603
 5513TIP3    H238031   4.773   5.569  16.789 -0.5218 -0.0575 -0.3718
 5514TIP3   OH238032   0.212   0.671   4.169  0.1611 -0.2566  0.5358
 5514TIP3    H138033   0.136   0.703   4.218 -0.3250  1.1104 -1.0402
 5514TIP3    H238034   0.288   0.708   4.216 -0.3478  2.2574 -0.5150
 5515TIP3   OH238035   4.437   3.998  13.739  0.0621  0.2173 -0.4738
 5515TIP3    H138036   4.389   4.056  13.680 -0.2286  0.9254  0.4491
 5515TIP3    H238037   4.399   3.912  13.723 -0.2290  0.4559 -1.0971
 5516TIP3   OH238038   5.340   2.091  12.864  0.0559  0.0692 -0.1251
 5516TIP3    H138039   5.335   2.163  12.802 -0.0546  1.9334  1.9849
 5516TIP3    H238040   5.428   2.096  12.900  0.9202 -2.4351 -1.7579
 5517TIP3   OH238041   0.071   3.719  11.177  0.2037 -0.2121 -0.4596
 5517TIP3    H138042   0.042   3.732  11.087  0.5165 -0.6804 -0.6280
 5517TIP3    H238043   0.068   3.807  11.216  1.2768  0.1898 -1.2814
 5518TIP3   OH238044   6.659   5.783  13.216 -0.5152  0.3570  0.5842
 5518TIP3    H138045   6.641   5.701  13.261  3.0589  0.4100  2.2963
 5518TIP3    H238046   6.716   5.759  13.143  0.2137  1.2452  0.8475
 5519TIP3   OH238047   1.361   5.988  12.480 -0.3318 -0.1126  0.0422
 5519TIP3    H138048   1.267   5.971  12.472 -0.5835  1.8010 -1.3969
 5519TIP3    H238049   1.377   5.995  12.574 -2.0227  1.6854  0.2148
 5520TIP3   OH238050   4.455   2.854   3.648  0.2499 -0.1676 -0.1341
 5520TIP3    H138051   4.444   2.810   3.564  0.3315  0.1646 -0.3188
 5520TIP3    H238052   4.547   2.881   3.649  0.2309 -0.1090  0.0327
 5521TIP3   OH238053   3.874   4.409   4.504  0.2640  0.0767  0.7164
 5521TIP3    H138054   3.821   4.411   4.583  0.2947 -1.6623  0.7947
 5521TIP3    H238055   3.963   4.396   4.534  0.2391 -0.8983  0.3997
 5522TIP3   OH238056   0.341   4.226  12.458 -0.2999 -0.0424 -0.3971
 5522TIP3    H138057   0.342   4.321  12.443 -1.3345 -0.0851 -0.7533
 5522TIP3    H238058   0.257   4.209  12.500 -0.1025 -0.8032 -0.2975
 5523TIP3   OH238059   4.687   3.993   4.185 -0.0367 -0.2359 -0.3919
 5523TIP3    H138060   4.752   4.021   4.120  0.9776 -1.3553  0.1088
 5523TIP3    H238061   4.637   3.925   4.140 -0.6427  0.3824 -0.6599
 5524TIP3   OH238062   4.355   3.385   4.917  0.0740 -0.1222  0.4330
 5524TIP3    H138063   4.334   3.468   4.874  0.7145 -0.2787 -0.1792
 5524TIP3    H238064   4.399   3.411   4.998 -0.5423  0.1588  0.6755
 5525TIP3   OH238065   1.653   0.549   6.091 -0.0342  0.2186 -0.0969
 5525TIP3    H138066   1.623   0.560   6.181 -0.1245  1.4180 -0.2606
 5525TIP3    H238067   1.581   0.582   6.037 -0.5011 -1.6600 -0.6635
 5526TIP3   OH238068   3.215   3.493   3.617  0.3446 -0.4074 -0.4524
 5526TIP3    H138069   3.166   3.554   3.672 -0.3968 -1.6175  0.2427
 5526TIP3    H238070   3.148   3.438   3.577  1.1107 -1.7812  0.1472
 5527TIP3   OH238071   0.992   3.578   1.248  0.8720  0.7688 -0.0235
 5527TIP3    H138072   1.040   3.587   1.165 -1.2263 -1.5256 -1.5888
 5527TIP3    H238073   0.968   3.485   1.251 -0.0458  1.0533  2.6554
 5528TIP3   OH238074   2.247   2.703   3.608  0.5213 -0.1542  0.3555
 5528TIP3    H138075   2.339   2.698   3.583  1.3571  1.9148  2.7883
 5528TIP3    H238076   2.221   2.793   3.589 -0.8918 -0.5945  0.1021
 5529TIP3   OH238077   5.386   1.725   3.519  0.1434  0.6430  0.6098
 5529TIP3    H138078   5.406   1.631   3.513  0.0937  0.5764  1.4430
 5529TIP3    H238079   5.299   1.728   3.559 -0.9529  0.9647 -1.7339
 5530TIP3   OH238080   2.687   2.927   4.286 -0.1705 -0.0034 -0.1566
 5530TIP3    H138081   2.628   2.966   4.350 -0.2495 -1.7171  0.8387
 5530TIP3    H238082   2.641   2.935   4.203 -0.7678  0.7972  0.2502
 5531TIP3   OH238083   2.177   4.290  10.687  0.0020 -0.0366  0.5513
 5531TIP3    H138084   2.088   4.287  10.721 -0.2138 -0.7598 -0.0643
 5531TIP3    H238085   2.219   4.361  10.736 -0.6023 -0.3758  1.5706
 5532TIP3   OH238086   1.210   6.100  15.663 -0.0380 -0.6072  0.4143
 5532TIP3    H138087   1.238   6.189  15.685 -2.1825 -0.2388  1.7330
 5532TIP3    H238088   1.232   6.048  15.741  1.0131 -1.2121 -0.2687
 5533TIP3   OH238089   2.646   0.484   5.202 -0.1722 -0.6643 -0.2590
 5533TIP3    H138090   2.668   0.499   5.294 -0.5997 -0.6367 -0.1593
 5533TIP3    H238091   2.696   0.406   5.177  2.9150  1.4710 -1.0834
 5534TIP3   OH238092   4.856   3.095   2.720  0.3714 -0.1386  0.5784
 5534TIP3    H138093   4.849   3.092   2.625 -0.2062 -2.4185  0.6603
 5534TIP3    H238094   4.872   3.187   2.740 -0.4706  0.5236 -1.6524
 5535TIP3   OH238095   6.358   1.440   0.326 -0.1157 -0.1686  0.3267
 5535TIP3    H138096   6.385   1.506   0.389  1.7748  0.4568 -1.1010
 5535TIP3    H238097   6.421   1.369   0.336 -0.9110 -0.8818  0.4022
 5536TIP3   OH238098   2.795   5.463  11.712 -0.8120 -0.2106 -0.4285
 5536TIP3    H138099   2.752   5.418  11.639  2.2454 -2.4528 -0.9526
 5536TIP3    H238100   2.864   5.403  11.740  2.4583  3.5083 -0.0927
 5537TIP3   OH238101   4.699   4.818   2.792  0.2370  0.0727  0.4358
 5537TIP3    H138102   4.654   4.891   2.835  1.2649  1.8042 -1.3592
 5537TIP3    H238103   4.791   4.835   2.808  0.4911 -0.6837 -0.2287
 5538TIP3   OH238104   5.799   4.854  15.518  0.2515  0.4721 -0.3668
 5538TIP3    H138105   5.825   4.946  15.513  0.1314  0.6874  2.1590
 5538TIP3    H238106   5.819   4.829  15.609  0.4796 -2.0501 -1.0761
 5539TIP3   OH238107   3.668   2.473   4.574  0.3797 -0.2120 -0.8098
 5539TIP3    H138108   3.657   2.485   4.480 -0.4722 -0.2113 -0.7162
 5539TIP3    H238109   3.728   2.543   4.601  1.0152 -0.5156 -1.4276
 5540TIP3   OH238110   5.838   2.160  15.563 -0.2060  0.2530  0.1937
 5540TIP3    H138111   5.815   2.235  15.618 -0.0031  0.5053 -0.0660
 5540TIP3    H238112   5.871   2.095  15.624 -0.1794  0.4553  0.3968
 5541TIP3   OH238113   4.660   2.460   1.515  0.6274  0.2456  0.2447
 5541TIP3    H138114   4.736   2.404   1.501  0.1366  0.1570 -2.2640
 5541TIP3    H238115   4.667   2.528   1.448 -0.4067  1.4334  1.3173
 5542TIP3   OH238116   1.522   0.122   2.294 -0.0951  0.1031 -0.2974
 5542TIP3    H138117   1.500   0.075   2.374 -0.7171  0.7885 -0.0590
 5542TIP3    H238118   1.613   0.098   2.276  0.2486  0.4292  0.9594
 5543TIP3   OH238119   6.183   3.829   0.396  0.0123 -0.0005  0.1996
 5543TIP3    H138120   6.217   3.888   0.463  2.6703 -0.1737 -0.9502
 5543TIP3    H238121   6.254   3.819   0.334 -1.2648 -2.4566 -0.9488
 5544TIP3   OH238122   4.757   4.148   0.940  0.2638 -0.0092 -0.1366
 5544TIP3    H138123   4.727   4.066   0.901 -0.3355 -1.1673  2.6280
 5544TIP3    H238124   4.845   4.161   0.905  0.1257 -1.5180 -1.0703
 5545TIP3   OH238125   3.452   5.786   1.567  0.2611 -0.5840 -0.0078
 5545TIP3    H138126   3.422   5.810   1.655  2.8030 -1.3534  1.1090
 5545TIP3    H238127   3.373   5.788   1.513 -1.2125  0.5767  2.1469
 5546TIP3   OH238128   1.077   1.472   5.347 -0.1590 -0.7347 -0.2576
 5546TIP3    H138129   1.107   1.544   5.402 -0.3507 -0.5010 -0.4560
 5546TIP3    H238130   1.157   1.441   5.304 -0.3178  0.4868 -1.4850
 5547TIP3   OH238131   3.320   6.729  16.606 -0.1045 -0.7482  0.4098
 5547TIP3    H138132   3.383   6.782  16.656 -2.2203 -0.2523  2.6689
 5547TIP3    H238133   3.286   6.790  16.540  1.4432 -0.9102 -0.5755
 5548TIP3   OH238134   6.468   0.423   4.281 -1.1193 -0.4093  0.3275
 5548TIP3    H138135   6.386   0.463   4.312 -1.3086 -0.1565 -0.4704
 5548TIP3    H238136   6.479   0.345   4.335 -1.7804 -0.3277  0.5858
 5549TIP3   OH238137   6.440   2.990  11.674 -0.0989 -0.1786 -0.5631
 5549TIP3    H138138   6.522   2.942  11.683 -0.0072  0.3401  1.7041
 5549TIP3    H238139   6.394   2.974  11.756 -1.1201  1.6515 -0.7473
 5550TIP3   OH238140   3.966   3.767   6.069  0.1276  0.6677 -0.4166
 5550TIP3    H138141   3.881   3.788   6.107 -0.4319  0.8211 -1.7176
 5550TIP3    H238142   3.960   3.674   6.046  0.3252  0.6618 -0.4414
 5551TIP3   OH238143   6.667   5.227   2.463  0.4506  0.0731  0.1739
 5551TIP3    H138144   6.588   5.258   2.420  0.9846 -0.2084 -1.0221
 5551TIP3    H238145   6.715   5.307   2.486  0.3606  0.2171 -0.1326
 5552TIP3   OH238146   1.911   2.700   1.627 -0.2992  0.3047 -0.5960
 5552TIP3    H138147   1.850   2.666   1.692 -0.9494  0.1290 -1.2923
 5552TIP3    H238148   1.975   2.629   1.616 -0.6498  0.0081 -0.7469
 5553TIP3   OH238149   6.035   2.033   0.054  0.1288  0.3241 -0.0672
 5553TIP3    H138150   5.963   1.989   0.100  0.8088 -0.0854  0.6321
 5553TIP3    H238151   6.045   1.983  -0.027  0.3015 -0.2697  0.3128
 5554TIP3   OH238152   2.996   6.289   0.446 -0.0433  0.5095  0.4374
 5554TIP3    H138153   2.915   6.259   0.404 -1.2627  2.5626  1.2421
 5554TIP3    H238154   3.039   6.342   0.379  1.3646 -1.6856 -0.4636
 5555TIP3   OH238155   1.476   4.074  15.139 -0.4602 -0.4204  0.1512
 5555TIP3    H138156   1.503   4.127  15.214 -0.1219 -0.2311 -0.1018
 5555TIP3    H238157   1.405   4.124  15.098  1.1606  0.8341 -1.2359
 5556TIP3   OH238158   2.290   1.343   4.444 -0.0451  0.6409 -0.4481
 5556TIP3    H138159   2.224   1.411   4.426 -0.3910  0.4187 -0.0148
 5556TIP3    H238160   2.372   1.381   4.412  0.1559  2.1361  1.6960
 5557TIP3   OH238161   2.705   5.046   3.302 -0.0016 -0.2939  0.2833
 5557TIP3    H138162   2.695   5.127   3.252  0.6423  0.1417  0.8413
 5557TIP3    H238163   2.718   4.978   3.237 -0.7103  0.0289 -0.1983
 5558TIP3   OH238164   1.288   1.048   6.200 -0.2651 -0.5524  0.7281
 5558TIP3    H138165   1.284   0.982   6.269  0.7923  0.1534  1.4764
 5558TIP3    H238166   1.327   1.125   6.243 -3.3559  1.2661  0.4365
 5559TIP3   OH238167   3.794   6.434   3.866 -0.1785 -0.5724 -0.5549
 5559TIP3    H138168   3.821   6.472   3.782  2.7482 -0.2074  0.4851
 5559TIP3    H238169   3.744   6.356   3.843  1.9531 -1.3646 -2.6423
 5560TIP3   OH238170   4.766   0.403   2.360 -0.6838 -0.1867 -0.2526
 5560TIP3    H138171   4.796   0.476   2.415 -0.9462  0.4193 -0.8989
 5560TIP3    H238172   4.708   0.444   2.296 -2.4244 -1.2523  0.6008
 5561TIP3   OH238173   0.492   4.100  17.292 -0.3557  0.7133  0.1109
 5561TIP3    H138174   0.549   4.159  17.342 -2.0478  0.6975  2.1299
 5561TIP3    H238175   0.525   4.104  17.202  1.7455  2.0050  0.9171
 5562TIP3   OH238176   6.612   1.762   0.825 -0.1109  0.2405 -0.2917
 5562TIP3    H138177   6.565   1.718   0.896  1.5843 -0.2897  0.5485
 5562TIP3    H238178   6.582   1.720   0.745 -2.6087  1.3567  0.0298
 5563TIP3   OH238179   5.603   3.039  14.715  0.2323  0.0493  0.0527
 5563TIP3    H138180   5.556   3.089  14.782  2.0317  0.4614  1.0261
 5563TIP3    H238181   5.689   3.024  14.753  1.1043 -0.1508 -1.9787
 5564TIP3   OH238182   2.106   0.747  11.421 -0.2923  0.3716  0.9968
 5564TIP3    H138183   2.164   0.802  11.474 -0.3001  0.8755  0.4962
 5564TIP3    H238184   2.051   0.810  11.374 -0.6116 -0.0784  0.7679
 5565TIP3   OH238185   2.095   4.848  15.926 -0.2935  0.5422  0.0727
 5565TIP3    H138186   2.037   4.810  15.860 -0.5518  0.7657  0.1714
 5565TIP3    H238187   2.162   4.781  15.941  0.6475  1.0969 -1.5362
 5566TIP3   OH238188   0.740   5.558   4.831  0.0255 -0.2047 -0.2447
 5566TIP3    H138189   0.744   5.551   4.926 -2.1453  2.6390  0.0944
 5566TIP3    H238190   0.756   5.650   4.812 -0.3044 -0.5846 -2.6149
 5567TIP3   OH238191   4.354   6.795   4.594  0.3407 -0.1861 -0.9866
 5567TIP3    H138192   4.380   6.703   4.586  1.7997  0.1938 -0.6811
 5567TIP3    H238193   4.298   6.810   4.517 -0.6573 -1.5619 -0.5564
 5568TIP3   OH238194   0.809   3.572  11.556 -0.0213 -0.1449 -0.3928
 5568TIP3    H138195   0.771   3.644  11.505  0.5510  0.4948  0.0729
 5568TIP3    H238196   0.879   3.613  11.607  0.5098 -1.0870 -0.3427
 5569TIP3   OH238197   5.597   0.874  14.963  0.3856  0.8344 -0.0847
 5569TIP3    H138198   5.658   0.887  14.891  1.0248  0.4329  0.3771
 5569TIP3    H238199   5.511   0.885  14.923  0.7148  0.1558 -1.0061
 5570TIP3   OH238200   3.252   3.873   1.688  0.0401  0.1534  0.3548
 5570TIP3    H138201   3.291   3.897   1.604  2.2573 -2.1555  0.6280
 5570TIP3    H238202   3.315   3.903   1.754 -1.5983  1.8009  1.2064
 5571TIP3   OH238203   5.464   4.515  15.471 -0.4647  0.1670 -0.6469
 5571TIP3    H138204   5.544   4.537  15.520 -0.5250  0.5109 -0.7015
 5571TIP3    H238205   5.492   4.449  15.408 -0.1014  0.6910 -1.0408
 5572TIP3   OH238206   2.163   2.253  13.321 -0.2362  0.4394 -0.1663
 5572TIP3    H138207   2.108   2.185  13.282  1.5973 -0.9192 -0.4840
 5572TIP3    H238208   2.248   2.242  13.278  0.3192  2.4329  0.3612
 5573TIP3   OH238209   1.285   4.953  15.220  0.1018 -0.0565  0.1618
 5573TIP3    H138210   1.267   5.043  15.194 -0.3027 -0.4345 -0.9059
 5573TIP3    H238211   1.380   4.951  15.236 -0.0699  0.8309  1.3322
 5574TIP3   OH238212   2.987   1.804   4.010 -0.1234 -0.2630  0.3687
 5574TIP3    H138213   2.959   1.720   4.046 -0.7676  0.1924  0.9492
 5574TIP3    H238214   2.906   1.855   4.002 -0.0424 -0.4255 -1.9567
 5575TIP3   OH238215   2.512   3.889  13.235 -0.1295 -0.0757  0.1897
 5575TIP3    H138216   2.490   3.797  13.251  0.9435 -0.1361  1.3237
 5575TIP3    H238217   2.534   3.924  13.321  0.3431  1.0101 -0.3700
 5576TIP3   OH238218   6.405   2.919  10.583  0.1643  0.5475 -0.2114
 5576TIP3    H138219   6.400   3.015  10.585  0.9382  0.5481  2.5576
 5576TIP3    H238220   6.361   2.891  10.663 -0.3650 -1.4652 -1.1735
 5577TIP3   OH238221   4.161   4.723  13.636 -0.0386  0.2910 -0.3862
 5577TIP3    H138222   4.217   4.703  13.711  0.4114  0.5944 -0.6330
 5577TIP3    H238223   4.096   4.653  13.634 -1.2564  1.3272  1.4418
 5578TIP3   OH238224   0.610   3.514  13.295  0.1826  0.1434 -0.1640
 5578TIP3    H138225   0.613   3.475  13.208  1.7520 -0.0222 -0.0454
 5578TIP3    H238226   0.620   3.608  13.279  0.2935  0.1295 -0.1775
 5579TIP3   OH238227   3.982   4.407   4.234 -0.0739 -0.1011 -0.1492
 5579TIP3    H138228   3.894   4.436   4.212  0.1053  0.0008 -0.7331
 5579TIP3    H238229   3.991   4.427   4.327 -0.7535 -0.3373 -0.0290
 5580TIP3   OH238230   4.219   5.365   1.298 -0.3466  0.0627  0.3721
 5580TIP3    H138231   4.176   5.325   1.223  0.9302  0.0561 -0.3759
 5580TIP3    H238232   4.154   5.363   1.367 -0.8638 -1.7755 -0.1435
 5581TIP3   OH238233   6.364   1.157  12.137  0.0095  0.1543 -0.2884
 5581TIP3    H138234   6.279   1.195  12.160  0.8393  1.9592 -0.0962
 5581TIP3    H238235   6.361   1.147  12.042  0.0034  1.3298 -0.4212
 5582TIP3   OH238236   5.366   5.220  13.926  0.5496 -0.4665  0.0631
 5582TIP3    H138237   5.453   5.244  13.958 -0.2502 -1.2039  2.8588
 5582TIP3    H238238   5.315   5.300  13.933  0.6190 -0.3915 -0.2693
 5583TIP3   OH238239   2.564   5.433  14.092  0.5955 -0.0815 -0.0382
 5583TIP3    H138240   2.614   5.399  14.018 -0.8646 -0.9990 -0.6103
 5583TIP3    H238241   2.565   5.528  14.079 -0.2877 -0.2821 -1.6417
 5584TIP3   OH238242   6.462   1.256   6.207 -0.4047  0.1162  0.3624
 5584TIP3    H138243   6.450   1.181   6.149  0.0063  0.4104 -0.1084
 5584TIP3    H238244   6.375   1.272   6.244 -0.5627 -0.3793  0.2095
 5585TIP3   OH238245   3.064   1.789  12.182  0.6479 -0.0660 -0.0318
 5585TIP3    H138246   2.992   1.825  12.234  0.5762  2.0237 -1.5198
 5585TIP3    H238247   3.133   1.771  12.246 -0.8274 -1.1629  1.2737
 5586TIP3   OH238248   1.604   1.793   3.871  0.2117 -0.5820  0.3831
 5586TIP3    H138249   1.551   1.717   3.844  1.4828 -1.8876  1.4560
 5586TIP3    H238250   1.644   1.824   3.790 -0.3549 -1.0341 -0.0766
 5587TIP3   OH238251   2.689   3.077  10.954  1.1493  0.1491  0.3665
 5587TIP3    H138252   2.674   3.091  10.861 -1.5380 -2.3316  0.3674
 5587TIP3    H238253   2.781   3.101  10.967  1.9711 -0.7945 -3.1828
 5588TIP3   OH238254   5.080   5.997  13.916  0.8346 -0.0542  0.4132
 5588TIP3    H138255   5.172   5.972  13.906  0.9312  0.3915  0.1711
 5588TIP3    H238256   5.060   5.978  14.007  0.8474 -1.2050  0.1910
 5589TIP3   OH238257   6.178   5.769  12.667 -0.8268 -0.1549  0.4317
 5589TIP3    H138258   6.120   5.732  12.734 -1.3474  1.1358  0.7010
 5589TIP3    H238259   6.220   5.844  12.709 -0.4993  0.1442 -0.4103
 5590TIP3   OH238260   2.548   0.911  14.897  0.1288  0.0322  0.0946
 5590TIP3    H138261   2.556   0.867  14.813 -0.3519  0.9748 -0.4579
 5590TIP3    H238262   2.617   0.977  14.897 -1.0528  1.3067 -0.3825
 5591TIP3   OH238263   6.359   2.690  15.512  0.1857  0.7463  0.0443
 5591TIP3    H138264   6.404   2.771  15.486 -0.3126  1.0661  0.1799
 5591TIP3    H238265   6.350   2.697  15.607 -1.4651  1.3745 -0.1375
 5592TIP3   OH238266   5.496   0.325   5.094  0.6713 -0.4013 -0.6304
 5592TIP3    H138267   5.458   0.377   5.023  1.1666 -0.2312 -0.7717
 5592TIP3    H238268   5.568   0.379   5.126  0.7604 -0.7038 -0.3288
 5593TIP3   OH238269   6.328   1.448   0.040  0.7812 -0.4720 -0.1780
 5593TIP3    H138270   6.303   1.539   0.030  1.5390 -0.1796  0.5549
 5593TIP3    H238271   6.347   1.438   0.133  3.7699 -0.5579 -0.7422
 5594TIP3   OH238272   0.333   4.463   2.730  0.6327  0.2276 -0.0874
 5594TIP3    H138273   0.285   4.482   2.649 -1.5544 -2.8548  0.4121
 5594TIP3    H238274   0.275   4.495   2.799  0.2726 -1.5281  0.4332
 5595TIP3   OH238275   1.214   5.335   4.550  0.2451 -0.9098 -0.7597
 5595TIP3    H138276   1.282   5.393   4.586 -1.3026  0.7234 -0.3862
 5595TIP3    H238277   1.237   5.248   4.583  1.9915 -0.3545 -0.4136
 5596TIP3   OH238278   5.746   5.641   3.061 -0.0486 -0.3685  0.1155
 5596TIP3    H138279   5.717   5.724   3.101  3.4537  0.0156  2.1074
 5596TIP3    H238280   5.770   5.665   2.972  1.8531  1.0564  0.9571
 5597TIP3   OH238281   2.079   4.670  13.724  0.3319 -0.1979 -0.3089
 5597TIP3    H138282   1.985   4.691  13.724  0.4071  0.1724  0.9947
 5597TIP3    H238283   2.107   4.686  13.633 -0.5915  0.9479 -0.4087
 5598TIP3   OH238284   6.474   4.846  16.379 -0.0455 -0.2094 -0.0041
 5598TIP3    H138285   6.477   4.928  16.331 -1.1372 -0.3307 -0.3067
 5598TIP3    H238286   6.517   4.865  16.462 -2.2679  1.3187  0.8617
 5599TIP3   OH238287   0.511   6.355  15.387  0.0942 -0.3304  0.1231
 5599TIP3    H138288   0.535   6.397  15.469  1.3223 -1.6675  0.4825
 5599TIP3    H238289   0.478   6.269  15.413  0.0917 -0.5992 -0.7412
 5600TIP3   OH238290   1.908   3.232   2.329 -0.3847 -0.1083 -0.4086
 5600TIP3    H138291   1.956   3.315   2.329  1.2746 -1.0399  0.7400
 5600TIP3    H238292   1.960   3.175   2.386 -0.1801 -2.6987 -3.0886
 5601TIP3   OH238293   5.744   4.818  12.806 -0.3799 -0.1287  0.3722
 5601TIP3    H138294   5.804   4.744  12.799 -1.3262 -0.8083 -0.6734
 5601TIP3    H238295   5.673   4.786  12.862 -0.8495 -0.0570 -0.1809
 5602TIP3   OH238296   1.961   6.114   0.949  0.0742  0.2391 -0.2895
 5602TIP3    H138297   2.030   6.173   0.917  0.0749  0.1414 -0.4683
 5602TIP3    H238298   1.963   6.040   0.889  0.7317 -0.4063  0.5125
 5603TIP3   OH238299   3.615   1.860   6.214 -0.4458 -0.6350 -0.1954
 5603TIP3    H138300   3.693   1.852   6.270 -1.2539  0.2397  1.0848
 5603TIP3    H238301   3.594   1.953   6.217 -2.2910 -1.0643  0.5194
 5604TIP3   OH238302   1.208   3.479   4.685  0.0348 -0.2682  0.6873
 5604TIP3    H138303   1.131   3.526   4.715 -1.1169 -1.8275  0.2279
 5604TIP3    H238304   1.273   3.547   4.668 -1.7850  1.2041 -0.5087
 5605TIP3   OH238305   2.109   0.916  13.758  0.5284 -0.6046 -0.1727
 5605TIP3    H138306   2.090   0.823  13.749  1.9753 -0.9457  0.0569
 5605TIP3    H238307   2.172   0.934  13.688  2.1143 -0.3746  1.2718
 5606TIP3   OH238308   6.178   4.869   5.240 -0.3257  0.9086 -0.2837
 5606TIP3    H138309   6.113   4.919   5.191 -0.7778  0.2785 -0.3424
 5606TIP3    H238310   6.224   4.818   5.174 -1.1793 -0.2166 -0.0350
 5607TIP3   OH238311   2.540   4.216  13.863  0.0432 -0.3091  0.3541
 5607TIP3    H138312   2.572   4.280  13.926  0.2687  0.2919 -0.3580
 5607TIP3    H238313   2.465   4.175  13.905  0.4733 -0.2415  1.1925
 5608TIP3   OH238314   3.750   1.640  16.656 -0.2567 -0.0471 -0.2353
 5608TIP3    H138315   3.764   1.670  16.566 -2.1949 -0.7060 -0.7700
 5608TIP3    H238316   3.728   1.719  16.705  0.5561  0.2745 -0.3747
 5609TIP3   OH238317   2.456   4.451   0.155  0.7104 -0.2528  0.1295
 5609TIP3    H138318   2.531   4.391   0.156  1.4847  0.7053  1.9911
 5609TIP3    H238319   2.463   4.498   0.238 -3.1806 -1.6718  1.3465
 5610TIP3   OH238320   5.553   3.050   2.044  0.3559 -0.0198  0.0058
 5610TIP3    H138321   5.522   3.011   2.126 -0.1358 -2.4363 -1.2660
 5610TIP3    H238322   5.485   3.112   2.020  0.7456  1.0829  1.6624
 5611TIP3   OH238323   6.678   6.667   4.351  0.3397  0.0683 -0.0045
 5611TIP3    H138324   6.696   6.739   4.412  0.8988  0.6088 -0.8007
 5611TIP3    H238325   6.644   6.597   4.407  1.3280  0.3739  1.0025
 5612TIP3   OH238326   0.946   0.013  15.118  0.1674 -0.2060  0.1699
 5612TIP3    H138327   0.970   0.045  15.205  1.0314 -1.1303  0.2795
 5612TIP3    H238328   0.880   0.075  15.087  0.6834  0.7818  1.0176
 5613TIP3   OH238329   2.615   6.602   2.089  0.0034 -0.5163 -0.3146
 5613TIP3    H138330   2.568   6.614   2.171  0.7848  0.8204 -0.0432
 5613TIP3    H238331   2.677   6.531   2.107 -2.0075 -2.4429 -0.7425
 5614TIP3   OH238332   6.131   4.532   1.197 -0.0245 -0.5647  0.1623
 5614TIP3    H138333   6.052   4.478   1.195  1.4163 -2.7873  1.0712
 5614TIP3    H238334   6.104   4.616   1.159 -2.5865 -1.5618 -0.3195
 5615TIP3   OH238335   0.008   5.120   2.194 -0.4454  0.2184 -0.2047
 5615TIP3    H138336   0.029   5.068   2.271  1.2004  1.2432  0.0744
 5615TIP3    H238337  -0.006   5.056   2.124  1.4214 -0.6227  0.1603
 5616TIP3   OH238338   1.073   6.306  13.712  0.3482 -0.2408  0.2783
 5616TIP3    H138339   1.008   6.254  13.759 -0.4467  0.2445 -0.2689
 5616TIP3    H238340   1.155   6.256  13.720  0.2860 -0.0589  2.3463
 5617TIP3   OH238341   0.922   4.872  12.370 -0.3238  0.1905 -0.0238
 5617TIP3    H138342   0.866   4.812  12.321 -3.4320  2.7224  0.2435
 5617TIP3    H238343   0.948   4.938  12.305  0.3300  0.3780  0.4236
 5618TIP3   OH238344   1.041   5.598  15.328 -0.3582  0.1806 -0.1114
 5618TIP3    H138345   1.076   5.517  15.289 -0.4159 -1.2398  2.6749
 5618TIP3    H238346   0.953   5.574  15.357 -0.6168  1.4483  0.1598
 5619TIP3   OH238347   0.830   1.673   5.381 -0.1823  0.2593  0.1693
 5619TIP3    H138348   0.813   1.667   5.287  2.4452  0.2497 -0.3393
 5619TIP3    H238349   0.924   1.691   5.388 -0.6316  1.9577  2.7568
 5620TIP3   OH238350   3.471   0.538  12.088  0.0386 -0.1361 -0.0270
 5620TIP3    H138351   3.451   0.517  11.996  0.8412  4.8711 -1.4733
 5620TIP3    H238352   3.385   0.551  12.128 -0.2522  3.0530 -1.5366
 5621TIP3   OH238353   4.980   1.634  16.510  0.4273  0.1526 -0.2179
 5621TIP3    H138354   5.059   1.688  16.500  0.0769  0.7721  0.3294
 5621TIP3    H238355   5.011   1.553  16.550  0.9344 -0.0011 -0.9042
 5622TIP3   OH238356   4.997   5.408   1.072 -0.0216 -0.4100 -0.2467
 5622TIP3    H138357   5.064   5.383   1.135  1.0512  1.1926 -0.7410
 5622TIP3    H238358   5.037   5.475   1.018 -2.0676  0.6734 -0.4841
 5623TIP3   OH238359   3.587   2.802   2.676  0.0708 -0.3698 -0.0130
 5623TIP3    H138360   3.577   2.715   2.637 -0.0714 -0.4744  0.2580
 5623TIP3    H238361   3.538   2.798   2.758  1.0996 -0.4319  0.6042
 5624TIP3   OH238362   0.541   0.375  16.750 -1.0563  0.4086 -0.2394
 5624TIP3    H138363   0.594   0.423  16.686 -0.4909 -0.3517 -0.3476
 5624TIP3    H238364   0.567   0.412  16.834 -1.6906  1.3050 -0.4217
 5625TIP3   OH238365   6.727   3.282  12.963 -0.3865  0.3955  0.2241
 5625TIP3    H138366   6.637   3.296  12.932 -0.2358  0.8578  0.0061
 5625TIP3    H238367   6.721   3.293  13.058 -0.6673 -0.1108  0.2641
 5626TIP3   OH238368   4.094   0.929   4.880 -0.0824 -0.1280  0.7107
 5626TIP3    H138369   4.118   0.843   4.917 -1.0871 -0.0113  1.6804
 5626TIP3    H238370   4.074   0.983   4.957  1.7676  1.3686  0.1631
 5627TIP3   OH238371   5.257   0.849   0.856 -0.3000  0.1122  0.4494
 5627TIP3    H138372   5.187   0.787   0.875 -1.1305  1.3002  1.3172
 5627TIP3    H238373   5.337   0.797   0.863 -1.0257 -1.0228  0.4593
 5628TIP3   OH238374   2.738   5.589  15.415  0.0479  1.0406  0.1522
 5628TIP3    H138375   2.644   5.572  15.423  0.4860 -0.6334  2.2746
 5628TIP3    H238376   2.767   5.531  15.346 -0.3833  1.1560 -0.1297
 5629TIP3   OH238377   1.422   0.346   6.367  0.1645  0.2578 -0.1236
 5629TIP3    H138378   1.439   0.255   6.394  0.6065  0.1907 -0.6101
 5629TIP3    H238379   1.424   0.343   6.271  2.5781  1.2114 -0.1411
 5630TIP3   OH238380   3.385   4.964  16.654 -0.0049  0.1847  0.0565
 5630TIP3    H138381   3.481   4.968  16.652  0.0840 -1.3836  0.0041
 5630TIP3    H238382   3.365   4.875  16.626 -1.5813  1.1719 -2.0148
 5631TIP3   OH238383   0.679   6.354  13.333  0.2289 -0.0810  0.2249
 5631TIP3    H138384   0.687   6.447  13.351  2.3893 -0.3642  0.8613
 5631TIP3    H238385   0.588   6.333  13.353 -0.1013  1.7477  0.6940
 5632TIP3   OH238386   2.366   5.627   1.062  0.9662 -0.4805  0.2637
 5632TIP3    H138387   2.355   5.721   1.068  0.9279 -0.5760  1.7113
 5632TIP3    H238388   2.308   5.591   1.129  1.5389 -1.5008  0.2294
 5633TIP3   OH238389   4.039   5.059   3.845  0.2566 -0.6349 -0.5690
 5633TIP3    H138390   4.098   4.992   3.880  1.2782 -0.6186 -2.2269
 5633TIP3    H238391   4.096   5.117   3.794 -0.8889  0.5222 -0.5498
 5634TIP3   OH238392   3.452   5.568   4.604 -0.5141  0.4165  0.4863
 5634TIP3    H138393   3.379   5.562   4.542 -0.6075 -0.6957  0.6977
 5634TIP3    H238394   3.452   5.660   4.631 -1.6690  0.4910  0.2837
 5635TIP3   OH238395   5.057   4.420   1.563 -0.6402 -0.4284  0.0007
 5635TIP3    H138396   5.128   4.482   1.546 -1.1167 -0.0279 -0.5306
 5635TIP3    H238397   5.083   4.341   1.515 -0.1960 -0.5350  0.4098
 5636TIP3   OH238398   3.058   0.536  14.537  0.3526  0.0561 -0.1472
 5636TIP3    H138399   3.122   0.587  14.488 -0.2634  1.3821  0.3865
 5636TIP3    H238400   3.017   0.480  14.472  0.8125  0.4796 -0.8174
 5637TIP3   OH238401   3.629   6.248  14.344  0.2513  0.3638 -0.0558
 5637TIP3    H138402   3.697   6.280  14.285  1.5986 -1.3093  0.5428
 5637TIP3    H238403   3.650   6.287  14.429  0.2496  0.1362  0.0496
 5638TIP3   OH238404   6.128   2.068  11.344 -0.2278 -0.1456  0.7426
 5638TIP3    H138405   6.165   2.008  11.279 -1.2491 -0.9307  0.8651
 5638TIP3    H238406   6.044   2.096  11.307 -0.2197  0.4167  1.1418
 5639TIP3   OH238407   4.766   2.122   0.092  0.2470 -0.7980  0.0699
 5639TIP3    H138408   4.811   2.178   0.155  2.4567 -0.4149 -1.7818
 5639TIP3    H238409   4.762   2.036   0.135  1.3741 -0.4494  0.8796
 5640TIP3   OH238410   3.104   3.607  10.954  0.1777  0.4161 -0.2446
 5640TIP3    H138411   3.146   3.640  10.874  0.8201 -0.4499 -0.2664
 5640TIP3    H238412   3.176   3.593  11.015 -0.0380 -1.3131 -0.3666
 5641TIP3   OH238413   2.080   6.086  16.987 -0.4122 -0.2130  0.6001
 5641TIP3    H138414   2.002   6.127  17.025 -0.0278  1.4138 -0.3630
 5641TIP3    H238415   2.105   6.143  16.915  1.5834 -0.8172  0.7908
 5642TIP3   OH238416   6.813   2.908   4.787  0.2595  0.4843  0.1546
 5642TIP3    H138417   6.892   2.867   4.822  0.1881 -1.1056 -1.5032
 5642TIP3    H238418   6.830   3.002   4.794  1.4101  0.1837  1.7522
 5643TIP3   OH238419   5.633   3.675   5.013 -0.1886 -0.3982 -0.1139
 5643TIP3    H138420   5.678   3.757   4.991 -0.9885 -0.2150 -1.0967
 5643TIP3    H238421   5.545   3.685   4.976 -0.2104 -1.8214 -0.4735
 5644TIP3   OH238422   5.915   5.333  16.910  0.0993  0.3487 -0.3917
 5644TIP3    H138423   5.852   5.358  16.978 -0.4296  1.6613 -1.3523
 5644TIP3    H238424   5.890   5.385  16.834  1.9138  0.3539 -1.0006
 5645TIP3   OH238425   4.178   0.859   5.652 -0.2426  0.3418  0.9301
 5645TIP3    H138426   4.095   0.888   5.689 -0.2184  1.8857 -0.1620
 5645TIP3    H238427   4.245   0.890   5.713 -0.4840 -1.9314  2.4390
 5646TIP3   OH238428   2.347   2.504   5.096 -0.4203  0.5641 -0.4264
 5646TIP3    H138429   2.253   2.514   5.080 -0.6602 -0.6304  0.2123
 5646TIP3    H238430   2.353   2.473   5.187  0.5136 -0.9453 -0.9917
 5647TIP3   OH238431   2.851   4.671  12.519  0.6166 -0.1110 -0.2056
 5647TIP3    H138432   2.831   4.582  12.545 -0.2214  0.8868  2.6572
 5647TIP3    H238433   2.768   4.708  12.489  0.5585  0.3191  0.4729
 5648TIP3   OH238434   2.896   0.805  14.794  0.3348  0.1695  0.1056
 5648TIP3    H138435   2.850   0.876  14.749 -0.1025  0.9782  1.7982
 5648TIP3    H238436   2.980   0.843  14.819 -0.2950  0.4543  1.9102
 5649TIP3   OH238437   6.792   1.540  11.679 -0.1894 -0.8448 -0.2594
 5649TIP3    H138438   6.809   1.453  11.644  1.6419 -0.5069 -0.2829
 5649TIP3    H238439   6.876   1.567  11.718 -0.9218  0.6206  0.3448
 5650TIP3   OH238440   4.465   0.524   2.852  0.6378  0.3976 -0.0769
 5650TIP3    H138441   4.559   0.514   2.839  0.2363 -0.4253 -2.5722
 5650TIP3    H238442   4.440   0.598   2.796 -0.7505 -1.6295 -2.2009
 5651TIP3   OH238443   0.202   5.057  15.356 -0.6722 -0.0580  0.1578
 5651TIP3    H138444   0.109   5.081  15.353 -0.9234 -0.9197  0.8663
 5651TIP3    H238445   0.247   5.140  15.373 -1.1858  0.6039 -1.6068
 5652TIP3   OH238446   2.963   2.463  13.688  0.2266  0.2017 -0.6248
 5652TIP3    H138447   3.023   2.443  13.759 -0.4216  1.1727  0.2017
 5652TIP3    H238448   2.878   2.431  13.718 -0.8672  4.1456  0.7805
 5653TIP3   OH238449   4.338   1.429   3.919  0.1953 -0.3179 -0.0387
 5653TIP3    H138450   4.374   1.447   4.006 -0.0869 -1.7023  0.3797
 5653TIP3    H238451   4.285   1.506   3.899  0.0922 -0.0741  1.1141
 5654TIP3   OH238452   3.301   1.109   3.200 -0.0939 -0.8490  0.4924
 5654TIP3    H138453   3.251   1.083   3.277 -1.5902  0.6243  0.0632
 5654TIP3    H238454   3.303   1.031   3.144  2.9493 -2.6357  2.9623
 5655TIP3   OH238455   1.379   5.407  12.904  0.1142  0.3332 -0.1190
 5655TIP3    H138456   1.461   5.457  12.907  0.1031  0.3717 -0.4493
 5655TIP3    H238457   1.310   5.473  12.907  0.0985  0.3133 -0.0512
 5656TIP3   OH238458   0.417   2.572   0.921  0.4408 -0.0943 -0.1279
 5656TIP3    H138459   0.481   2.589   0.991  1.4263  0.3351 -1.1066
 5656TIP3    H238460   0.371   2.656   0.911  0.4382 -0.0963 -0.1333
 5657TIP3   OH238461   5.611   3.677  13.650  0.3768  0.5971 -0.1060
 5657TIP3    H138462   5.627   3.757  13.600  1.3965 -1.0630 -2.5135
 5657TIP3    H238463   5.678   3.679  13.719  0.2690  1.8917 -0.0209
 5658TIP3   OH238464   4.432   3.235  13.183 -0.1140  0.3238 -0.5509
 5658TIP3    H138465   4.506   3.222  13.124  0.6486  0.1614  0.4342
 5658TIP3    H238466   4.432   3.328  13.202  1.4096 -0.0815  1.4862
 5659TIP3   OH238467   1.723   1.957  10.708 -0.1032  0.5880 -0.8021
 5659TIP3    H138468   1.676   2.039  10.721 -1.0494 -0.1605  0.5897
 5659TIP3    H238469   1.816   1.983  10.706 -0.3872  1.6703 -0.2414
 5660TIP3   OH238470   5.640   3.581   6.125  0.3521 -0.3804  0.7946
 5660TIP3    H138471   5.604   3.499   6.091  1.9948 -1.6091  1.9608
 5660TIP3    H238472   5.571   3.617   6.181 -0.9119 -0.2329 -0.8141
 5661TIP3   OH238473   3.748   5.811   3.911  0.1247 -0.1304 -0.1570
 5661TIP3    H138474   3.739   5.750   3.985  1.3634  3.2648  2.9675
 5661TIP3    H238475   3.842   5.811   3.892  0.2786  1.5309  0.5582
 5662TIP3   OH238476   1.994   2.992  15.101 -0.0686  0.3012  0.5235
 5662TIP3    H138477   2.082   3.030  15.098 -0.1398  0.3813 -1.1023
 5662TIP3    H238478   1.935   3.066  15.084 -0.3838  0.0533  0.5316
 5663TIP3   OH238479   1.907   2.683   2.554  0.1907  0.0146 -0.3158
 5663TIP3    H138480   1.990   2.705   2.597  0.0942  0.6463 -0.4449
 5663TIP3    H238481   1.868   2.768   2.533 -0.8708 -0.2668  0.4832
 5664TIP3   OH238482   1.073   1.346  11.096  0.0638  0.2628 -0.0993
 5664TIP3    H138483   1.061   1.377  11.006 -0.8141 -1.7122 -0.6963
 5664TIP3    H238484   1.151   1.291  11.092  0.7853  1.2180  0.6404
 5665TIP3   OH238485   5.603   0.251  13.696 -0.3603  0.1970 -0.0563
 5665TIP3    H138486   5.579   0.325  13.641  1.7097  0.6151 -0.4459
 5665TIP3    H238487   5.692   0.229  13.669 -1.8886 -4.2652 -1.9919
 5666TIP3   OH238488   6.748   0.988   6.088  0.2971  0.0815 -0.2634
 5666TIP3    H138489   6.762   0.948   6.002 -1.0824  0.7023 -0.7896
 5666TIP3    H238490   6.660   1.025   6.083  0.3629  0.4751  1.2861
 5667TIP3   OH238491   4.257   5.541  16.065 -0.0683  0.0292  0.3470
 5667TIP3    H138492   4.254   5.635  16.084 -1.2476 -0.1661  1.1705
 5667TIP3    H238493   4.337   5.529  16.013  0.4627  1.3707  0.8538
 5668TIP3   OH238494   6.304   6.475  13.975 -0.3579 -0.6244 -0.0502
 5668TIP3    H138495   6.289   6.381  13.962 -0.6274 -0.3138 -2.1401
 5668TIP3    H238496   6.218   6.509  14.003  0.0661 -1.1892  2.0478
 5669TIP3   OH238497   2.000   3.389  13.079  0.2554  0.4617  0.1848
 5669TIP3    H138498   2.001   3.399  13.174  0.6015 -0.0905  0.2391
 5669TIP3    H238499   1.935   3.452  13.049 -3.0235 -2.2765  1.1540
 5670TIP3   OH238500   5.536   0.579   2.654 -0.4630 -0.1550 -0.6413
 5670TIP3    H138501   5.545   0.592   2.748  0.7846  2.2581 -1.0540
 5670TIP3    H238502   5.566   0.489   2.639  0.0507 -0.2990  1.1414
 5671TIP3   OH238503   5.893   1.164   2.415  0.5431  0.1525  0.3229
 5671TIP3    H138504   5.809   1.209   2.413  1.0941  1.1875  0.2019
 5671TIP3    H238505   5.958   1.234   2.429  1.4502 -0.5283 -0.4042
 5672TIP3   OH238506   6.621   5.972   5.362 -0.1323 -0.0522  0.0525
 5672TIP3    H138507   6.573   5.892   5.386 -4.1157  2.1158 -0.3285
 5672TIP3    H238508   6.582   5.999   5.279 -0.4950  3.4839  1.2790
 5673TIP3   OH238509   2.106   2.416  14.207 -0.6697 -0.7689 -0.0482
 5673TIP3    H138510   2.072   2.504  14.191 -1.4188 -1.1647 -0.6956
 5673TIP3    H238511   2.180   2.429  14.266  0.2878  0.4619 -1.4658
 5674TIP3   OH238512   1.012   4.063  13.244  0.0722 -0.1970  0.2138
 5674TIP3    H138513   0.986   4.135  13.301 -1.5219  0.2941 -1.0901
 5674TIP3    H238514   0.965   4.079  13.162  0.5224 -2.1338 -0.4564
 5675TIP3   OH238515   3.590   0.580  12.477  0.4533  0.1195  0.4474
 5675TIP3    H138516   3.576   0.489  12.453  0.1356  0.2571  0.1221
 5675TIP3    H238517   3.606   0.577  12.572  1.7618 -0.4204  0.2166
 5676TIP3   OH238518   3.679   1.191   3.777  0.7722 -0.6673  0.0085
 5676TIP3    H138519   3.772   1.210   3.794  0.7480 -0.1213 -0.4720
 5676TIP3    H238520   3.640   1.276   3.756  0.4351 -1.0735 -1.0610
 5677TIP3   OH238521   3.641   1.336   2.407  0.3746 -0.0144 -0.0558
 5677TIP3    H138522   3.601   1.290   2.333 -0.1392  1.5956 -0.7858
 5677TIP3    H238523   3.734   1.342   2.384  0.4633 -0.7422  0.0839
 5678TIP3   OH238524   1.929   2.543  14.499 -0.2046 -0.5730 -0.2143
 5678TIP3    H138525   2.005   2.600  14.486  0.5860 -0.9062  2.4988
 5678TIP3    H238526   1.909   2.509  14.412  4.5080 -2.6627 -0.6473
 5679TIP3   OH238527   1.364   6.122  17.122  0.8386  0.1374  0.4297
 5679TIP3    H138528   1.435   6.063  17.098 -0.6544 -1.6348  0.2306
 5679TIP3    H238529   1.302   6.066  17.170 -1.5802  1.0687 -1.5240
 5680TIP3   OH238530   5.647   3.046   6.090  0.6355  0.2738 -0.2096
 5680TIP3    H138531   5.723   3.019   6.141  0.7112 -0.3691 -0.6634
 5680TIP3    H238532   5.677   3.122   6.041  1.2319 -0.4718 -1.0100
 5681TIP3   OH238533   0.658   0.278   2.008 -0.1509 -0.3601 -0.2548
 5681TIP3    H138534   0.720   0.284   2.080  0.4045 -3.1286 -0.4367
 5681TIP3    H238535   0.579   0.320   2.041  0.2282 -1.2016  1.8253
 5682TIP3   OH238536   4.665   4.967   3.073  0.0188 -0.0191  0.1173
 5682TIP3    H138537   4.677   5.053   3.115  1.4005 -0.2969  0.3176
 5682TIP3    H238538   4.607   4.985   2.999 -1.7375  0.6469  1.5836
 5683TIP3   OH238539   2.921   5.695  14.922 -0.5431 -0.6016 -0.5390
 5683TIP3    H138540   2.969   5.641  14.860  0.6269  1.1654 -1.2118
 5683TIP3    H238541   2.922   5.783  14.883  1.2349  0.8051  2.4917
 5684TIP3   OH238542   5.899   3.524   5.174  0.3585 -0.2442 -0.0501
 5684TIP3    H138543   5.875   3.533   5.266  0.3764 -1.9712  0.1324
 5684TIP3    H238544   5.971   3.585   5.161 -0.4085  0.8459  0.7958
 5685TIP3   OH238545   2.272   1.642   0.733 -0.0312  0.0296  0.0316
 5685TIP3    H138546   2.350   1.680   0.693  0.1675 -1.2151 -0.7758
 5685TIP3    H238547   2.279   1.664   0.826  1.5099 -0.4666  0.0371
 5686TIP3   OH238548   3.566   0.974   1.525  0.2820  0.1166  0.2494
 5686TIP3    H138549   3.602   0.956   1.612  1.6523  1.2022 -0.0836
 5686TIP3    H238550   3.639   1.010   1.475 -0.9875  1.3780 -0.7426
 5687TIP3   OH238551   4.267   1.333  12.239  0.2237 -0.2310  0.3739
 5687TIP3    H138552   4.189   1.307  12.287  0.2195 -0.7852  0.0611
 5687TIP3    H238553   4.237   1.406  12.184  0.1215  0.0993  0.8625
 5688TIP3   OH238554   0.523   0.179   2.384  0.3204 -0.7097  0.0099
 5688TIP3    H138555   0.542   0.271   2.363 -1.8056  0.0209  1.0650
 5688TIP3    H238556   0.486   0.183   2.472 -1.1599 -2.4045 -0.5198
 5689TIP3   OH238557   0.057   3.181  12.744  0.5181 -0.1013  0.4159
 5689TIP3    H138558   0.099   3.095  12.746  0.2564 -0.2984 -1.7344
 5689TIP3    H238559   0.023   3.192  12.833  2.5087 -1.2223  1.3679
 5690TIP3   OH238560   0.303   4.104  13.694 -0.1138 -0.0368 -0.0809
 5690TIP3    H138561   0.381   4.149  13.726  1.3746 -2.9750  0.5151
 5690TIP3    H238562   0.265   4.062  13.771 -1.1497 -0.3027 -0.7244
 5691TIP3   OH238563   3.894   2.549  11.969  0.1847 -1.0097  0.4374
 5691TIP3    H138564   3.926   2.622  11.915  0.9232 -1.2295  0.5773
 5691TIP3    H238565   3.813   2.522  11.926 -0.1515 -0.0399  0.4391
 5692TIP3   OH238566   6.377   3.299   4.672 -0.4554 -0.3283  0.5206
 5692TIP3    H138567   6.386   3.391   4.698 -1.7100 -0.1682  0.4210
 5692TIP3    H238568   6.297   3.269   4.715 -1.1109 -0.8193 -0.9997
 5693TIP3   OH238569   3.893   0.863  17.213 -0.0275 -0.2522  0.2805
 5693TIP3    H138570   3.917   0.942  17.165 -0.7094 -0.5819 -0.6185
 5693TIP3    H238571   3.967   0.846  17.270 -0.0264  1.2376  0.7395
 5694TIP3   OH238572   3.961   6.048   2.958  0.3009  0.5768  0.1469
 5694TIP3    H138573   3.929   6.072   3.045  1.9842  2.7940  0.1787
 5694TIP3    H238574   4.003   5.963   2.970  1.7336  1.5014  1.7834
 5695TIP3   OH238575   3.319   4.497  14.571  0.7455 -0.6134 -0.1802
 5695TIP3    H138576   3.311   4.563  14.502  0.5783 -0.8237 -0.3628
 5695TIP3    H238577   3.412   4.499  14.594  0.3541  1.2389  1.3711
 5696TIP3   OH238578   6.514   1.938   2.905  0.8497 -0.2698  0.5263
 5696TIP3    H138579   6.509   2.031   2.927  0.8175 -0.5541  1.7540
 5696TIP3    H238580   6.605   1.914   2.923  1.7552  0.2641 -2.9308
 5697TIP3   OH238581   3.936   2.800   5.222  0.2103  0.1687  0.0314
 5697TIP3    H138582   3.896   2.873   5.268 -0.3225 -1.3366  2.0071
 5697TIP3    H238583   3.865   2.762   5.170  0.1985  0.2921 -0.0435
 5698TIP3   OH238584   4.799   3.523  14.060  0.7690  1.1881 -0.1568
 5698TIP3    H138585   4.772   3.498  13.972 -1.5607  2.4038  0.1620
 5698TIP3    H238586   4.885   3.562  14.049  1.1375 -0.0155 -1.6761
 5699TIP3   OH238587   1.145   2.553   5.260 -0.2359  0.0474 -0.1719
 5699TIP3    H138588   1.068   2.542   5.316  0.7077  0.7753  1.2765
 5699TIP3    H238589   1.209   2.490   5.294  0.2820  0.3760 -0.5364
 5700TIP3   OH238590   6.102   2.149   3.517 -0.4045 -0.0911 -0.0004
 5700TIP3    H138591   6.010   2.126   3.505 -0.4693  0.6651 -1.0025
 5700TIP3    H238592   6.123   2.117   3.604 -0.9339 -2.4492 -0.7228
 5701TIP3   OH238593   2.893   5.138   4.037  0.0938 -0.1926  0.2518
 5701TIP3    H138594   2.811   5.186   4.028  0.4878  0.0635 -2.3474
 5701TIP3    H238595   2.866   5.047   4.049 -0.5960 -0.1347 -0.7502
 5702TIP3   OH238596   5.133   1.337  15.266  0.4368 -0.0244 -0.1529
 5702TIP3    H138597   5.056   1.386  15.295 -0.1913 -0.9442 -0.2152
 5702TIP3    H238598   5.132   1.258  15.320  1.7052  0.2489  0.2816
 5703TIP3   OH238599   0.420   1.831  11.655  0.2037  0.2550  0.3650
 5703TIP3    H138600   0.327   1.821  11.676 -0.5399  0.7169 -2.5366
 5703TIP3    H238601   0.434   1.772  11.581  1.6633  1.9285 -0.7292
 5704TIP3   OH238602   6.108   1.685  11.770  0.4500 -0.4646 -0.3071
 5704TIP3    H138603   6.104   1.765  11.718  0.6815  0.6174  1.3107
 5704TIP3    H238604   6.017   1.657  11.778  0.3568 -0.2977 -0.7707
 5705TIP3   OH238605   2.656   3.411   2.577  0.1728 -0.9543  0.2543
 5705TIP3    H138606   2.681   3.473   2.508  2.3947 -0.2912  1.6141
 5705TIP3    H238607   2.703   3.330   2.555  0.5383 -0.8763  0.7376
 5706TIP3   OH238608   2.511   5.991  12.762 -0.1149 -0.4009  0.2467
 5706TIP3    H138609   2.465   6.060  12.713  0.1967 -0.1885  0.2524
 5706TIP3    H238610   2.604   6.010  12.748 -0.0290 -0.7857  0.2980
 5707TIP3   OH238611   4.679   2.670  13.886  0.0552 -0.3321  0.6043
 5707TIP3    H138612   4.583   2.678  13.889  0.0275  1.7850 -2.8220
 5707TIP3    H238613   4.706   2.671  13.977 -3.0701  1.1999  1.5945
 5708TIP3   OH238614   5.868   6.441   4.417  0.1821 -0.0147  0.2261
 5708TIP3    H138615   5.955   6.404   4.434  0.0116 -0.5865 -0.1372
 5708TIP3    H238616   5.871   6.465   4.324 -1.1925 -3.1738 -0.6984
 5709TIP3   OH238617   6.275   6.177   0.372 -0.1453 -0.1744 -0.2977
 5709TIP3    H138618   6.246   6.246   0.312  0.2054  1.4833  1.3631
 5709TIP3    H238619   6.217   6.103   0.354 -0.8394  0.7129 -1.7988
 5710TIP3   OH238620   1.707   0.811  12.143 -0.3597 -0.6343 -0.0405
 5710TIP3    H138621   1.775   0.747  12.119 -1.1203 -1.7238  0.6421
 5710TIP3    H238622   1.630   0.784  12.092 -0.0433  1.1121 -1.4626
 5711TIP3   OH238623   0.417   2.587   2.923 -0.3104 -0.2878  0.9086
 5711TIP3    H138624   0.446   2.623   2.839 -1.2829  1.1659  1.1805
 5711TIP3    H238625   0.449   2.496   2.923 -0.0749 -0.2152 -0.9031
 5712TIP3   OH238626   1.494   4.108  12.481 -0.5466 -0.0580 -0.0085
 5712TIP3    H138627   1.569   4.144  12.529 -0.8789 -1.3646  1.5236
 5712TIP3    H238628   1.417   4.139  12.528 -0.9500  0.2992 -0.8872
 5713TIP3   OH238629   5.342   2.917  15.855 -0.3344  0.3213  0.0211
 5713TIP3    H138630   5.387   2.953  15.931  1.2099  0.3860 -0.8925
 5713TIP3    H238631   5.264   2.971  15.845 -0.2018  0.7344  1.1402
 5714TIP3   OH238632   0.719   4.229   4.160 -0.3909  0.3163 -0.3323
 5714TIP3    H138633   0.809   4.257   4.143  0.0519 -0.2389  1.0046
 5714TIP3    H238634   0.666   4.308   4.152  0.1828  0.5993 -1.3725
 5715TIP3   OH238635   1.584   4.925   3.877  0.3261 -0.2353 -0.3156
 5715TIP3    H138636   1.541   4.995   3.925  0.2493 -0.5901  0.1291
 5715TIP3    H238637   1.641   4.971   3.814  0.5663  0.2227  0.2296
 5716TIP3   OH238638   0.723   6.427   6.090  0.4566 -0.4785 -0.0976
 5716TIP3    H138639   0.753   6.491   6.154  0.4023 -0.3284 -0.2204
 5716TIP3    H238640   0.762   6.455   6.007 -0.2150 -0.1385 -0.3069
 5717TIP3   OH238641   2.271   0.096  11.160 -0.2950 -0.5658  0.3469
 5717TIP3    H138642   2.258   0.023  11.220 -3.6564  0.2002  0.6366
 5717TIP3    H238643   2.250   0.059  11.074  0.0948 -0.5068  0.2293
 5718TIP3   OH238644   0.901   4.875  15.713  0.0025 -0.3510 -0.4533
 5718TIP3    H138645   0.882   4.881  15.619 -0.4505 -0.9482 -0.4025
 5718TIP3    H238646   0.995   4.859  15.718  0.1448  0.3644 -0.7839
 5719TIP3   OH238647   6.733   0.443  15.399  0.2021 -0.8222 -0.0929
 5719TIP3    H138648   6.649   0.428  15.355 -0.5300  0.8427  0.6950
 5719TIP3    H238649   6.770   0.518  15.353 -0.2295  0.4681  1.6587
 5720TIP3   OH238650   5.848   2.575   4.832 -0.5666 -0.1110  0.0408
 5720TIP3    H138651   5.830   2.613   4.918 -2.9599  2.8990 -1.6733
 5720TIP3    H238652   5.918   2.629   4.797 -0.4553 -0.5271 -0.3681
 5721TIP3   OH238653   3.303   3.993  15.153  0.2879 -0.1531  0.1399
 5721TIP3    H138654   3.393   3.964  15.143 -0.1619 -0.8944 -1.8936
 5721TIP3    H238655   3.279   3.964  15.241  1.9475 -0.1334  0.6179
 5722TIP3   OH238656   2.937   2.382  14.384  0.1847  0.1827  0.1739
 5722TIP3    H138657   2.881   2.305  14.386  1.7452 -1.0048 -0.9463
 5722TIP3    H238658   2.879   2.454  14.410 -1.7566 -1.0755 -0.5351
 5723TIP3   OH238659   5.484   1.838  15.695  0.0097 -0.5272 -0.1334
 5723TIP3    H138660   5.434   1.863  15.617  1.2640  1.3853 -0.3533
 5723TIP3    H238661   5.559   1.790  15.661  0.7071  0.5525 -0.1352
 5724TIP3   OH238662   6.165   1.094   2.285 -0.2286  0.2426 -0.8322
 5724TIP3    H138663   6.083   1.141   2.298 -0.5908 -0.9761  1.4166
 5724TIP3    H238664   6.143   1.022   2.226 -0.2174  1.3815 -2.2438
 5725TIP3   OH238665   5.004   6.654  13.120 -0.2241  0.3158  0.2187
 5725TIP3    H138666   5.065   6.627  13.189 -0.3513  0.8899  0.5633
 5725TIP3    H238667   4.939   6.584  13.117  0.9931 -0.7808 -0.8407
 5726TIP3   OH238668   3.861   3.889   5.850 -0.7277  0.2160  0.3728
 5726TIP3    H138669   3.910   3.848   5.922 -1.7219 -1.8643 -0.0817
 5726TIP3    H238670   3.913   3.965   5.825 -1.2184  2.0295  4.4670
 5727TIP3   OH238671   4.829   6.613   2.138  0.2156 -0.1064  0.2084
 5727TIP3    H138672   4.778   6.603   2.058 -1.2050  1.2992  0.9258
 5727TIP3    H238673   4.920   6.612   2.108 -0.2948  0.1172 -1.3960
 5728TIP3   OH238674   5.250   6.418   4.366  0.4323  0.1425 -0.2667
 5728TIP3    H138675   5.160   6.387   4.376 -0.4076  2.2970 -0.9229
 5728TIP3    H238676   5.296   6.346   4.322 -0.9765 -0.9228 -0.0159
 5729TIP3   OH238677   4.434   1.773  15.435 -0.8858 -0.1131 -0.4772
 5729TIP3    H138678   4.522   1.767  15.472 -1.7426 -0.5423  1.5127
 5729TIP3    H238679   4.409   1.682  15.418 -2.0950 -0.2379  1.7606
 5730TIP3   OH238680   4.396   1.894  14.300  0.0353 -0.1544  0.2517
 5730TIP3    H138681   4.389   1.815  14.353 -0.8293  0.4857  1.1075
 5730TIP3    H238682   4.408   1.965  14.363  0.5892  0.4329 -0.4958
 5731TIP3   OH238683   5.514   6.657  16.386  0.0016 -0.0818  0.1317
 5731TIP3    H138684   5.581   6.591  16.404 -0.0352 -0.2553 -0.3785
 5731TIP3    H238685   5.454   6.614  16.326 -0.4031  0.1797  0.3511
 5732TIP3   OH238686   6.801   3.661   3.481  0.1151  0.2060 -0.0717
 5732TIP3    H138687   6.794   3.717   3.404 -0.0022  1.6034  0.9202
 5732TIP3    H238688   6.717   3.615   3.485 -1.2251  2.6567  1.0910
 5733TIP3   OH238689   0.981   5.744  13.876 -0.0827 -0.1105  0.0414
 5733TIP3    H138690   0.997   5.731  13.969 -0.3372  0.8153  0.2208
 5733TIP3    H238691   0.981   5.656  13.839 -0.5724 -0.5265  1.0092
 5734TIP3   OH238692   4.489   0.304   6.379 -0.4213 -0.1111  0.3742
 5734TIP3    H138693   4.524   0.215   6.375  2.0794  0.8511  0.2906
 5734TIP3    H238694   4.450   0.318   6.293  1.7237 -0.1132 -0.6202
 5735TIP3   OH238695   2.898   1.865   6.021 -0.4740 -0.0032 -0.5001
 5735TIP3    H138696   2.968   1.892   5.962 -0.6748 -0.0244 -0.7517
 5735TIP3    H238697   2.897   1.769   6.016  0.7267 -0.1129  0.9586
 5736TIP3   OH238698   6.113   4.620  13.895  0.2563 -0.0558  0.4646
 5736TIP3    H138699   6.074   4.539  13.928 -1.4241  0.4400 -0.2788
 5736TIP3    H238700   6.185   4.638  13.955  0.1047 -1.6325  1.1466
 5737TIP3   OH238701   5.594   1.481  14.302 -0.1693 -0.4721 -0.4766
 5737TIP3    H138702   5.635   1.507  14.384  0.4018 -1.7484 -0.3380
 5737TIP3    H238703   5.501   1.474  14.323 -0.0997 -0.2384 -0.0828
 5738TIP3   OH238704   4.637   3.289   3.248  0.0162  0.0250  0.2521
 5738TIP3    H138705   4.682   3.228   3.190  0.4890 -0.1128  0.7630
 5738TIP3    H238706   4.598   3.353   3.189 -2.3022 -1.9606 -0.4254
 5739TIP3   OH238707   3.997   1.563   1.289 -0.2321 -0.7701 -0.2460
 5739TIP3    H138708   3.978   1.490   1.348  2.1735 -1.0832  0.2181
 5739TIP3    H238709   3.979   1.529   1.202  0.5189 -1.8057 -0.0027
 5740TIP3   OH238710   1.962   1.609  16.993  0.1473 -0.2764 -0.1724
 5740TIP3    H138711   2.057   1.601  16.988  0.3322  1.6944 -0.3082
 5740TIP3    H238712   1.937   1.554  17.067  1.2731 -1.6165 -0.7658
 5741TIP3   OH238713   1.416   2.354  14.554  0.1124  0.2517  0.0768
 5741TIP3    H138714   1.427   2.436  14.603 -0.9453  1.0315 -0.9716
 5741TIP3    H238715   1.505   2.327  14.532  0.4442  1.4760 -0.1363
 5742TIP3   OH238716   3.382   0.942  14.049 -0.5172  0.4640  0.2368
 5742TIP3    H138717   3.466   0.985  14.063  0.5657 -1.0906 -1.3654
 5742TIP3    H238718   3.348   0.982  13.969 -2.0883  2.2158  1.7081
 5743TIP3   OH238719   4.239   3.168  14.976 -0.4289  1.0026 -0.3531
 5743TIP3    H138720   4.283   3.214  14.905  1.0354 -1.2546 -0.9415
 5743TIP3    H238721   4.284   3.198  15.055 -1.1052  2.4142 -0.4915
 5744TIP3   OH238722   4.652   3.333   2.259 -0.0745  0.2041  0.2488
 5744TIP3    H138723   4.563   3.300   2.271 -0.2426 -0.3986 -2.3870
 5744TIP3    H238724   4.706   3.255   2.247  0.4313  0.6509 -0.4625
 5745TIP3   OH238725   4.928   4.428  16.566  0.4439 -0.5196 -0.0252
 5745TIP3    H138726   4.868   4.393  16.632  0.2542 -0.3157 -0.0882
 5745TIP3    H238727   4.871   4.473  16.504  0.8601  1.5638  1.0934
 5746TIP3   OH238728   1.733   5.918   4.044  0.1864 -0.1436  0.0273
 5746TIP3    H138729   1.721   5.911   3.949 -0.9103  0.2689  0.1294
 5746TIP3    H238730   1.823   5.889   4.059  0.0468 -1.1638 -1.0300
 5747TIP3   OH238731   6.611   1.924  16.367 -0.2705  0.3751 -0.6167
 5747TIP3    H138732   6.584   2.014  16.384 -0.1408  0.3510 -0.2898
 5747TIP3    H238733   6.691   1.913  16.418 -0.0961  0.1827 -0.9302
 5748TIP3   OH238734   6.785   5.913   3.021  0.0371 -0.8269 -0.3480
 5748TIP3    H138735   6.805   5.978   3.089 -1.2513  0.6028 -1.2812
 5748TIP3    H238736   6.832   5.834   3.048  2.1386  0.6616  0.5110
 5749TIP3   OH238737   6.784   5.398  11.515 -0.2861 -0.5832 -0.5157
 5749TIP3    H138738   6.733   5.372  11.438  0.3057 -1.4663 -0.6199
 5749TIP3    H238739   6.869   5.355  11.503 -0.4625 -1.4102  1.0313
 5750TIP3   OH238740   1.645   2.836   5.681 -0.1870 -0.4628 -0.4378
 5750TIP3    H138741   1.561   2.869   5.650  0.1830 -2.1165 -3.4270
 5750TIP3    H238742   1.695   2.818   5.601  2.5254 -0.7400  1.2448
 5751TIP3   OH238743   5.256   3.766  11.284  0.2347  0.1615 -0.0538
 5751TIP3    H138744   5.262   3.678  11.247  1.4668 -0.5075  1.6552
 5751TIP3    H238745   5.195   3.813  11.227 -1.3442 -2.1426 -0.3258
 5752TIP3   OH238746   2.906   3.043  13.642 -0.0449  0.9199  0.2975
 5752TIP3    H138747   3.000   3.057  13.638 -0.2267  2.1012 -0.0354
 5752TIP3    H238748   2.871   3.093  13.568 -0.8107 -0.5478 -0.3525
 5753TIP3   OH238749   6.215   2.183  15.090  0.0522  0.9479  0.5819
 5753TIP3    H138750   6.264   2.214  15.166 -1.5067  1.5715  1.3687
 5753TIP3    H238751   6.123   2.198  15.114 -0.6765 -2.3605  0.1459
 5754TIP3   OH238752   4.160   2.526   0.118  0.1041  0.0417 -0.5901
 5754TIP3    H138753   4.079   2.566   0.151 -0.1071  1.0799 -2.3135
 5754TIP3    H238754   4.224   2.543   0.187 -0.4479  1.7280 -0.4702
 5755TIP3   OH238755   4.658   6.717  16.111  0.4742  0.1237  0.3985
 5755TIP3    H138756   4.749   6.702  16.088  0.5297 -1.1955  1.4268
 5755TIP3    H238757   4.652   6.811  16.127  1.8569  0.0882  1.1802
 5756TIP3   OH238758   6.082   1.750   3.549  0.2931  0.2676 -0.6750
 5756TIP3    H138759   6.011   1.814   3.544 -1.2783 -1.2762  0.9207
 5756TIP3    H238760   6.139   1.783   3.618  0.5134  0.9135 -1.1610
 5757TIP3   OH238761   6.150   5.939  14.931 -0.5320 -0.2667  0.8498
 5757TIP3    H138762   6.115   5.953  14.843  0.3008  1.4061  0.7712
 5757TIP3    H238763   6.221   5.876  14.919 -0.5848 -0.2355  0.3655
 5758TIP3   OH238764   2.498   3.552  13.554  0.4234 -0.8168  0.1947
 5758TIP3    H138765   2.587   3.554  13.588  0.9305  0.5469 -1.1557
 5758TIP3    H238766   2.475   3.459  13.551  1.1681 -1.0843  2.1170
 5759TIP3   OH238767   2.735   3.212   0.763 -0.5091  0.1845 -0.5581
 5759TIP3    H138768   2.757   3.128   0.803  0.8224  1.1264  0.7312
 5759TIP3    H238769   2.733   3.194   0.669  0.6860 -1.0856 -0.3535
 5760TIP3   OH238770   2.139   6.728   1.288  0.6250  0.0226 -0.5153
 5760TIP3    H138771   2.078   6.747   1.217 -0.3784  0.7199  0.4970
 5760TIP3    H238772   2.101   6.651   1.332 -0.4587  1.4427  1.1191
 5761TIP3   OH238773   1.986   2.452  11.500 -0.2033 -0.6075  0.0490
 5761TIP3    H138774   2.037   2.533  11.506  2.3667 -2.1685  0.3592
 5761TIP3    H238775   1.921   2.469  11.432 -0.4723  2.0749  0.9075
 5762TIP3   OH238776   2.054   1.248   5.468  0.4916  0.1330  0.6455
 5762TIP3    H138777   2.070   1.158   5.440 -0.1080  0.4793 -0.8284
 5762TIP3    H238778   2.096   1.302   5.402 -1.1914  0.9568  0.2349
 5763TIP3   OH238779   1.757   4.911   4.489  0.4774 -0.3344 -0.5058
 5763TIP3    H138780   1.838   4.953   4.518  0.1720 -1.0436  1.4287
 5763TIP3    H238781   1.702   4.906   4.568 -0.9213 -1.0560 -1.4993
 5764TIP3   OH238782   5.831   3.970  16.235  0.0660  0.2066  0.0824
 5764TIP3    H138783   5.773   3.898  16.260  1.6312 -0.6916  1.2715
 5764TIP3    H238784   5.781   4.021  16.172 -0.7747 -2.4666 -1.5177
 5765TIP3   OH238785   5.832   1.961   5.814 -0.2178  0.4780  0.0257
 5765TIP3    H138786   5.894   1.992   5.748 -0.2959  0.4459 -0.0630
 5765TIP3    H238787   5.832   2.029   5.881 -0.9581  1.0344 -0.5339
 5766TIP3   OH238788   1.296   2.691   1.938  0.9814  0.0565 -0.2643
 5766TIP3    H138789   1.232   2.671   1.869  0.1864 -2.6033  1.1799
 5766TIP3    H238790   1.380   2.670   1.899  0.4803 -2.0677 -0.2309
 5767TIP3   OH238791   4.088   4.170   4.975  0.4976  0.0198  0.1619
 5767TIP3    H138792   4.126   4.248   5.016 -1.0711 -0.3241  2.3984
 5767TIP3    H238793   4.045   4.202   4.896 -1.8048  1.7992  2.0652
 5768TIP3   OH238794   2.391   1.597  14.954  0.0035  0.5299  0.4295
 5768TIP3    H138795   2.429   1.510  14.967 -0.9137  0.1156  0.3854
 5768TIP3    H238796   2.392   1.610  14.859  0.2424  0.6104  0.4430
 5769TIP3   OH238797   2.535   3.497  12.932 -0.2439  0.2321 -0.1498
 5769TIP3    H138798   2.516   3.511  12.839 -0.1928  0.4343 -0.1311
 5769TIP3    H238799   2.451   3.513  12.976  0.0564  1.5103 -0.0243
 5770TIP3   OH238800   0.174   2.530  13.838  0.5809 -0.6268  0.1692
 5770TIP3    H138801   0.113   2.561  13.905  0.9201  0.7283 -0.1361
 5770TIP3    H238802   0.119   2.487  13.772 -0.1113  1.1332 -0.4145
 5771TIP3   OH238803   2.433   6.353  11.425  0.2105 -0.2660 -0.6322
 5771TIP3    H138804   2.419   6.284  11.360 -0.6364 -0.0419 -0.6902
 5771TIP3    H238805   2.433   6.434  11.373 -0.3732 -0.0944 -0.3611
 5772TIP3   OH238806   5.623   4.211  11.373  0.1240  0.2747 -0.4908
 5772TIP3    H138807   5.609   4.304  11.386  0.8109  0.5825 -1.8808
 5772TIP3    H238808   5.535   4.173  11.372 -0.1079  0.7451  1.1657
 5773TIP3   OH238809   0.535   4.206   2.807 -0.1541 -0.0228  0.2178
 5773TIP3    H138810   0.616   4.154   2.804  0.1252  0.3602  0.9567
 5773TIP3    H238811   0.525   4.240   2.718  1.8222  1.8960  0.6769
 5774TIP3   OH238812   0.904   5.006   2.654  0.4230  0.2922  0.0308
 5774TIP3    H138813   0.963   5.045   2.589  2.2675 -0.7885  1.0350
 5774TIP3    H238814   0.856   4.939   2.605  1.8986 -0.6068 -0.2071
 5775TIP3   OH238815   5.881   5.856  14.005 -0.5587  0.3087  0.1380
 5775TIP3    H138816   5.975   5.838  13.998 -0.7926 -0.3707 -1.4125
 5775TIP3    H238817   5.844   5.776  14.041 -0.8877 -0.4411 -1.7986
 5776TIP3   OH238818   0.738   2.208   3.011  0.3815 -0.0318 -0.0092
 5776TIP3    H138819   0.661   2.262   2.995 -0.8809 -2.0290 -0.9331
 5776TIP3    H238820   0.734   2.140   2.944  2.1639 -1.0066  0.8274
 5777TIP3   OH238821   3.369   0.717  11.073 -0.6256  0.6935  0.0026
 5777TIP3    H138822   3.433   0.756  11.014  0.4977  1.3649  1.6496
 5777TIP3    H238823   3.373   0.623  11.054 -0.8461  0.9747 -1.5243
 5778TIP3   OH238824   6.097   2.592   5.503 -0.1715  0.2815 -0.8595
 5778TIP3    H138825   6.049   2.608   5.421 -0.1189  2.4754 -0.5029
 5778TIP3    H238826   6.168   2.656   5.502  0.3491 -0.2585  0.4881
 5779TIP3   OH238827   0.450   5.373   2.383 -0.3933 -0.1022  0.3001
 5779TIP3    H138828   0.492   5.436   2.324  0.4006  0.5316  1.5200
 5779TIP3    H238829   0.413   5.426   2.453 -1.6013 -0.8241  0.2391
 5780TIP3   OH238830   3.404   1.815   4.594 -0.3035 -0.1653  0.1277
 5780TIP3    H138831   3.460   1.758   4.541 -1.2073 -0.0577 -0.9617
 5780TIP3    H238832   3.346   1.858   4.530  0.2466  1.8531  0.9331
 5781TIP3   OH238833   4.807   2.449  17.259 -0.8660 -0.4221 -0.7542
 5781TIP3    H138834   4.833   2.534  17.221 -1.0081 -0.6601 -1.3979
 5781TIP3    H238835   4.794   2.467  17.352 -1.3645  0.3779 -0.9725
 5782TIP3   OH238836   1.860   5.313  11.528 -0.1489 -0.3500  0.2910
 5782TIP3    H138837   1.933   5.334  11.586  1.2690 -1.4512 -1.0226
 5782TIP3    H238838   1.896   5.327  11.440 -1.7904 -0.0936 -0.3413
 5783TIP3   OH238839   3.382   4.454  15.416 -0.3326  0.1297  0.2877
 5783TIP3    H138840   3.422   4.373  15.385 -2.3352 -0.5083 -0.6751
 5783TIP3    H238841   3.367   4.439  15.510 -4.1051 -2.0908 -0.5895
 5784TIP3   OH238842   1.140   2.183  14.311 -0.2845  0.3492  0.0688
 5784TIP3    H138843   1.068   2.122  14.294  0.3757 -0.1969 -0.8398
 5784TIP3    H238844   1.219   2.132  14.294  0.2820  1.4260 -0.6089
 5785TIP3   OH238845   0.104   5.455  13.429 -0.2627 -0.0820 -0.2841
 5785TIP3    H138846   0.020   5.501  13.437  0.3984  0.8315  1.7201
 5785TIP3    H238847   0.083   5.375  13.381 -2.2633  0.1918  0.0900
 5786TIP3   OH238848   5.471   5.715   0.127  0.0151  0.2860 -0.0407
 5786TIP3    H138849   5.540   5.758   0.177  0.2399 -0.5499  0.3838
 5786TIP3    H238850   5.390   5.759   0.155  0.3740  1.3095 -0.5952
 5787TIP3   OH238851   6.320   1.732  11.565 -0.4938 -0.6745  0.4586
 5787TIP3    H138852   6.237   1.695  11.597  0.1051 -2.0933  0.4189
 5787TIP3    H238853   6.373   1.655  11.543  1.6461  0.1443  2.5279
 5788TIP3   OH238854   3.589   4.622   5.111 -0.5763  0.1889 -0.2925
 5788TIP3    H138855   3.667   4.592   5.063 -0.5235  1.0280 -0.7440
 5788TIP3    H238856   3.523   4.556   5.092 -0.6708  0.7182 -1.8717
 5789TIP3   OH238857   5.610   2.931  12.620  0.2716  0.0689  0.0336
 5789TIP3    H138858   5.590   2.838  12.607  1.5786 -0.5660  2.2553
 5789TIP3    H238859   5.690   2.945  12.569 -0.3886  0.2096 -0.9889
 5790TIP3   OH238860   1.864   5.652   2.315  0.7438  0.0774 -0.3413
 5790TIP3    H138861   1.846   5.641   2.222  2.4138 -0.3006 -0.6329
 5790TIP3    H238862   1.865   5.563   2.351 -0.2264  0.2377  0.1239
 5791TIP3   OH238863   0.815   1.402  12.730  0.4190 -0.2319 -0.5369
 5791TIP3    H138864   0.767   1.414  12.647 -1.0068 -0.8124  0.1826
 5791TIP3    H238865   0.773   1.464  12.790  0.7254 -0.5975  0.0510
 5792TIP3   OH238866   1.238   2.765  16.334 -0.0626 -0.2962  0.3182
 5792TIP3    H138867   1.312   2.826  16.324  0.2319 -0.4255  1.6662
 5792TIP3    H238868   1.165   2.808  16.288  0.0546  1.2172  1.5245
 5793TIP3   OH238869   5.294   1.148   0.791 -0.5382  0.7831  0.0668
 5793TIP3    H138870   5.377   1.126   0.749 -1.5549 -0.4102 -1.3424
 5793TIP3    H238871   5.275   1.237   0.760 -1.1457  0.0134 -1.7878
 5794TIP3   OH238872   3.783   4.646   5.788  0.5118  0.2142  0.0030
 5794TIP3    H138873   3.706   4.648   5.732 -0.4210 -0.3460  1.2379
 5794TIP3    H238874   3.808   4.738   5.799  0.8779  0.3095 -1.5401
 5795TIP3   OH238875   1.148   4.562  13.548 -0.2626  0.2841  0.3753
 5795TIP3    H138876   1.221   4.503  13.565 -0.8492  0.0911  2.3259
 5795TIP3    H238877   1.181   4.649  13.573 -0.9815  0.0680  2.0962
 5796TIP3   OH238878   6.423   1.662  14.808  0.4047  0.3952 -0.1845
 5796TIP3    H138879   6.487   1.730  14.786  1.7537 -1.1242 -0.9685
 5796TIP3    H238880   6.381   1.640  14.725  0.0256  0.1824  0.0593
 5797TIP3   OH238881   4.570   2.522   2.580 -0.1751  0.1456  0.2242
 5797TIP3    H138882   4.664   2.539   2.577 -0.3673  1.0551 -0.9185
 5797TIP3    H238883   4.557   2.447   2.522 -0.2537  0.4832 -0.1937
 5798TIP3   OH238884   6.400   2.467   3.561 -0.1324  0.4252 -0.9403
 5798TIP3    H138885   6.363   2.405   3.623 -1.0992  1.9890  0.0882
 5798TIP3    H238886   6.354   2.550   3.579  0.5553  1.2562 -2.7905
 5799TIP3   OH238887   1.526   2.053  11.047  0.1739 -0.3731  0.2140
 5799TIP3    H138888   1.595   2.119  11.041  0.1599 -0.2095  1.5680
 5799TIP3    H238889   1.445   2.105  11.056  0.0330 -0.5671  0.0584
 5800TIP3   OH238890   0.789   1.291  14.543  0.8857  0.0800  0.3070
 5800TIP3    H138891   0.736   1.282  14.464  1.0100  0.4398  0.1773
 5800TIP3    H238892   0.856   1.224  14.535  0.9847  0.2110  0.0347
 5801TIP3   OH238893   6.535   0.984   4.641 -0.8909 -0.2472 -0.1119
 5801TIP3    H138894   6.565   0.899   4.609 -1.1847  0.2048 -1.6224
 5801TIP3    H238895   6.449   0.966   4.680 -0.8212 -0.6881 -0.1571
 5802TIP3   OH238896   1.567   4.504   3.821 -0.2537  0.1082 -0.1377
 5802TIP3    H138897   1.625   4.553   3.880 -0.5689 -0.0864  0.3354
 5802TIP3    H238898   1.485   4.554   3.821  0.1281  0.7604 -1.3362
 5803TIP3   OH238899   6.030   4.370  14.039  0.2477  0.5127  0.3882
 5803TIP3    H138900   5.953   4.316  14.058 -0.4330  1.2477 -0.2191
 5803TIP3    H238901   6.072   4.381  14.124 -0.2232 -0.0433  0.7050
 5804TIP3   OH238902   3.404   1.528  15.145  0.1049  0.2765  0.2980
 5804TIP3    H138903   3.399   1.623  15.151 -1.2894  0.3684 -1.7492
 5804TIP3    H238904   3.324   1.496  15.187 -0.1738  0.0845 -0.3710
 5805TIP3   OH238905   6.494   0.472  11.679  0.1951 -0.4934 -0.3229
 5805TIP3    H138906   6.489   0.500  11.770 -1.7055  0.2317 -0.6223
 5805TIP3    H238907   6.482   0.377  11.682 -1.8320 -0.2540  0.0576
 5806TIP3   OH238908   6.182   3.824  12.035 -0.5862  0.1000  0.6502
 5806TIP3    H138909   6.112   3.833  11.970  0.0810 -0.1046 -0.0977
 5806TIP3    H238910   6.263   3.839  11.986 -0.1114  0.5220  1.5524
 5807TIP3   OH238911   6.568   2.423   6.042  0.3971 -0.5275  0.9317
 5807TIP3    H138912   6.565   2.505   5.992 -1.5956  0.0583  1.9850
 5807TIP3    H238913   6.661   2.409   6.058  0.9608  0.1502 -1.5054
 5808TIP3   OH238914   2.474   5.756  15.150 -0.9590 -0.3821  1.1950
 5808TIP3    H138915   2.408   5.767  15.082 -0.4856 -0.3218  0.7453
 5808TIP3    H238916   2.536   5.827  15.135 -0.1593 -1.1429  0.8851
 5809TIP3   OH238917   2.235   4.146  17.001  0.0865  0.2806 -0.2410
 5809TIP3    H138918   2.158   4.150  17.058 -1.1810  0.7106 -1.9280
 5809TIP3    H238919   2.291   4.079  17.040 -0.2363  1.3316  2.1091
 5810TIP3   OH238920   4.796   6.233   2.660 -0.1798  0.1780  0.1862
 5810TIP3    H138921   4.777   6.177   2.585  0.3469 -0.3221  0.4217
 5810TIP3    H238922   4.880   6.274   2.639 -0.8429  1.3310 -0.2450
 5811TIP3   OH238923   5.171   3.555  16.529 -0.3944  0.0381  0.0477
 5811TIP3    H138924   5.124   3.638  16.525  0.6292  0.6096 -0.2364
 5811TIP3    H238925   5.254   3.572  16.484  0.7919 -0.4798  1.9962
 5812TIP3   OH238926   5.024   0.641   1.469  0.2711 -0.2038  0.3621
 5812TIP3    H138927   4.968   0.649   1.546  0.3202 -0.0400  0.3807
 5812TIP3    H238928   5.090   0.576   1.494  0.4955  0.1112  0.5832
 5813TIP3   OH238929   6.249   3.975   1.775 -0.0125 -0.2705  0.1391
 5813TIP3    H138930   6.214   4.016   1.696 -0.0103 -1.5254 -0.5320
 5813TIP3    H238931   6.323   4.030   1.800 -0.4195  0.5091 -0.3530
 5814TIP3   OH238932   5.794   1.851  14.395  0.1729 -0.1552 -0.1707
 5814TIP3    H138933   5.841   1.849  14.312 -0.2902 -0.4167 -0.4293
 5814TIP3    H238934   5.829   1.928  14.441  0.6385 -0.1809 -0.4823
 5815TIP3   OH238935   5.484   0.807  13.195 -0.0130 -0.2075 -0.6770
 5815TIP3    H138936   5.542   0.879  13.219 -1.8498  0.9613  0.3927
 5815TIP3    H238937   5.471   0.816  13.101  1.9534 -0.8299 -1.0401
 5816TIP3   OH238938   3.599   0.350  12.745 -0.1014 -0.4856 -0.2228
 5816TIP3    H138939   3.637   0.438  12.737  0.1377 -0.5447  0.2060
 5816TIP3    H238940   3.641   0.314  12.823 -0.5522 -0.8023 -0.1269
 5817TIP3   OH238941   0.487   3.031  17.200  0.7186 -0.1285  0.2042
 5817TIP3    H138942   0.547   3.061  17.131 -0.4393 -0.2793 -0.8871
 5817TIP3    H238943   0.534   2.961  17.244  1.1506 -0.5910 -0.9738
 5818TIP3   OH238944   1.236   5.062  16.623 -0.5420  0.5804  0.0665
 5818TIP3    H138945   1.316   5.021  16.590 -0.8438 -0.7763  1.0101
 5818TIP3    H238946   1.259   5.155  16.632  0.6597  0.3446 -0.4829
 5819TIP3   OH238947   3.348   3.824   4.114  0.4056 -0.1790 -0.5155
 5819TIP3    H138948   3.388   3.750   4.068 -0.1925  0.1454 -1.5558
 5819TIP3    H238949   3.359   3.802   4.207 -0.4152 -1.9492 -0.8032
 5820TIP3   OH238950   4.189   5.857   2.797 -0.2701 -1.0378  0.7343
 5820TIP3    H138951   4.238   5.939   2.788  0.2108 -1.3768  0.2212
 5820TIP3    H238952   4.157   5.838   2.709 -2.4343 -0.1536  1.2976
 5821TIP3   OH238953   1.795   2.457   5.054  0.6982  0.8260 -0.6597
 5821TIP3    H138954   1.749   2.535   5.086  1.5793  1.4628 -0.9192
 5821TIP3    H238955   1.800   2.470   4.959 -0.2735 -0.1636 -0.8575
 5822TIP3   OH238956   4.958   5.118   2.171  1.0448  0.0107 -0.1127
 5822TIP3    H138957   4.943   5.026   2.153  0.1874  0.1787 -0.2967
 5822TIP3    H238958   4.986   5.120   2.263 -0.9483 -0.2659  0.5404
 5823TIP3   OH238959   0.055   3.320   3.804  0.7799  0.6473 -0.5810
 5823TIP3    H138960   0.112   3.386   3.843  0.7041 -0.0482  0.7343
 5823TIP3    H238961   0.109   3.278   3.737  1.3465  0.9602 -0.3247
 5824TIP3   OH238962   0.997   2.312   1.538  0.1701  0.6183 -0.2841
 5824TIP3    H138963   0.943   2.386   1.567 -1.0767  0.6335 -2.5213
 5824TIP3    H238964   0.984   2.309   1.443  1.5448 -1.4340 -0.4362
 5825TIP3   OH238965   2.670   0.871  11.264 -0.3127  0.0330 -0.1054
 5825TIP3    H138966   2.702   0.796  11.215  1.5758  0.2113  0.8002
 5825TIP3    H238967   2.633   0.929  11.197 -2.5779 -2.0484 -0.7092
 5826TIP3   OH238968   2.747   3.274   3.222  0.8759 -0.1592  0.0669
 5826TIP3    H138969   2.729   3.241   3.134  0.6260 -0.1494  0.1135
 5826TIP3    H238970   2.691   3.221   3.279 -0.9879  1.6139 -0.0387
 5827TIP3   OH238971   2.726   1.128  14.842 -0.6653  0.0716  0.1007
 5827TIP3    H138972   2.703   1.211  14.884  1.1218 -0.0907  1.4474
 5827TIP3    H238973   2.784   1.153  14.770 -0.1506  0.0164  0.4881
 5828TIP3   OH238974   4.708   6.405   1.924  0.4949  0.0102  0.2275
 5828TIP3    H138975   4.670   6.318   1.909  0.1326  0.3307 -0.7557
 5828TIP3    H238976   4.802   6.392   1.914  0.5294 -0.4785  1.1370
 5829TIP3   OH238977   4.149   4.496  16.657  0.4612  0.1394  0.2598
 5829TIP3    H138978   4.219   4.543  16.612  1.0966  0.6685  1.7447
 5829TIP3    H238979   4.081   4.562  16.670  0.4330  0.0818  0.4035
 5830TIP3   OH238980   0.479   6.150   1.378 -0.4317 -0.1577 -0.0157
 5830TIP3    H138981   0.495   6.123   1.469 -1.6891 -0.9562 -0.0192
 5830TIP3    H238982   0.527   6.085   1.326  0.1674  0.2119  0.0696
 5831TIP3   OH238983   6.681   5.180  17.099 -0.0089  0.0500  0.3685
 5831TIP3    H138984   6.688   5.136  17.184  0.5260  0.1815  0.3944
 5831TIP3    H238985   6.662   5.272  17.122  1.8627  0.4363  0.3912
 5832TIP3   OH238986   5.614   4.156  13.331  0.1224 -0.5954  0.0068
 5832TIP3    H138987   5.554   4.106  13.387  0.9465 -0.2135  1.2639
 5832TIP3    H238988   5.658   4.217  13.391  1.1144 -0.2472 -1.0427
 5833TIP3   OH238989   1.045   5.634   3.942 -0.1342  0.5186  0.0825
 5833TIP3    H138990   1.112   5.614   3.877  1.4673  0.0300  1.8208
 5833TIP3    H238991   0.979   5.566   3.931  0.7379 -0.2897 -0.2101
 5834TIP3   OH238992   2.067   1.236   1.768 -0.4333 -0.2361 -0.4599
 5834TIP3    H138993   2.012   1.211   1.842 -0.9706 -0.5001 -0.9355
 5834TIP3    H238994   2.109   1.155   1.741 -0.9896 -0.3444 -1.0413
 5835TIP3   OH238995   1.947   4.405  14.205 -0.0363  0.4402 -0.2567
 5835TIP3    H138996   1.917   4.371  14.121  1.9981 -0.0444 -0.8279
 5835TIP3    H238997   2.042   4.394  14.202  0.1678  1.5109  1.6328
 5836TIP3   OH238998   4.520   0.158  11.305 -0.3167  0.1247 -0.1065
 5836TIP3    H138999   4.477   0.226  11.253 -0.2839 -0.6621 -1.2047
 5836TIP3    H239000   4.613   0.166  11.283 -0.2378  0.1396  0.2392
 5837TIP3   OH239001   0.384   2.955   0.228  0.0858 -0.1268 -0.0639
 5837TIP3    H139002   0.293   2.956   0.258 -0.4973  0.4936 -1.8147
 5837TIP3    H239003   0.396   2.867   0.191  0.5899 -0.6379  1.2617
 5838TIP3   OH239004   4.319   5.305  11.956  0.1205  0.3675 -0.1950
 5838TIP3    H139005   4.240   5.311  11.901  0.2520 -1.6561 -0.6383
 5838TIP3    H239006   4.324   5.389  12.000 -2.9143  0.1345  0.6800
 5839TIP3   OH239007   3.733   1.611   3.106  0.1442  0.4678 -0.0571
 5839TIP3    H139008   3.749   1.667   3.182  0.0890  1.1781 -0.5672
 5839TIP3    H239009   3.653   1.563   3.129 -0.0977  0.9697  0.1728
 5840TIP3   OH239010   3.928   2.692  16.466 -0.2135 -0.1247  0.0157
 5840TIP3    H139011   3.991   2.635  16.510 -2.7419 -1.4698  2.0630
 5840TIP3    H239012   3.922   2.658  16.377  2.2128  0.3103 -0.3564
 5841TIP3   OH239013   1.938   3.246   1.550 -0.1234  0.1054  0.1836
 5841TIP3    H139014   2.025   3.260   1.586  0.1182  1.1362 -0.7704
 5841TIP3    H239015   1.954   3.210   1.463 -0.6638 -0.5862  0.3702
 5842TIP3   OH239016   0.368   4.142  12.006  0.6399  0.2165  0.2955
 5842TIP3    H139017   0.278   4.115  12.023  1.6759 -1.9859  2.6870
 5842TIP3    H239018   0.392   4.195  12.082  1.0505  1.6217 -0.8010
 5843TIP3   OH239019   0.588   4.990   4.874 -0.4949  0.1674 -0.2672
 5843TIP3    H139020   0.616   4.969   4.963  3.4752 -0.9205 -1.6524
 5843TIP3    H239021   0.566   5.083   4.877 -2.7604 -0.3984  2.3436
 5844TIP3   OH239022   4.315   5.077  13.576  0.2201  0.5211  0.5290
 5844TIP3    H139023   4.222   5.053  13.577  0.1791  0.5934 -0.7531
 5844TIP3    H239024   4.351   5.030  13.500  0.7972  2.0784 -0.1853
 5845TIP3   OH239025   0.265   6.386  13.976  0.1601  0.0065  0.2309
 5845TIP3    H139026   0.349   6.379  14.021  0.5520 -0.7552 -0.6040
 5845TIP3    H239027   0.248   6.297  13.945  0.3152  0.7016 -1.8851
 5846TIP3   OH239028   3.314   6.451   1.729 -0.1310 -0.0080 -0.0361
 5846TIP3    H139029   3.362   6.369   1.714 -2.7298 -2.2614  3.2159
 5846TIP3    H239030   3.281   6.475   1.643  2.3678 -1.2526 -1.4039
 5847TIP3   OH239031   3.795   6.132   4.109 -0.4443  0.2914  0.3971
 5847TIP3    H139032   3.793   6.052   4.162 -0.0857 -0.1467 -0.2360
 5847TIP3    H239033   3.705   6.166   4.114 -0.3619  0.3643  1.4413
 5848TIP3   OH239034   4.514   2.373   5.278 -0.0131 -0.1263  0.0886
 5848TIP3    H139035   4.552   2.460   5.267 -1.2085  0.2087 -1.6774
 5848TIP3    H239036   4.561   2.335   5.352  1.0942  1.7044  0.3522
 5849TIP3   OH239037   1.581   2.533  10.808 -0.0929 -0.4616  0.6489
 5849TIP3    H139038   1.555   2.517  10.717 -0.0999 -0.0019  0.5716
 5849TIP3    H239039   1.627   2.616  10.806  1.3508 -1.2367  0.7939
 5850TIP3   OH239040   5.354   1.306  12.436  0.4073  0.5175  0.1222
 5850TIP3    H139041   5.359   1.401  12.428  0.5718  0.4086 -1.0203
 5850TIP3    H239042   5.443   1.279  12.459 -0.3616  0.9624  3.9828
 5851TIP3   OH239043   6.585   3.661   4.594  0.2646 -0.6454  0.0843
 5851TIP3    H139044   6.662   3.687   4.544 -0.2566  0.4854 -0.1309
 5851TIP3    H239045   6.511   3.687   4.540 -0.2805 -0.8039  0.7524
 5852TIP3   OH239046   5.967   6.009   0.731  0.1940 -0.2182  0.0700
 5852TIP3    H139047   5.992   6.030   0.821 -0.0895  0.4626 -0.0056
 5852TIP3    H239048   5.899   5.941   0.740 -0.1544  0.1687  0.3884
 5853TIP3   OH239049   3.401   5.289  11.433  0.2122 -0.3285 -0.4238
 5853TIP3    H139050   3.459   5.299  11.509  0.1677 -0.4817 -0.3683
 5853TIP3    H239051   3.360   5.204  11.446  2.8547 -1.9994 -2.4220
 5854TIP3   OH239052   5.109   0.883  13.765 -0.0452  0.1320  0.1573
 5854TIP3    H139053   5.197   0.902  13.731  0.2010 -1.3682 -0.0682
 5854TIP3    H239054   5.124   0.845  13.851 -0.3638 -1.9842 -0.6985
 5855TIP3   OH239055   5.161   3.622   3.775 -0.2743 -0.6459  0.4285
 5855TIP3    H139056   5.066   3.620   3.765 -0.2942 -0.9625  0.6549
 5855TIP3    H239057   5.182   3.713   3.794 -0.4840 -0.4874 -0.1049
 5856TIP3   OH239058   5.711   0.939  11.743  0.5134  0.0600 -0.7654
 5856TIP3    H139059   5.650   0.979  11.681 -1.3976 -0.3004  0.8244
 5856TIP3    H239060   5.740   0.859  11.699  2.2458  1.7863 -2.8135
 5857TIP3   OH239061   3.078   4.517  12.665  0.1469  0.0864  0.2374
 5857TIP3    H139062   3.069   4.554  12.753  0.9310 -1.7164  1.0972
 5857TIP3    H239063   2.989   4.493  12.640 -0.0943  0.7070  0.4827
 5858TIP3   OH239064   0.121   1.990   1.802  0.3232 -0.2223 -1.1231
 5858TIP3    H139065   0.107   2.002   1.896 -2.9974  1.1533 -1.7167
 5858TIP3    H239066   0.176   2.064   1.776 -0.0452  0.2695 -0.5224
 5859TIP3   OH239067   0.887   4.029   3.036 -0.2691 -0.3225  0.0350
 5859TIP3    H139068   0.926   4.116   3.038  2.2761 -1.4023 -0.2588
 5859TIP3    H239069   0.927   3.987   2.959 -0.8113 -2.0395  0.6652
 5860TIP3   OH239070   1.841   4.193   0.276  0.2137 -0.3312  0.0222
 5860TIP3    H139071   1.925   4.190   0.231 -0.2980 -2.5267 -0.8651
 5860TIP3    H239072   1.795   4.267   0.237 -0.1139 -2.0139 -2.9489
 5861TIP3   OH239073   5.880   3.614   3.179  0.3228  0.5135  0.1878
 5861TIP3    H139074   5.832   3.662   3.111 -1.9330 -0.5926  0.9451
 5861TIP3    H239075   5.918   3.682   3.234 -0.1174  1.4310 -0.6175
 5862TIP3   OH239076   3.419   2.357  11.912 -0.0883 -0.4119  0.2616
 5862TIP3    H139077   3.410   2.319  11.999 -3.1847 -0.2895  0.0194
 5862TIP3    H239078   3.428   2.281  11.854  0.7937 -0.5279  0.5460
 5863TIP3   OH239079   5.729   3.013   5.300  0.5223  0.4299 -0.1690
 5863TIP3    H139080   5.797   2.946   5.301  0.6443  0.5287 -1.0471
 5863TIP3    H239081   5.773   3.091   5.267 -0.2307  0.2340 -1.6927
 5864TIP3   OH239082   4.286   6.365   2.288  0.1722  0.1765  0.6007
 5864TIP3    H139083   4.290   6.353   2.193 -0.4115 -0.3747  0.6397
 5864TIP3    H239084   4.287   6.276   2.324  3.1880  0.4201  1.2567
 5865TIP3   OH239085   1.893   0.009   1.180  0.3730 -0.5819  0.1651
 5865TIP3    H139086   1.927  -0.036   1.102 -0.1859 -0.0091 -0.4130
 5865TIP3    H239087   1.843  -0.058   1.226 -0.8215 -0.4612 -0.9228
 5866TIP3   OH239088   2.177   1.124  14.581 -0.3578  0.1375  0.4317
 5866TIP3    H139089   2.193   1.063  14.510 -0.8583 -0.5007  0.8620
 5866TIP3    H239090   2.240   1.100  14.649  0.2361  0.8563  0.1392
 5867TIP3   OH239091   0.494   0.915  16.145  0.2188 -0.3129  0.6546
 5867TIP3    H139092   0.567   0.968  16.112  1.0715 -1.2473  1.0057
 5867TIP3    H239093   0.506   0.830  16.103 -1.2759 -0.1681 -0.0897
 5868TIP3   OH239094   4.426   6.735  11.439  0.5810 -0.1574  0.5980
 5868TIP3    H139095   4.405   6.770  11.526 -0.9793  1.3976 -0.3599
 5868TIP3    H239096   4.486   6.800  11.402 -2.2583  1.5536 -1.1641
 5869TIP3   OH239097   1.278   5.387   5.152 -0.7257  0.2407  0.3092
 5869TIP3    H139098   1.329   5.468   5.162  0.2372 -0.3714  0.3925
 5869TIP3    H239099   1.188   5.414   5.170 -0.6375  1.6182 -1.2012
 5870TIP3   OH239100   3.874   5.767   2.163 -0.2118 -0.3750 -0.4530
 5870TIP3    H139101   3.856   5.677   2.138 -0.0503 -1.2376  2.3844
 5870TIP3    H239102   3.963   5.764   2.200 -0.6007  0.7418  0.5908
 5871TIP3   OH239103   4.423   2.709   1.548  0.2163  0.0604  0.2904
 5871TIP3    H139104   4.404   2.638   1.608 -0.7813 -0.6896 -0.8897
 5871TIP3    H239105   4.444   2.666   1.465 -2.4120  1.1374 -1.0153
 5872TIP3   OH239106   1.977   1.343  16.652  0.5671 -0.6606 -0.8567
 5872TIP3    H139107   2.036   1.354  16.727  0.2910 -1.4391 -0.5230
 5872TIP3    H239108   1.986   1.425  16.602 -0.5508  0.5996  0.9524
 5873TIP3   OH239109   4.176   4.389  12.837  0.1299 -0.0869  0.3944
 5873TIP3    H139110   4.211   4.477  12.847 -0.0185 -0.0304  0.4270
 5873TIP3    H239111   4.138   4.389  12.749  0.2091 -0.1464  0.3620
 5874TIP3   OH239112   1.768   2.508  12.044 -0.1112 -0.0256  0.5119
 5874TIP3    H139113   1.782   2.462  11.961  0.8169  1.4247 -0.1495
 5874TIP3    H239114   1.758   2.438  12.108  0.1838 -1.1610 -0.6539
 5875TIP3   OH239115   6.440   6.455  16.844 -0.2237 -0.0714 -0.7518
 5875TIP3    H139116   6.374   6.521  16.823 -0.0732  0.5472  0.7005
 5875TIP3    H239117   6.407   6.411  16.922  0.1328 -1.1075 -1.1660
 5876TIP3   OH239118   6.716   0.899   0.398  0.2905  0.0182 -0.1732
 5876TIP3    H139119   6.629   0.930   0.374 -0.7388 -0.1962  3.0282
 5876TIP3    H239120   6.711   0.882   0.492  2.6903 -3.6566 -0.5926
 5877TIP3   OH239121   3.594   4.170   3.491  0.4490 -0.4818  0.5778
 5877TIP3    H139122   3.602   4.087   3.538 -1.1297  0.0414  1.8595
 5877TIP3    H239123   3.653   4.229   3.538 -0.0519 -0.3317  1.0278
 5878TIP3   OH239124   6.644   3.124   1.757 -0.5569 -0.4065  0.1657
 5878TIP3    H139125   6.692   3.070   1.695 -0.3995  0.3536 -0.3792
 5878TIP3    H239126   6.591   3.062   1.808  0.3277 -1.1567  0.1748
 5879TIP3   OH239127   0.617   5.386   6.408 -0.7041  0.0145 -0.2384
 5879TIP3    H139128   0.640   5.475   6.382 -0.9909 -0.0944 -0.8805
 5879TIP3    H239129   0.555   5.357   6.341 -0.7981 -0.5786  0.1043
 5880TIP3   OH239130   0.720   2.347   3.731 -0.0890  0.5984 -0.0701
 5880TIP3    H139131   0.752   2.384   3.813  1.6493 -0.7690 -0.1166
 5880TIP3    H239132   0.640   2.300   3.756  0.0736  0.7423  0.7219
 5881TIP3   OH239133   1.160   4.955   5.550 -0.4352 -0.0775 -0.2069
 5881TIP3    H139134   1.077   4.996   5.526 -0.3438  0.9531  1.1490
 5881TIP3    H239135   1.187   5.002   5.629  1.1550 -0.7916 -0.3190
 5882TIP3   OH239136   2.023   4.785   0.494 -0.5643 -0.0637 -0.3591
 5882TIP3    H139137   2.093   4.813   0.435  0.3702  0.2837  0.8944
 5882TIP3    H239138   2.049   4.818   0.580 -1.0961 -1.9436  0.5553
 5883TIP3   OH239139   5.247   1.894  14.334  0.1039 -0.1732 -0.2052
 5883TIP3    H139140   5.327   1.864  14.376 -1.5446 -3.3812  0.7432
 5883TIP3    H239141   5.176   1.858  14.387 -2.0109 -0.8599 -3.3714
 5884TIP3   OH239142   0.069   2.659   3.922  0.2842 -0.1553  0.1199
 5884TIP3    H139143   0.047   2.751   3.937  0.6480 -0.1386  0.5606
 5884TIP3    H239144   0.091   2.625   4.008 -0.2247 -0.7628  0.0151
 5885TIP3   OH239145   5.237   2.443  15.606 -0.1230  0.0951 -0.1396
 5885TIP3    H139146   5.149   2.479  15.600 -0.4723 -0.7830 -0.4141
 5885TIP3    H239147   5.282   2.499  15.670 -0.4802  1.3090 -0.9420
 5886TIP3   OH239148   6.659   3.483   5.841  0.6011  0.6581  0.3323
 5886TIP3    H139149   6.645   3.447   5.928  0.9079 -2.3771 -0.8346
 5886TIP3    H239150   6.754   3.479   5.828  0.4255 -0.3433 -0.7195
 5887TIP3   OH239151   0.053   4.223  17.043  0.1984  0.1411  0.4155
 5887TIP3    H139152  -0.028   4.273  17.058  1.3264  2.0650  0.3038
 5887TIP3    H239153   0.103   4.233  17.125  1.5692  1.4138 -0.5498
 5888TIP3   OH239154   3.048   6.758  11.406 -0.2910 -0.4504  0.0483
 5888TIP3    H139155   3.050   6.692  11.475  0.6785 -0.0615  0.3943
 5888TIP3    H239156   3.062   6.708  11.325  0.2750 -0.6995  0.2954
 5889TIP3   OH239157   2.750   2.527   6.459 -0.4401  0.5833 -0.4225
 5889TIP3    H139158   2.680   2.485   6.509  0.2814 -1.3175 -0.9645
 5889TIP3    H239159   2.801   2.454   6.423  0.4321  1.9276 -1.9866
 5890TIP3   OH239160   2.550   3.247   3.717  0.3026  0.0963 -0.0208
 5890TIP3    H139161   2.526   3.340   3.719  1.2825  0.3754 -0.6532
 5890TIP3    H239162   2.625   3.243   3.657 -0.8964 -1.3796 -1.4592
 5891TIP3   OH239163   0.206   2.569   5.356  0.1590 -0.0514  0.0137
 5891TIP3    H139164   0.253   2.538   5.433  0.0690 -0.1515  0.0272
 5891TIP3    H239165   0.116   2.583   5.386 -0.0009 -0.5948 -0.2001
 5892TIP3   OH239166   4.350   1.321   3.508  0.3435 -0.5620 -0.1058
 5892TIP3    H139167   4.382   1.400   3.465 -0.8107 -0.2990 -0.5011
 5892TIP3    H239168   4.355   1.253   3.441 -1.4487 -0.1537 -0.6971
 5893TIP3   OH239169   2.697   1.292   4.862 -0.5859 -0.6869 -0.2868
 5893TIP3    H139170   2.679   1.281   4.769  0.5534  1.0796 -0.7544
 5893TIP3    H239171   2.678   1.385   4.879  1.9036 -0.2782  0.5573
 5894TIP3   OH239172   2.933   3.164   4.455  0.0502 -0.6176 -0.0092
 5894TIP3    H139173   2.904   3.204   4.373  0.2319 -1.3974 -0.4514
 5894TIP3    H239174   2.959   3.075   4.431  0.4818 -0.7207  0.8220
 5895TIP3   OH239175   6.659   0.478   2.972 -0.4182  0.7968 -0.5871
 5895TIP3    H139176   6.747   0.482   3.010 -0.2400  2.3524 -1.1480
 5895TIP3    H239177   6.603   0.452   3.045  0.3175  1.0326  0.0739
 5896TIP3   OH239178   5.099   5.131  16.314 -0.6985 -0.2132 -0.6795
 5896TIP3    H139179   5.006   5.107  16.305 -0.4730 -0.9168 -1.2401
 5896TIP3    H239180   5.122   5.169  16.229 -0.7006  0.7727 -0.2379
 5897TIP3   OH239181   5.394   3.682   4.718  0.0773 -0.1543  0.0316
 5897TIP3    H139182   5.307   3.666   4.755  0.4715  0.2556  1.1690
 5897TIP3    H239183   5.407   3.776   4.728  0.7350 -0.2479  0.0608
 5898TIP3   OH239184   1.199   4.848   6.806 -0.1065  0.2447  0.3166
 5898TIP3    H139185   1.125   4.817   6.857  0.2295 -0.2632  0.5001
 5898TIP3    H239186   1.189   4.805   6.721  0.1811 -0.1170  0.4647
 5899TIP3   OH239187   1.539   5.887  16.022  0.3663 -0.9436  0.0213
 5899TIP3    H139188   1.521   5.952  16.091 -0.0566  0.3578 -1.2869
 5899TIP3    H239189   1.559   5.940  15.945 -1.6137 -2.3592 -1.5015
 5900TIP3   OH239190   2.013   3.505   2.258 -0.0617 -0.4610  0.0744
 5900TIP3    H139191   1.969   3.578   2.302  0.3261  0.0850 -0.4194
 5900TIP3    H239192   2.020   3.533   2.166 -0.6691 -1.4907 -0.2953
 5901TIP3   OH239193   2.670   6.700   0.222  0.3476  0.1013  0.1959
 5901TIP3    H139194   2.647   6.608   0.210  2.5636 -0.5303  0.5192
 5901TIP3    H239195   2.586   6.745   0.230 -0.7951 -1.7588 -0.8853
 5902TIP3   OH239196   5.315   1.063  16.527 -0.0293  1.0663 -0.0906
 5902TIP3    H139197   5.270   1.135  16.482 -2.6548  0.0625  0.8412
 5902TIP3    H239198   5.254   0.989  16.521  1.9221 -0.6359  0.3994
 5903TIP3   OH239199   4.574   2.365  12.971 -0.8958 -0.2157  0.0926
 5903TIP3    H139200   4.669   2.372  12.981 -0.9011  1.2408 -0.6452
 5903TIP3    H239201   4.555   2.413  12.890 -2.2850 -0.2515  0.3826
 5904TIP3   OH239202   5.313   3.995  11.766  0.1332  0.5833  1.1779
 5904TIP3    H139203   5.312   4.077  11.816 -0.0821 -0.2284  2.5385
 5904TIP3    H239204   5.394   3.998  11.716  0.0924  1.6639  1.1780
 5905TIP3   OH239205   3.702   4.452  12.149  0.0499  0.2196  0.0281
 5905TIP3    H139206   3.783   4.403  12.140 -0.8149 -1.0110 -1.3115
 5905TIP3    H239207   3.677   4.473  12.059 -2.6910 -2.0848  0.1694
 5906TIP3   OH239208   4.547   4.658  13.030 -0.2719  0.1419  0.2549
 5906TIP3    H139209   4.521   4.747  13.009 -0.4878 -0.1079 -0.5590
 5906TIP3    H239210   4.592   4.627  12.951  1.0286  0.0021  1.0278
 5907TIP3   OH239211   4.509   6.290   1.586  0.2998  0.4944 -0.5958
 5907TIP3    H139212   4.580   6.265   1.527 -0.9456 -0.9811 -1.5319
 5907TIP3    H239213   4.432   6.294   1.530 -0.7501 -0.0728  0.7737
 5908TIP3   OH239214   0.047   3.209  13.224 -0.6781  0.2817  0.0894
 5908TIP3    H139215   0.132   3.253  13.225 -0.6338  0.2724 -1.7174
 5908TIP3    H239216   0.034   3.181  13.315  1.7567 -0.6723  0.2052
 5909TIP3   OH239217   3.127   2.270   2.496 -0.0003 -0.1873  0.5521
 5909TIP3    H139218   3.202   2.273   2.555 -0.1038  0.5732  0.6538
 5909TIP3    H239219   3.065   2.333   2.534  0.7585  1.8526 -1.5012
 5910TIP3   OH239220   3.600   1.062   3.324  0.2326 -0.2143  0.8719
 5910TIP3    H139221   3.582   1.020   3.240 -0.0563  1.5592  0.0483
 5910TIP3    H239222   3.672   1.122   3.306  0.9624 -0.6687  2.1673
 5911TIP3   OH239223   4.873   5.675  11.071  0.4715  0.1576 -0.0255
 5911TIP3    H139224   4.809   5.709  11.008  1.5084 -0.1442 -1.2520
 5911TIP3    H239225   4.943   5.639  11.017  0.8607 -1.0951  1.2982
 5912TIP3   OH239226   3.385   6.705   0.501  0.0763 -0.2853  0.2874
 5912TIP3    H139227   3.306   6.714   0.554  0.2105 -2.2348  0.8449
 5912TIP3    H239228   3.456   6.700   0.564  0.5897  0.7450 -0.1953
 5913TIP3   OH239229   4.644   0.838   4.972 -0.1710 -0.0412  0.6224
 5913TIP3    H139230   4.595   0.824   5.053 -1.2258  1.2054  0.2212
 5913TIP3    H239231   4.613   0.770   4.912  0.0860 -0.5123  1.0175
 5914TIP3   OH239232   4.138   6.765   2.693 -0.3232 -0.0447  0.0428
 5914TIP3    H139233   4.108   6.774   2.602 -1.6640  1.0645  0.5598
 5914TIP3    H239234   4.232   6.780   2.689 -0.3723 -0.0210 -1.1718
 5915TIP3   OH239235   1.540   1.593  11.303 -0.2849 -0.1070 -0.6193
 5915TIP3    H139236   1.563   1.672  11.255 -1.6406 -0.0843 -1.2648
 5915TIP3    H239237   1.615   1.576  11.360 -0.1923  1.9230 -0.1055
 5916TIP3   OH239238   6.783   5.807   3.310 -0.0444 -0.2049  0.7157
 5916TIP3    H139239   6.769   5.740   3.377  0.7134 -1.5173 -0.4329
 5916TIP3    H239240   6.878   5.814   3.303 -0.1210  0.8460  0.6635
 5917TIP3   OH239241   4.315   1.772  13.668  0.2267 -0.1783 -0.3858
 5917TIP3    H139242   4.268   1.733  13.594  1.4053 -1.4417 -0.4910
 5917TIP3    H239243   4.289   1.864  13.667 -1.1702 -0.5657 -1.2670
 5918TIP3   OH239244   0.548   6.657   2.854 -0.0366  0.6075 -0.2741
 5918TIP3    H139245   0.538   6.572   2.897 -0.9634  1.2276  0.7532
 5918TIP3    H239246   0.522   6.721   2.920  2.6549  1.8316 -0.3075
 5919TIP3   OH239247   3.872   6.300   2.830  0.7155 -0.0653 -0.7625
 5919TIP3    H139248   3.937   6.298   2.760  1.6903 -0.4754  0.1448
 5919TIP3    H239249   3.877   6.214   2.870  3.0913  1.4690  2.4438
 5920TIP3   OH239250   1.446   1.899  16.820 -0.8364 -0.1332  0.2150
 5920TIP3    H139251   1.402   1.878  16.737  0.8563  1.3403 -1.1113
 5920TIP3    H239252   1.516   1.833  16.827 -1.2199 -0.4922  0.6736
 5921TIP3   OH239253   6.171   0.798   0.974 -0.2485  0.3697  0.1496
 5921TIP3    H139254   6.234   0.832   0.910 -1.1574  2.6817  0.4561
 5921TIP3    H239255   6.182   0.853   1.051 -1.4402 -0.3059  0.8176
 5922TIP3   OH239256   6.636   1.926  16.786 -0.6485  0.2541  0.1255
 5922TIP3    H139257   6.607   1.954  16.873  0.3148  0.7737  0.2791
 5922TIP3    H239258   6.597   1.991  16.727 -0.4707  0.4838  0.2588
 5923TIP3   OH239259   0.916   6.779  16.494 -0.1460  0.3621  0.0206
 5923TIP3    H139260   0.885   6.865  16.467 -1.3296 -0.0730 -0.0519
 5923TIP3    H239261   0.858   6.754  16.566  0.2213 -0.3345  0.0825
 5924TIP3   OH239262   6.524   0.253  13.443  0.1887 -0.2148  0.4071
 5924TIP3    H139263   6.481   0.221  13.522  0.1619 -0.2126  0.3938
 5924TIP3    H239264   6.612   0.279  13.471 -0.3596  1.3025  0.7597
 5925TIP3   OH239265   1.869   6.051  12.996  0.9393 -0.0190  0.0229
 5925TIP3    H139266   1.889   6.125  12.939  0.1850  0.4054  0.3017
 5925TIP3    H239267   1.907   5.975  12.951 -2.7452 -0.2531 -2.9475
 5926TIP3   OH239268   5.796   4.209   0.371  0.4415  0.3060  0.6883
 5926TIP3    H139269   5.846   4.290   0.367  0.1461  0.5421  1.6096
 5926TIP3    H239270   5.862   4.140   0.364  0.8260  0.6233  1.1110
 5927TIP3   OH239271   1.118   5.364   1.767  0.2472 -0.1478 -0.4975
 5927TIP3    H139272   1.144   5.454   1.784 -1.5657  0.2547  0.3374
 5927TIP3    H239273   1.169   5.312   1.828 -1.0481  0.6431  1.3031
 5928TIP3   OH239274   3.059   2.341   3.907  0.5732  0.5641 -0.0882
 5928TIP3    H139275   3.130   2.338   3.843  1.7229  0.9428  1.1514
 5928TIP3    H239276   3.074   2.265   3.964  0.7570  1.3702  0.9618
 5929TIP3   OH239277   2.297   4.400   5.918 -0.3686  0.0221 -0.2462
 5929TIP3    H139278   2.267   4.402   5.828 -2.1869  0.2951  0.3489
 5929TIP3    H239279   2.362   4.329   5.920 -0.0129  0.2853 -1.8409
 5930TIP3   OH239280   0.264   1.041  14.477 -0.1433 -0.3839 -0.0620
 5930TIP3    H139281   0.294   1.071  14.391  1.2953 -0.2147  0.4907
 5930TIP3    H239282   0.182   1.088  14.492  1.6380  2.6946  0.4293
 5931TIP3   OH239283   1.355   5.236   2.807 -0.1533  0.2204  0.0169
 5931TIP3    H139284   1.310   5.251   2.724  0.3337  0.2711 -0.2454
 5931TIP3    H239285   1.347   5.141   2.822  1.3832 -0.1099 -1.0631
 5932TIP3   OH239286   6.632   0.184   4.116  0.0119  0.7739  0.5119
 5932TIP3    H139287   6.708   0.192   4.173  0.3270  0.1444  0.1926
 5932TIP3    H239288   6.558   0.210   4.170  0.2406 -0.3465  1.3779
 5933TIP3   OH239289   3.707   5.030   1.384  0.2738  0.4750 -0.1718
 5933TIP3    H139290   3.686   5.014   1.292 -0.5854  0.8949 -0.0569
 5933TIP3    H239291   3.797   5.064   1.383  0.8436 -0.9984 -0.7121
 5934TIP3   OH239292   4.434   6.056  13.077  0.4683 -0.1894 -0.0493
 5934TIP3    H139293   4.493   5.983  13.061 -0.3564 -0.5929 -1.2548
 5934TIP3    H239294   4.481   6.112  13.139  0.9319 -1.9378  1.2064
 5935TIP3   OH239295   1.904   0.216   0.434  0.5466 -0.0109  0.0970
 5935TIP3    H139296   1.966   0.159   0.387  0.8820 -0.5298  1.1679
 5935TIP3    H239297   1.954   0.251   0.508  0.2821  1.5244 -0.4223
 5936TIP3   OH239298   4.842   6.644   0.809 -0.1465  0.3080  0.2355
 5936TIP3    H139299   4.838   6.568   0.867  0.3637  0.0333 -0.0848
 5936TIP3    H239300   4.750   6.661   0.786 -0.3219  0.2174  0.8528
 5937TIP3   OH239301   3.465   5.557   0.817 -0.1570 -0.3419 -0.3222
 5937TIP3    H139302   3.549   5.537   0.858 -0.4237 -1.0363 -0.1128
 5937TIP3    H239303   3.483   5.553   0.723  0.0681 -0.3586 -0.2790
 5938TIP3   OH239304   2.218   6.190  11.524  0.5453 -0.4334 -0.1798
 5938TIP3    H139305   2.288   6.137  11.564  0.7666 -0.2828 -0.3654
 5938TIP3    H239306   2.257   6.276  11.512  0.5652 -0.5445 -0.9622
 5939TIP3   OH239307   0.574   3.441   6.354  0.1506  0.1021  0.0165
 5939TIP3    H139308   0.503   3.460   6.416  0.0511  1.4121 -0.4875
 5939TIP3    H239309   0.652   3.481   6.393  0.3736 -0.2990 -0.0169
 5940TIP3   OH239310   6.171   1.139  15.058 -0.4909  0.2909  0.0977
 5940TIP3    H139311   6.132   1.052  15.060 -1.2381  0.6063 -0.6095
 5940TIP3    H239312   6.182   1.163  15.150 -0.9897 -0.2410  0.2966
 5941TIP3   OH239313   1.298   0.756   2.253  0.5777  0.3034  0.5635
 5941TIP3    H139314   1.371   0.814   2.275  1.5803 -1.3855  1.7786
 5941TIP3    H239315   1.258   0.735   2.337  0.2938 -0.8604  0.1411
 5942TIP3   OH239316   6.347   2.728  15.168 -0.5680 -0.1307 -0.0294
 5942TIP3    H139317   6.274   2.694  15.220 -1.1931  2.5319  0.8753
 5942TIP3    H239318   6.389   2.792  15.225  1.1111  0.0065 -1.4031
 5943TIP3   OH239319   3.613   5.184   3.061  0.4446 -0.0970  0.1065
 5943TIP3    H139320   3.578   5.261   3.016  0.4728 -1.0946 -1.6699
 5943TIP3    H239321   3.683   5.153   3.004  0.4226 -1.4472  0.8035
 5944TIP3   OH239322   2.185   0.718  14.729  0.1000  0.4974 -0.7347
 5944TIP3    H139323   2.108   0.771  14.708 -1.1617 -1.2605 -0.6570
 5944TIP3    H239324   2.169   0.688  14.818  1.7930  1.6458 -0.0210
 5945TIP3   OH239325   2.392   3.336  14.848  0.2148  0.0948  0.2011
 5945TIP3    H139326   2.306   3.375  14.830  0.0821  0.6780  2.0243
 5945TIP3    H239327   2.453   3.409  14.839  0.4121 -0.1103 -0.1301
 5946TIP3   OH239328   0.173   1.774  13.147  0.3157  0.6176 -0.1308
 5946TIP3    H139329   0.200   1.722  13.071  0.0589 -0.1690  0.3162
 5946TIP3    H239330   0.116   1.842  13.110 -1.3895 -0.9368 -0.4085
 5947TIP3   OH239331   4.710   4.149  12.396  0.2777  0.2092  0.5916
 5947TIP3    H139332   4.790   4.097  12.384  0.7294  0.2670  2.9399
 5947TIP3    H239333   4.681   4.127  12.485 -0.5289  2.6064  0.9648
 5948TIP3   OH239334   2.267   1.705   1.651  0.1604 -0.4620  0.2932
 5948TIP3    H139335   2.241   1.645   1.721  0.3478 -0.4938  0.3347
 5948TIP3    H239336   2.247   1.792   1.686 -0.4206 -0.5192  0.1026
 5949TIP3   OH239337   0.118   2.394  11.399 -0.0024 -0.1923 -0.2810
 5949TIP3    H139338   0.172   2.470  11.374  0.3396 -0.4722 -0.3988
 5949TIP3    H239339   0.043   2.432  11.445 -0.2291  0.2734 -1.0265
 5950TIP3   OH239340   4.661   3.803  15.520 -0.1438  0.4168 -0.0481
 5950TIP3    H139341   4.572   3.800  15.485 -0.2206  0.2535  0.1550
 5950TIP3    H239342   4.666   3.886  15.566 -0.6015 -0.1315  1.0030
 5951TIP3   OH239343   2.331   1.712  11.880  0.2958  0.1627 -0.8183
 5951TIP3    H139344   2.367   1.630  11.846  1.8167  0.2290  0.5455
 5951TIP3    H239345   2.246   1.721  11.837 -0.0647 -2.3092 -0.7215
 5952TIP3   OH239346   4.572   5.746   1.813  0.1119  0.4790  0.4633
 5952TIP3    H139347   4.562   5.747   1.718 -0.7646  1.3051  0.5591
 5952TIP3    H239348   4.508   5.809   1.845 -0.4748 -0.7143  1.6953
 5953TIP3   OH239349   0.285   5.146  13.041 -0.6978  0.2192 -0.3160
 5953TIP3    H139350   0.316   5.169  13.129 -2.3549  0.8403  0.1239
 5953TIP3    H239351   0.281   5.230  12.995 -1.7430  0.1655 -0.3437
 5954TIP3   OH239352   5.717   2.577   1.527  0.1324  0.2087 -0.0729
 5954TIP3    H139353   5.782   2.592   1.458 -0.1079 -0.7406 -0.5046
 5954TIP3    H239354   5.741   2.492   1.565 -0.5700  0.0813  0.0892
 5955TIP3   OH239355   1.601   2.389  16.428  0.4075  0.2436  0.3352
 5955TIP3    H139356   1.583   2.403  16.335 -0.4175  2.0009  0.7454
 5955TIP3    H239357   1.517   2.404  16.471  0.8421 -0.3429  1.4038
 5956TIP3   OH239358   3.651   2.049   3.646  0.0224  0.6511  0.3664
 5956TIP3    H139359   3.655   1.981   3.713  1.7686 -0.6454 -1.0253
 5956TIP3    H239360   3.700   2.123   3.684 -0.7956  0.6894  1.3620
 5957TIP3   OH239361   4.640   1.459   2.080  0.0488 -0.5834 -0.1867
 5957TIP3    H139362   4.558   1.475   2.034  0.0674 -2.2978 -0.8626
 5957TIP3    H239363   4.708   1.490   2.021 -0.0337 -0.8416 -0.4208
 5958TIP3   OH239364   3.352   3.484   5.086  0.2610 -0.3466 -0.2587
 5958TIP3    H139365   3.367   3.453   4.997  0.5009  0.6533 -0.5667
 5958TIP3    H239366   3.284   3.426   5.120 -1.2282  0.4673 -1.7466
 5959TIP3   OH239367   3.288   4.088   6.242 -0.0294  0.3173  0.2119
 5959TIP3    H139368   3.335   4.126   6.317 -3.6598  0.3432  2.6248
 5959TIP3    H239369   3.293   3.993   6.256  1.6973  0.1834 -1.1245
 5960TIP3   OH239370   3.865   4.457   1.039 -0.7217  0.3600 -0.2111
 5960TIP3    H139371   3.797   4.433   1.102  0.4244 -0.4708  0.7410
 5960TIP3    H239372   3.820   4.458   0.955 -1.8317 -0.5818  0.3489
 5961TIP3   OH239373   1.749   5.403  14.203  0.1705 -0.2278  0.0179
 5961TIP3    H139374   1.699   5.373  14.279  0.6410 -1.2503 -0.0703
 5961TIP3    H239375   1.689   5.459  14.156  0.0606  0.9129  1.4650
 5962TIP3   OH239376   3.812   5.828  13.276  0.4325 -0.0281  0.2144
 5962TIP3    H139377   3.751   5.755  13.269 -0.3046  0.6121 -0.0808
 5962TIP3    H239378   3.826   5.839  13.370 -0.5871  0.3951  0.3128
 5963TIP3   OH239379   3.923   0.801  11.825  0.5268  0.1760  0.0106
 5963TIP3    H139380   3.957   0.873  11.770  1.1913 -0.6046 -0.6145
 5963TIP3    H239381   3.993   0.785  11.889  1.1856 -1.1435 -1.0080
 5964TIP3   OH239382   5.767   3.841  11.133 -0.2755 -0.8018 -0.0346
 5964TIP3    H139383   5.847   3.884  11.103 -0.0139  0.1986  1.9770
 5964TIP3    H239384   5.792   3.750  11.147  0.0337 -0.8936 -1.1046
 5965TIP3   OH239385   3.781   3.827   4.927  0.6090  0.1239 -0.3255
 5965TIP3    H139386   3.692   3.849   4.898  0.5529 -1.6278 -1.5685
 5965TIP3    H239387   3.805   3.898   4.986 -1.6516  0.6148  0.0751
 5966TIP3   OH239388   0.701   3.487   5.787  0.4425  0.5669  0.0526
 5966TIP3    H139389   0.665   3.425   5.722 -1.3384  0.7479  0.8404
 5966TIP3    H239390   0.696   3.440   5.870  0.6797  1.1516  0.3974
 5967TIP3   OH239391   0.026   1.277   2.046  0.2306  0.8517  0.0581
 5967TIP3    H139392  -0.012   1.201   2.090  0.7187 -0.5889 -1.9043
 5967TIP3    H239393  -0.050   1.329   2.020 -0.2396 -0.0571 -0.4360
 5968TIP3   OH239394   6.076   0.212   0.596  0.1130 -0.8405  0.3936
 5968TIP3    H139395   6.043   0.225   0.685  0.3277 -2.1693  0.6766
 5968TIP3    H239396   6.165   0.249   0.598  0.2051 -1.0758  0.8005
 5969TIP3   OH239397   2.735   6.453  15.584 -0.5128 -0.5640  0.1590
 5969TIP3    H139398   2.740   6.526  15.522 -1.3304  0.2065  0.9923
 5969TIP3    H239399   2.650   6.413  15.568  0.6714 -2.5469 -1.6023
 5970TIP3   OH239400   1.637   5.021  11.931 -0.4372 -0.0529 -0.0986
 5970TIP3    H139401   1.558   4.969  11.946 -0.4071  0.0008  0.2618
 5970TIP3    H239402   1.634   5.043  11.838 -1.3120  0.6857  0.0926
 5971TIP3   OH239403   0.520   1.483  13.707  0.5064 -0.0889  0.3326
 5971TIP3    H139404   0.570   1.401  13.709  3.3087  1.5785  1.5503
 5971TIP3    H239405   0.538   1.520  13.621  0.1390 -0.2228  0.1986
 5972TIP3   OH239406   3.345   5.819  16.519  0.5413  0.4229 -0.1427
 5972TIP3    H139407   3.360   5.787  16.430  2.0811  0.2322  0.1817
 5972TIP3    H239408   3.295   5.749  16.561  0.8244 -0.0021 -0.5115
 5973TIP3   OH239409   3.827   1.999  13.603 -0.0987 -0.1446  0.1921
 5973TIP3    H139410   3.778   2.068  13.558  2.0798 -0.5784 -3.0103
 5973TIP3    H239411   3.904   2.043  13.639 -0.0473 -0.4537  0.4727
 5974TIP3   OH239412   0.733   4.558   2.098  0.0085 -0.2067 -0.4783
 5974TIP3    H139413   0.773   4.644   2.114 -0.4614 -0.0987  0.1418
 5974TIP3    H239414   0.807   4.501   2.074  0.6036 -0.1497  1.2004
 5975TIP3   OH239415   2.323   0.979  10.363  0.0450  0.2458  0.1681
 5975TIP3    H139416   2.250   1.026  10.324 -0.4943 -1.4852 -0.9691
 5975TIP3    H239417   2.388   1.047  10.381 -0.2174  1.3004 -2.5702
 5976TIP3   OH239418   2.799   1.772   1.639  0.6429  0.3859  0.4407
 5976TIP3    H139419   2.875   1.807   1.594 -0.2483  1.7825 -0.0267
 5976TIP3    H239420   2.835   1.714   1.707  1.9968 -1.5379 -1.8683
 5977TIP3   OH239421   0.277   0.975   2.727  0.1286 -0.0589  0.4165
 5977TIP3    H139422   0.299   0.922   2.804  0.4183 -0.4215  0.0853
 5977TIP3    H239423   0.361   0.989   2.683 -0.0555  0.0485  0.1028
 5978TIP3   OH239424   3.617   3.036   2.539  0.4951 -0.9082  0.2042
 5978TIP3    H139425   3.582   2.956   2.577  1.3252 -2.1259 -1.5318
 5978TIP3    H239426   3.640   3.012   2.449  1.0796  1.1834 -0.2363
 5979TIP3   OH239427   1.789   1.404  11.960  0.3630  0.5682 -0.0429
 5979TIP3    H139428   1.710   1.369  12.000  0.0727  1.3963  0.1192
 5979TIP3    H239429   1.800   1.352  11.880  0.2124 -0.2086  0.4383
 5980TIP3   OH239430   5.833   0.975  13.985  0.1162  0.7813  0.1085
 5980TIP3    H139431   5.776   0.953  14.058 -1.3726  0.7263 -1.0396
 5980TIP3    H239432   5.906   1.023  14.024  0.6116 -1.3950  1.9468
 5981TIP3   OH239433   6.568   6.186  11.520 -0.3179  0.5372  0.3222
 5981TIP3    H139434   6.657   6.182  11.483  0.0947  1.3841  1.2070
 5981TIP3    H239435   6.580   6.223  11.607 -1.6519  1.4996  0.1054
 5982TIP3   OH239436   1.600   5.340  16.041 -0.0561 -0.0423 -0.1622
 5982TIP3    H139437   1.599   5.349  16.136 -0.2146  2.4997 -0.3663
 5982TIP3    H239438   1.508   5.346  16.015  0.1213  1.0731 -0.5906
 5983TIP3   OH239439   3.806   5.621  13.669  0.4980  0.5025  0.1238
 5983TIP3    H139440   3.846   5.534  13.678  1.0151  0.6061 -1.1361
 5983TIP3    H239441   3.731   5.619  13.729 -0.8887 -1.6426 -1.6196
 5984TIP3   OH239442   2.981   2.138  11.839  0.3366 -0.1473 -0.0528
 5984TIP3    H139443   3.047   2.087  11.886  0.1866 -0.3689 -0.0832
 5984TIP3    H239444   3.014   2.228  11.842  1.5762 -0.5067 -1.6376
 5985TIP3   OH239445   3.717   5.051  13.876  0.6289 -0.7788 -0.3400
 5985TIP3    H139446   3.688   5.022  13.790  1.3935  0.7998 -1.1604
 5985TIP3    H239447   3.649   5.113  13.905  2.5585  2.1475 -1.8228
 5986TIP3   OH239448   0.408   6.468   1.955 -0.7192  0.3627  0.0318
 5986TIP3    H139449   0.329   6.521   1.947 -1.6583 -0.9683  0.2774
 5986TIP3    H239450   0.385   6.384   1.914 -0.1561 -0.7791  1.9820
 5987TIP3   OH239451   5.912   1.065   4.949  0.3234 -0.0439  0.4860
 5987TIP3    H139452   5.842   1.039   5.009  0.0182 -0.2257  0.0571
 5987TIP3    H239453   5.991   1.063   5.002  0.3344 -2.0404  0.4460
 5988TIP3   OH239454   1.996   2.636   1.127 -0.0572  0.0835  0.3845
 5988TIP3    H139455   2.001   2.643   1.032 -1.8599 -2.2172  0.0539
 5988TIP3    H239456   1.903   2.645   1.147 -0.2782 -3.5523  1.4544
 5989TIP3   OH239457   5.827   3.685  11.917 -0.3901  0.5045 -0.5178
 5989TIP3    H139458   5.899   3.732  11.874 -0.3374 -0.2495 -1.2728
 5989TIP3    H239459   5.749   3.735  11.895 -0.4980 -0.4323 -2.3766
 5990TIP3   OH239460   6.120   4.317   3.658 -0.2108 -0.6716 -0.3961
 5990TIP3    H139461   6.029   4.347   3.649 -0.3449 -1.6318 -2.6094
 5990TIP3    H239462   6.168   4.394   3.690 -1.8432 -0.2398  1.0824
 5991TIP3   OH239463   6.328   1.777  13.846 -0.4477  0.1138  0.1392
 5991TIP3    H139464   6.260   1.793  13.781 -1.0091 -0.9139  0.4644
 5991TIP3    H239465   6.284   1.729  13.916  0.5252 -0.2481  0.5169
 5992TIP3   OH239466   0.287   2.143   6.184  0.0242  0.4439  0.1190
 5992TIP3    H139467   0.288   2.183   6.097  3.1003 -0.3101 -0.2430
 5992TIP3    H239468   0.253   2.212   6.242  1.1199  2.1095 -1.1692
 5993TIP3   OH239469   6.102   2.291   6.791 -0.3038 -0.1839 -0.0209
 5993TIP3    H139470   6.102   2.381   6.823 -0.7944 -0.1766 -0.0268
 5993TIP3    H239471   6.184   2.282   6.742 -0.1631  0.1992  0.1442
 5994TIP3   OH239472   2.862   2.981  12.732 -0.1350  0.0932  0.4464
 5994TIP3    H139473   2.791   3.043  12.747  0.4269  0.8817 -0.1219
 5994TIP3    H239474   2.902   2.968  12.818 -0.2473  0.5253  0.5638
 5995TIP3   OH239475   1.054   1.865   6.125 -0.0911 -0.0309 -0.0807
 5995TIP3    H139476   1.035   1.818   6.207  2.5317 -1.0113  0.0073
 5995TIP3    H239477   1.053   1.797   6.058 -0.0336  0.4124 -0.5300
 5996TIP3   OH239478   4.096   2.765   5.991  0.1191 -0.4803  0.0213
 5996TIP3    H139479   4.165   2.732   6.049 -0.3896  1.4560  1.8011
 5996TIP3    H239480   4.141   2.783   5.909  1.4115 -0.8169  0.6384
 5997TIP3   OH239481   3.059   4.219  14.726  0.2177 -0.1810  0.6182
 5997TIP3    H139482   3.121   4.214  14.654 -0.2208  1.0022  0.1471
 5997TIP3    H239483   3.092   4.290  14.782 -0.0079 -0.4018  1.0352
 5998TIP3   OH239484   5.261   5.291  12.361 -0.3971  0.5324 -0.4898
 5998TIP3    H139485   5.210   5.342  12.298 -0.5818  1.0088  0.0413
 5998TIP3    H239486   5.196   5.242  12.411 -0.1739 -0.8772 -1.5500
 5999TIP3   OH239487   5.117   6.452  13.496  0.0171  0.1216 -0.0764
 5999TIP3    H139488   5.092   6.372  13.542 -1.0612 -0.0453 -0.9083
 5999TIP3    H239489   5.060   6.520  13.532 -0.6596  0.0396 -0.9647
 6000TIP3   OH239490   5.262   4.350   5.098 -0.0211  0.0344 -0.2240
 6000TIP3    H139491   5.209   4.420   5.137 -0.9587 -2.0099  2.3539
 6000TIP3    H239492   5.352   4.372   5.123 -0.1764  0.9458 -0.4389
 6001TIP3   OH239493   4.489   3.235  12.788 -0.0571  0.4138 -0.4441
 6001TIP3    H139494   4.567   3.257  12.738  1.2110  0.2988  1.4568
 6001TIP3    H239495   4.429   3.308  12.774  0.4536  0.5930 -1.7410
 6002TIP3   OH239496   0.513   3.206  13.147 -0.5210 -0.3936  0.7417
 6002TIP3    H139497   0.576   3.140  13.178 -1.9997 -2.1966 -0.0066
 6002TIP3    H239498   0.455   3.158  13.088 -1.4521  1.6675 -0.0711
 6003TIP3   OH239499   6.005   3.749  16.787 -0.1293  0.5041 -0.2190
 6003TIP3    H139500   5.924   3.775  16.830 -0.4720 -0.0773 -0.5021
 6003TIP3    H239501   5.992   3.771  16.694 -1.5647 -3.2098 -0.9861
 6004TIP3   OH239502   4.905   5.554  12.527  0.7398  0.2472  0.5687
 6004TIP3    H139503   4.871   5.528  12.442  0.5771 -0.3956  0.8318
 6004TIP3    H239504   4.843   5.518  12.590  0.6520  1.0474  0.9444
 6005TIP3   OH239505   0.936   1.513  15.214  0.2021  0.0827  0.5280
 6005TIP3    H139506   0.979   1.546  15.293 -0.4770  0.1371  0.8727
 6005TIP3    H239507   0.876   1.583  15.188  0.4517  0.0852 -0.0670
 6006TIP3   OH239508   3.278   5.882  13.181 -0.1751  0.5094  0.4781
 6006TIP3    H139509   3.205   5.834  13.143  0.5496 -1.1500  1.1311
 6006TIP3    H239510   3.354   5.826  13.165  0.5405  0.9964  2.0812
 6007TIP3   OH239511   2.082   3.138  14.011  0.2283  0.1812  0.3503
 6007TIP3    H139512   2.010   3.183  14.056  0.5173 -0.2442  1.2661
 6007TIP3    H239513   2.041   3.065  13.966 -0.0166  0.3819  0.2486
 6008TIP3   OH239514   6.263   5.752  14.591 -0.0547  0.2895  0.0016
 6008TIP3    H139515   6.253   5.841  14.560  2.8000  0.5797 -0.2465
 6008TIP3    H239516   6.305   5.761  14.677  0.9672 -0.8242 -0.3653
 6009TIP3   OH239517   5.325   0.918   1.975  0.2057  0.2828  0.4607
 6009TIP3    H139518   5.404   0.865   1.981 -0.0958 -0.4647 -1.7777
 6009TIP3    H239519   5.342   0.980   1.905 -0.8732  0.6742  0.5342
 6010TIP3   OH239520   5.803   0.361   0.118 -0.4589  0.3602 -0.0282
 6010TIP3    H139521   5.846   0.311   0.187 -0.0527  1.7563  0.7359
 6010TIP3    H239522   5.746   0.422   0.164 -1.0602  0.5165 -0.9633
 6011TIP3   OH239523   6.775   5.826  16.339  0.2638  0.4469  0.0319
 6011TIP3    H139524   6.822   5.901  16.375  1.6364 -0.6008  0.4786
 6011TIP3    H239525   6.809   5.751  16.387 -0.2086 -0.6071 -1.2409
 6012TIP3   OH239526   5.117   1.167   5.077  0.3852  0.0731 -0.0000
 6012TIP3    H139527   5.199   1.205   5.045  0.0009  1.1293  0.2404
 6012TIP3    H239528   5.080   1.235   5.134 -0.6912 -0.3538 -0.1750
 6013TIP3   OH239529   4.070   1.104   5.090  0.3567  0.6329 -0.2374
 6013TIP3    H139530   4.066   1.046   5.166 -0.4079 -1.4175 -1.8158
 6013TIP3    H239531   4.164   1.114   5.073  0.4786 -2.2682 -1.5173
 6014TIP3   OH239532   1.876   5.594  10.579  0.0806 -0.3857 -0.0996
 6014TIP3    H139533   1.816   5.658  10.618  0.8792  0.9187 -0.9891
 6014TIP3    H239534   1.870   5.611  10.485  2.9507  0.7823 -0.1321
 6015TIP3   OH239535   5.890   0.206  15.054  0.0430 -0.3269 -0.0936
 6015TIP3    H139536   5.925   0.279  15.105  1.3589 -0.7452 -0.3688
 6015TIP3    H239537   5.843   0.152  15.118  1.1001 -0.4879  0.5516
 6016TIP3   OH239538   6.434   5.697  11.929  0.3335  0.2136  0.7926
 6016TIP3    H139539   6.361   5.647  11.965 -0.0755 -0.0229 -0.3465
 6016TIP3    H239540   6.485   5.725  12.006 -1.5851  1.3630  1.6791
 6017TIP3   OH239541   6.647   3.287   2.244 -0.0770  1.0596  0.4244
 6017TIP3    H139542   6.655   3.322   2.155 -1.9640  1.2540  0.2975
 6017TIP3    H239543   6.726   3.317   2.289  1.8655 -0.6898 -1.7071
 6018TIP3   OH239544   1.415   6.687  14.210 -0.0368 -0.2073  0.9988
 6018TIP3    H139545   1.337   6.632  14.205 -0.4257  0.4949 -1.7384
 6018TIP3    H239546   1.384   6.775  14.189  1.0748  0.5434  2.4157
 6019TIP3   OH239547   3.263   0.579   1.509  0.8002 -0.4917 -0.4421
 6019TIP3    H139548   3.294   0.668   1.496 -1.0770 -0.0152 -1.9224
 6019TIP3    H239549   3.337   0.524   1.481  1.5334  0.5923 -0.6573
 6020TIP3   OH239550   2.986   5.297   6.170  0.2278  0.5251  0.6722
 6020TIP3    H139551   2.941   5.217   6.142  1.6960  0.2787 -1.0828
 6020TIP3    H239552   2.916   5.353   6.205 -0.9444 -1.1569  1.0925
 6021TIP3   OH239553   0.908   0.937  11.740  0.0328  0.2874  0.2078
 6021TIP3    H139554   0.906   1.033  11.741  2.4129  0.3767 -0.1552
 6021TIP3    H239555   0.836   0.912  11.681  0.0674  1.8810 -0.5269
 6022TIP3   OH239556   4.415   2.667   1.191 -0.1172 -0.2820 -0.4629
 6022TIP3    H139557   4.509   2.662   1.213 -0.5420 -0.0468  1.5459
 6022TIP3    H239558   4.400   2.760   1.174  0.1195 -0.3994 -1.3467
 6023TIP3   OH239559   3.089   0.341  16.745  0.2966 -0.2774  0.1867
 6023TIP3    H139560   3.162   0.287  16.717  0.1049 -0.3980 -0.0816
 6023TIP3    H239561   3.053   0.295  16.822 -1.0888 -1.5795 -1.2113
 6024TIP3   OH239562   0.345   3.693   2.309 -0.5935  0.1991 -0.5497
 6024TIP3    H139563   0.366   3.696   2.216 -1.5783  1.0715 -0.7532
 6024TIP3    H239564   0.312   3.604   2.324  1.2543 -0.5319 -0.6421
 6025TIP3   OH239565   3.498   1.700  14.645 -0.7090 -0.5115  0.5531
 6025TIP3    H139566   3.480   1.740  14.560  1.4600  0.2905  0.4167
 6025TIP3    H239567   3.478   1.608  14.633  0.9074 -0.6544 -1.2891
 6026TIP3   OH239568   5.901   3.404  13.383 -0.3419  0.1743  0.1185
 6026TIP3    H139569   5.889   3.360  13.299 -3.0202 -0.6877  0.8876
 6026TIP3    H239570   5.877   3.495  13.365  2.4628  0.7739 -0.8149
 6027TIP3   OH239571   6.176   5.096  13.447 -0.3789 -0.3463  0.1119
 6027TIP3    H139572   6.162   5.004  13.468  0.3757  0.0707  2.6916
 6027TIP3    H239573   6.161   5.142  13.530  0.4156  1.7267 -0.8444
 6028TIP3   OH239574   5.196   4.457  11.710  0.1040 -0.5621  0.1812
 6028TIP3    H139575   5.266   4.396  11.733  0.9822 -0.2534 -1.5748
 6028TIP3    H239576   5.146   4.412  11.641 -0.5316 -0.1776  0.3858
 6029TIP3   OH239577   1.739   3.630   1.845  0.1320 -0.1643  0.4812
 6029TIP3    H139578   1.758   3.678   1.764  2.5383  0.1585  1.2132
 6029TIP3    H239579   1.715   3.542   1.815 -1.5539  0.6681 -0.7064
 6030TIP3   OH239580   3.856   4.793  13.339 -0.0230 -0.3919 -0.3574
 6030TIP3    H139581   3.891   4.704  13.328  0.1974 -0.3479 -0.0233
 6030TIP3    H239582   3.761   4.782  13.334  0.0321 -0.5089 -1.2805
 6031TIP3   OH239583   1.676   4.884   1.348  0.1355 -0.1021 -0.2907
 6031TIP3    H139584   1.746   4.920   1.294  1.5019 -0.1728  1.3979
 6031TIP3    H239585   1.596   4.926   1.315  1.3918  2.6983  0.1225
 6032TIP3   OH239586   0.128   5.113   5.736 -0.0355  0.1494 -0.2530
 6032TIP3    H139587   0.140   5.135   5.644  1.4020  0.8752  0.0913
 6032TIP3    H239588   0.199   5.159   5.781 -0.9663  0.1412  1.2652
 6033TIP3   OH239589   2.791   0.182  13.964 -0.3764  0.4633 -0.4274
 6033TIP3    H139590   2.755   0.262  14.003  0.1237  1.0207 -1.0847
 6033TIP3    H239591   2.806   0.205  13.873 -2.2201 -1.0518 -1.1494
 6034TIP3   OH239592   3.297   4.827  15.885  0.8275 -0.2210  0.2257
 6034TIP3    H139593   3.263   4.915  15.896 -1.4542 -0.9679 -0.5438
 6034TIP3    H239594   3.354   4.813  15.960  0.9421  1.7749  0.5205
 6035TIP3   OH239595   1.874   1.452   1.690  0.0933  0.6076 -0.2926
 6035TIP3    H139596   1.787   1.413   1.694  0.5117 -0.4051 -0.8543
 6035TIP3    H239597   1.929   1.392   1.742  0.4796  1.1724 -0.0461
 6036TIP3   OH239598   1.728   5.676   4.555 -0.5167 -0.4773 -0.0338
 6036TIP3    H139599   1.802   5.705   4.501  0.7178 -3.3484  0.0264
 6036TIP3    H239600   1.672   5.627   4.495 -0.7207 -1.0476  0.6125
 6037TIP3   OH239601   4.875   2.069   5.362  0.0170 -0.0363  0.6395
 6037TIP3    H139602   4.923   2.118   5.428 -0.5218  1.6119 -0.1792
 6037TIP3    H239603   4.861   1.983   5.402  1.0618  0.4218  2.0339
 6038TIP3   OH239604   6.343   3.087  14.801 -0.3064  0.7669 -0.2527
 6038TIP3    H139605   6.412   3.023  14.814 -3.1268 -2.1525  0.9881
 6038TIP3    H239606   6.324   3.120  14.889 -1.5792  0.3405 -0.3568
 6039TIP3   OH239607   4.165   2.476  11.528 -0.0734 -0.7568 -0.5066
 6039TIP3    H139608   4.229   2.418  11.570 -1.1758 -2.4806 -1.1411
 6039TIP3    H239609   4.218   2.548  11.493  1.2029 -0.8467  1.1841
 6040TIP3   OH239610   0.320   6.553   1.600 -0.6715  0.4722  0.6111
 6040TIP3    H139611   0.332   6.500   1.522 -0.3458 -0.8204  1.5195
 6040TIP3    H239612   0.402   6.601   1.610 -0.0170 -0.7332  1.1587
 6041TIP3   OH239613   3.536   4.889   4.900  0.1094 -0.2586 -0.0682
 6041TIP3    H139614   3.614   4.852   4.939 -1.5722 -3.8046  0.0793
 6041TIP3    H239615   3.508   4.825   4.834 -0.5324  2.7354 -2.8981
 6042TIP3   OH239616   4.672   1.640  14.784  0.6832 -0.0505  0.2819
 6042TIP3    H139617   4.715   1.710  14.734  0.0985  0.6764  0.7863
 6042TIP3    H239618   4.578   1.661  14.778  0.5809 -0.1698  1.3657
 6043TIP3   OH239619   5.184   0.211   1.478  0.2239  0.0428  0.7379
 6043TIP3    H139620   5.186   0.161   1.397  0.8661  0.4415  0.5058
 6043TIP3    H239621   5.094   0.244   1.484  0.2021  0.0830  0.1513
 6044TIP3   OH239622   3.396   3.614  15.954 -0.0798  0.6141  0.2092
 6044TIP3    H139623   3.357   3.673  16.018 -1.4214  1.9170 -1.7410
 6044TIP3    H239624   3.360   3.643  15.870  0.4497 -2.0131 -0.9589
 6045TIP3   OH239625   1.238   2.304  11.535 -0.3962  0.0039  0.2228
 6045TIP3    H139626   1.212   2.283  11.625  0.7695  1.6317  0.9721
 6045TIP3    H239627   1.329   2.274  11.530  0.0389  1.3462  0.0904
 6046TIP3   OH239628   6.581   3.782  14.278  0.3174  0.4895 -0.2006
 6046TIP3    H139629   6.534   3.823  14.351  1.2059  0.6045  0.3163
 6046TIP3    H239630   6.513   3.758  14.216 -0.5815 -0.7777  1.2518
 6047TIP3   OH239631   5.632   3.723  12.333  0.0613  0.2673 -0.1072
 6047TIP3    H139632   5.657   3.660  12.401  2.2086  0.8982 -0.2694
 6047TIP3    H239633   5.604   3.801  12.381  1.1038  0.5375  0.0800
 6048TIP3   OH239634   1.685   0.519  11.162  0.3597  0.3709 -0.4499
 6048TIP3    H139635   1.641   0.506  11.079  1.2103  0.8851 -0.9880
 6048TIP3    H239636   1.777   0.498  11.144  0.3862 -0.4835  0.5972
 6049TIP3   OH239637   2.924   2.812  14.385  0.1001  0.2324 -0.1596
 6049TIP3    H139638   2.866   2.884  14.360 -0.2284 -0.0543 -0.2332
 6049TIP3    H239639   2.914   2.806  14.480 -1.2402 -0.8616 -0.3436
 6050TIP3   OH239640   4.543   1.660  13.158  0.2407  0.3045 -0.3649
 6050TIP3    H139641   4.498   1.578  13.179 -1.1987  1.4208  0.9560
 6050TIP3    H239642   4.630   1.631  13.128 -1.0748 -1.8240 -2.3246
 6051TIP3   OH239643   5.481   0.466   0.173 -0.3977  0.2855  0.2580
 6051TIP3    H139644   5.459   0.373   0.161 -1.2758  0.5765 -0.5098
 6051TIP3    H239645   5.406   0.513   0.134 -0.1549  1.3092  1.0162
 6052TIP3   OH239646   0.667   3.457   3.935 -0.2313  0.1617  0.0383
 6052TIP3    H139647   0.670   3.539   3.884 -4.2917  0.3868  0.0077
 6052TIP3    H239648   0.674   3.388   3.869  0.3396  0.4599 -0.2233
 6053TIP3   OH239649   6.491   3.326  16.020 -0.6977  0.3492 -0.0454
 6053TIP3    H139650   6.496   3.231  16.023  0.3126  0.3880 -0.2493
 6053TIP3    H239651   6.499   3.353  16.111 -0.2165  0.2654 -0.0613
 6054TIP3   OH239652   6.336   1.167   2.484 -0.5162 -0.1414 -0.1556
 6054TIP3    H139653   6.274   1.147   2.413  0.5291 -0.6396 -0.9422
 6054TIP3    H239654   6.290   1.229   2.539 -1.6810 -0.4175 -0.8014
 6055TIP3   OH239655   1.514   1.360  11.932  0.5985 -0.0548 -0.5115
 6055TIP3    H139656   1.506   1.270  11.964  0.8492  0.1859  0.2268
 6055TIP3    H239657   1.508   1.351  11.836 -0.5485 -0.7192 -0.3802
 6056TIP3   OH239658   6.787   5.258  12.885  0.1673  0.8786  0.6365
 6056TIP3    H139659   6.877   5.290  12.892  0.7328 -0.4244 -0.5410
 6056TIP3    H239660   6.753   5.300  12.806  1.0973 -1.7849 -1.2442
 6057TIP3   OH239661   5.210   2.699  15.290 -0.3190 -0.5554  0.4258
 6057TIP3    H139662   5.154   2.773  15.269  1.8100  1.4825  1.7274
 6057TIP3    H239663   5.170   2.625  15.244 -3.2664  1.0878  0.2116
 6058TIP3   OH239664   6.232   1.940  14.318 -0.1584  0.5209  0.2662
 6058TIP3    H139665   6.209   1.848  14.305  0.3216  0.2151  1.5142
 6058TIP3    H239666   6.236   1.951  14.413 -0.0000  1.7783  0.1243
 6059TIP3   OH239667   6.589   0.217  14.085  0.2425 -0.2172 -0.3484
 6059TIP3    H139668   6.528   0.153  14.049 -0.5658  0.1872  0.2985
 6059TIP3    H239669   6.676   0.180  14.066 -0.0488  1.1723 -4.9498
 6060TIP3   OH239670   2.791   4.990  11.066 -0.1101 -0.3757 -0.4397
 6060TIP3    H139671   2.734   4.986  10.988  0.2670 -0.6205 -0.7050
 6060TIP3    H239672   2.805   5.083  11.081  0.5022 -0.3416 -1.1734
 6061TIP3   OH239673   6.392   1.674  12.008  0.3021  0.2837  0.1081
 6061TIP3    H139674   6.360   1.764  12.001  0.4481  0.5113  1.9797
 6061TIP3    H239675   6.480   1.683  12.046  0.3773 -0.6284  0.1623
 6062TIP3   OH239676   0.806   6.003  16.029  0.6540 -0.6001  0.6133
 6062TIP3    H139677   0.857   6.062  16.085  1.6628  0.8246 -1.7431
 6062TIP3    H239678   0.872   5.950  15.985 -0.1124 -1.3116  0.3264
 6063TIP3   OH239679   6.122   4.915   1.714  0.4803 -0.2035 -0.7124
 6063TIP3    H139680   6.093   4.865   1.791  1.0261  0.4984 -0.0395
 6063TIP3    H239681   6.097   4.861   1.639 -3.5544  0.8491 -0.2244
 6064TIP3   OH239682   0.721   4.912  14.154 -0.1237  0.2216 -0.3435
 6064TIP3    H139683   0.727   4.817  14.159  0.5614  0.2217 -1.0963
 6064TIP3    H239684   0.809   4.942  14.176 -0.3128  0.6831 -0.2115
 6065TIP3   OH239685   6.563   3.579   4.291 -0.2252 -0.4047 -0.6078
 6065TIP3    H139686   6.509   3.563   4.215 -1.6647  0.3188  0.2427
 6065TIP3    H239687   6.543   3.507   4.351  1.1230 -1.1394 -1.0138
 6066TIP3   OH239688   1.944   4.842   1.488 -0.4008  0.1815  0.4549
 6066TIP3    H139689   1.969   4.917   1.541 -0.0462  0.7718 -0.5310
 6066TIP3    H239690   1.848   4.841   1.492 -0.4474  1.2640 -0.3050
 6067TIP3   OH239691   1.724   0.655  12.824  0.0299  0.3688  0.3096
 6067TIP3    H139692   1.750   0.671  12.915  0.7953  1.6939 -0.1335
 6067TIP3    H239693   1.743   0.737  12.778  1.6353 -0.9430 -1.4804
 6068TIP3   OH239694   2.119   0.377  15.198  0.4976 -0.1639 -0.0688
 6068TIP3    H139695   2.191   0.428  15.162 -0.9641  1.2027 -1.1203
 6068TIP3    H239696   2.077   0.336  15.122 -1.0331  0.6635  0.3086
 6069TIP3   OH239697   3.562   1.976   0.170  0.1170  0.4443  0.2757
 6069TIP3    H139698   3.566   1.915   0.244  0.9068  1.8235  1.3917
 6069TIP3    H239699   3.470   1.972   0.141 -0.0784 -0.4865  0.9907
 6070TIP3   OH239700   4.237   1.925   2.551  0.4397  0.1919  0.9558
 6070TIP3    H139701   4.189   1.950   2.630 -1.3938  3.7063 -1.1339
 6070TIP3    H239702   4.328   1.919   2.580 -0.0534  2.4582  3.1568
 6071TIP3   OH239703   5.825   6.108   2.318  0.1236 -0.1620 -0.1825
 6071TIP3    H139704   5.816   6.165   2.242 -0.9184  0.0996  0.1342
 6071TIP3    H239705   5.865   6.028   2.283 -0.0310  0.0909 -0.9441
 6072TIP3   OH239706   4.794   5.410   2.883  0.1262  0.8254 -0.3282
 6072TIP3    H139707   4.798   5.314   2.889 -1.4618  0.6816 -1.2891
 6072TIP3    H239708   4.886   5.436   2.873  0.4829 -0.7159 -1.4698
 6073TIP3   OH239709   4.594   3.703   2.904 -0.2464 -0.0275 -0.5505
 6073TIP3    H139710   4.547   3.730   2.826  2.0358 -0.5652 -2.1649
 6073TIP3    H239711   4.616   3.612   2.889 -0.6951 -0.4494  1.2044
 6074TIP3   OH239712   0.239   3.017  11.280  0.0983  0.0179  0.2523
 6074TIP3    H139713   0.244   2.957  11.354 -1.5240  0.3449  0.6502
 6074TIP3    H239714   0.266   2.964  11.205 -0.0257 -0.8405  0.8035
 6075TIP3   OH239715   0.817   5.323   1.171  0.3713  0.4881 -0.5207
 6075TIP3    H139716   0.846   5.232   1.180  0.3809  0.5573  0.1226
 6075TIP3    H239717   0.741   5.330   1.228  1.7907  1.5298  1.2817
 6076TIP3   OH239718   2.500   5.415   5.713  0.1523 -1.1961 -0.0253
 6076TIP3    H139719   2.548   5.485   5.667 -0.2324 -0.4338  0.7134
 6076TIP3    H239720   2.530   5.422   5.803 -0.7790 -1.2176  0.2868
 6077TIP3   OH239721   0.826   1.220   5.948 -0.3804 -0.7137  0.3063
 6077TIP3    H139722   0.774   1.261   6.017 -0.5975  0.8820 -0.7746
 6077TIP3    H239723   0.913   1.211   5.986 -0.8964 -1.4005  1.3675
 6078TIP3   OH239724   6.643   6.521   1.015  0.4013 -0.0148 -0.7475
 6078TIP3    H139725   6.710   6.472   1.064 -0.9466 -0.5718  0.5702
 6078TIP3    H239726   6.569   6.460   1.009  0.1440  0.4537 -2.5445
 6079TIP3   OH239727   1.211   2.913   1.756 -0.0698 -0.2282 -0.2629
 6079TIP3    H139728   1.304   2.906   1.779 -0.5016 -0.7071  1.4485
 6079TIP3    H239729   1.195   2.840   1.697  0.8684  0.4891 -1.4465
 6080TIP3   OH239730   6.116   0.749   0.667 -0.0281 -0.0275  0.6441
 6080TIP3    H139731   6.128   0.818   0.732 -1.6720  0.1020  0.8248
 6080TIP3    H239732   6.039   0.700   0.698  0.3345 -1.1361 -0.1764
 6081TIP3   OH239733   1.524   1.003   1.957 -0.3255 -0.3571 -0.1930
 6081TIP3    H139734   1.583   0.934   1.986  0.1131 -0.4358 -1.2365
 6081TIP3    H239735   1.452   1.002   2.020 -0.6460 -2.1810 -0.5597
 6082TIP3   OH239736   1.641   0.781  17.181 -0.1932 -0.4949 -0.3115
 6082TIP3    H139737   1.571   0.782  17.246  0.5020  1.3582  0.4482
 6082TIP3    H239738   1.613   0.845  17.115 -0.5918 -1.8948 -1.5320
 6083TIP3   OH239739   5.556   2.053  16.738 -0.4246  0.4211 -0.0229
 6083TIP3    H139740   5.531   2.026  16.649  1.5789  0.3032 -0.5897
 6083TIP3    H239741   5.505   2.132  16.754  1.5546  2.3241 -2.6135
 6084TIP3   OH239742   5.188   3.417  17.255  0.2154 -0.4422  0.2953
 6084TIP3    H139743   5.196   3.349  17.322 -0.7369 -0.6981  0.1593
 6084TIP3    H239744   5.261   3.401  17.196 -0.9032 -2.3571 -0.6255
 6085TIP3   OH239745   4.669   5.072   5.907 -0.3300 -0.3138 -0.1003
 6085TIP3    H139746   4.758   5.045   5.932 -0.3829  1.2843  1.8706
 6085TIP3    H239747   4.676   5.166   5.891 -1.1542 -0.6226 -2.3734
 6086TIP3   OH239748   1.103   3.178  12.742 -0.0019  0.1900  0.6865
 6086TIP3    H139749   1.058   3.252  12.783  0.7369  0.8344  0.3444
 6086TIP3    H239750   1.037   3.108  12.739 -0.8006  0.9372  0.7270
 6087TIP3   OH239751   6.031   2.739   5.821  0.3704 -0.1455  0.9136
 6087TIP3    H139752   6.099   2.755   5.756  1.0254  0.5299  1.7519
 6087TIP3    H239753   5.992   2.824   5.837 -0.4766 -0.4851  0.6490
 6088TIP3   OH239754   0.594   2.289  11.654  0.4721  0.3032 -0.1030
 6088TIP3    H139755   0.586   2.199  11.685  1.4383 -0.4609 -1.9692
 6088TIP3    H239756   0.509   2.308  11.614  0.7383 -0.2875 -0.9637
 6089TIP3   OH239757   2.585   0.236   3.133  0.2727  0.8719 -0.1972
 6089TIP3    H139758   2.623   0.197   3.213 -1.1670  1.3165  0.7282
 6089TIP3    H239759   2.615   0.326   3.134  1.4758  0.4762 -0.9489
 6090TIP3   OH239760   4.100   2.875  15.432  0.0746 -0.1952  0.2055
 6090TIP3    H139761   4.005   2.865  15.421  0.0749  0.4626 -0.3831
 6090TIP3    H239762   4.114   2.969  15.440  0.5121 -0.3739  1.8527
 6091TIP3   OH239763   1.622   4.433   3.078  0.2530  0.4400 -0.2960
 6091TIP3    H139764   1.545   4.382   3.103 -0.2329  0.2657 -2.0597
 6091TIP3    H239765   1.692   4.400   3.134 -0.6723 -0.2987  0.4355
 6092TIP3   OH239766   2.903   6.146   0.938  0.1535  0.0900  0.0735
 6092TIP3    H139767   2.825   6.163   0.991  0.6518  2.0340  0.2220
 6092TIP3    H239768   2.971   6.201   0.977  0.9244  0.3645 -1.6115
 6093TIP3   OH239769   2.363   6.072   0.114  0.3759  0.1134  0.5582
 6093TIP3    H139770   2.299   6.019   0.161  0.4034 -0.3968  0.0230
 6093TIP3    H239771   2.354   6.046   0.022  1.0144  0.3803  0.4128
 6094TIP3   OH239772   6.685   0.522   4.597 -0.0747 -0.1407  0.0649
 6094TIP3    H139773   6.751   0.582   4.633 -0.1286 -0.2887  0.4119
 6094TIP3    H239774   6.684   0.542   4.503 -0.2171  0.5295  0.2010
 6095TIP3   OH239775   3.478   2.179  17.051 -0.6314 -0.0214 -0.5352
 6095TIP3    H139776   3.529   2.150  17.126  0.7225  0.1756 -1.3625
 6095TIP3    H239777   3.416   2.243  17.087 -0.7851 -0.7935  0.5864
 6096TIP3   OH239778   4.356   2.413   1.023  0.2033 -0.3771 -0.0212
 6096TIP3    H139779   4.284   2.368   1.066 -0.5830  1.6084  0.8116
 6096TIP3    H239780   4.375   2.488   1.080  1.4732  0.3374 -1.3504
 6097TIP3   OH239781   3.649   0.361  16.612  0.1351 -0.3709  0.0128
 6097TIP3    H139782   3.580   0.399  16.667  0.2447 -1.6144  1.0405
 6097TIP3    H239783   3.606   0.343  16.528 -0.7798 -1.0447  0.6068
 6098TIP3   OH239784   6.627   6.518  10.755  1.0413 -0.6670  0.9422
 6098TIP3    H139785   6.533   6.531  10.766  1.8379  4.0353  3.4998
 6098TIP3    H239786   6.652   6.461  10.827  0.5397  0.3811  1.9691
 6099TIP3   OH239787   4.254   2.825   0.634 -0.3869 -0.4156 -0.6404
 6099TIP3    H139788   4.228   2.739   0.665 -0.4435  0.1983  1.0720
 6099TIP3    H239789   4.349   2.828   0.648 -0.6776  0.5676  1.3401
 6100TIP3   OH239790   4.068   3.476   0.164 -0.5772  0.6521  0.5148
 6100TIP3    H139791   4.161   3.454   0.161 -0.7177  0.1209  0.0304
 6100TIP3    H239792   4.050   3.491   0.257 -0.4314 -1.0734  0.8439
 6101TIP3   OH239793   0.500   2.260   3.999  0.4435 -0.4255  0.5503
 6101TIP3    H139794   0.465   2.302   3.921 -1.3915  1.3825  2.2938
 6101TIP3    H239795   0.592   2.243   3.977  0.2517  1.0596 -1.5989
 6102TIP3   OH239796   4.163   3.852   1.105 -0.0892 -0.0359 -0.3215
 6102TIP3    H139797   4.071   3.864   1.085 -0.8795 -2.0256  1.8369
 6102TIP3    H239798   4.192   3.782   1.046  0.1955  0.9944 -1.4055
 6103TIP3   OH239799   6.274   6.747   1.003  0.0936  0.1849  0.2662
 6103TIP3    H139800   6.280   6.744   0.907 -0.4839  3.2360  0.0950
 6103TIP3    H239801   6.362   6.775   1.031  0.2006 -0.5041  0.6331
 6104TIP3   OH239802   4.350   6.123   2.388  0.3796  0.1497 -0.2938
 6104TIP3    H139803   4.352   6.121   2.484 -1.5545  1.3314 -0.1896
 6104TIP3    H239804   4.424   6.178   2.363 -0.0132  1.1138  0.6175
 6105TIP3   OH239805   5.536   1.976  13.418 -0.1469  0.1687 -0.9449
 6105TIP3    H139806   5.593   1.899  13.424 -3.0185 -2.0084 -0.4804
 6105TIP3    H239807   5.492   1.980  13.503 -0.6270  1.8690 -1.2556
 6106TIP3   OH239808   1.861   1.854  13.061 -0.5336  0.6313 -0.0362
 6106TIP3    H139809   1.869   1.852  12.965  0.8535 -0.5123  0.0829
 6106TIP3    H239810   1.807   1.779  13.082 -0.5011  0.6470  0.1025
 6107TIP3   OH239811   1.490   6.224   0.869 -1.0625 -0.2432 -0.1519
 6107TIP3    H139812   1.560   6.221   0.935 -0.3844 -0.1409 -0.8541
 6107TIP3    H239813   1.537   6.227   0.785 -1.9151 -0.4069 -0.6384
 6108TIP3   OH239814   0.125   6.243  15.519  0.2423  0.4236 -0.4823
 6108TIP3    H139815   0.148   6.315  15.579 -1.2841  0.8605 -0.3991
 6108TIP3    H239816   0.197   6.240  15.457  1.5273  0.4069  0.9783
 6109TIP3   OH239817   3.220   2.342  11.570  0.1652 -0.3313 -0.3121
 6109TIP3    H139818   3.275   2.278  11.523 -0.7663 -0.7780 -0.7990
 6109TIP3    H239819   3.138   2.344  11.521 -0.9815 -1.1097  1.5251
 6110TIP3   OH239820   4.745   4.681   0.816  0.0832 -0.0417 -0.0093
 6110TIP3    H139821   4.660   4.696   0.775  0.5169 -1.5280 -1.4631
 6110TIP3    H239822   4.749   4.586   0.830  0.1639  0.3445  3.0175
 6111TIP3   OH239823   4.770   2.885   4.833 -0.1015 -0.2842 -0.2266
 6111TIP3    H139824   4.832   2.893   4.906 -1.5254  0.8266  0.9023
 6111TIP3    H239825   4.769   2.972   4.794 -0.7543 -0.3723 -0.4023
 6112TIP3   OH239826   4.199   3.548  13.070 -0.1966  0.0312 -0.4602
 6112TIP3    H139827   4.220   3.454  13.064  0.7841  0.3114 -1.5664
 6112TIP3    H239828   4.176   3.572  12.980  0.8515  1.1621 -0.4197
 6113TIP3   OH239829   6.077   2.580  16.816 -0.4885 -0.1725  0.1335
 6113TIP3    H139830   6.029   2.662  16.822  1.2674  0.9291 -0.6539
 6113TIP3    H239831   6.100   2.572  16.723 -1.4298 -2.0197  0.0265
 6114TIP3   OH239832   2.829   5.192  16.649  0.4358  0.1734  0.3984
 6114TIP3    H139833   2.892   5.130  16.684  1.3999  1.3057  0.7177
 6114TIP3    H239834   2.881   5.251  16.594 -0.6852 -0.1470 -1.0341
 6115TIP3   OH239835   6.817   3.279   0.109 -0.2438 -0.6246 -0.3447
 6115TIP3    H139836   6.850   3.282   0.019  1.3217 -0.2512  0.2278
 6115TIP3    H239837   6.877   3.220   0.155 -0.0049  0.5205  0.8520
 6116TIP3   OH239838   5.972   1.179  11.587  0.0568  0.8081 -0.4542
 6116TIP3    H139839   5.906   1.246  11.602 -0.0201  0.6553 -0.0985
 6116TIP3    H239840   5.999   1.151  11.674 -1.5303 -1.1994 -0.5668
 6117TIP3   OH239841   5.275   1.561   5.759  0.0983  0.1629 -0.1552
 6117TIP3    H139842   5.362   1.522   5.765  0.4895  0.7730 -1.6247
 6117TIP3    H239843   5.288   1.653   5.782 -0.2313  0.1695  0.0162
 6118TIP3   OH239844   4.272   5.512   2.491  0.0365 -0.0173 -0.6097
 6118TIP3    H139845   4.291   5.433   2.442  2.4886  0.1299  0.0649
 6118TIP3    H239846   4.177   5.508   2.507  0.0412 -2.5114 -1.0583
 6119TIP3   OH239847   6.241   5.176  12.335  0.0273 -0.5956  0.4387
 6119TIP3    H139848   6.308   5.213  12.277 -0.4436 -1.7425 -0.8456
 6119TIP3    H239849   6.213   5.251  12.389  2.1231 -0.0412  0.8101
 6120TIP3   OH239850   5.547   5.002   1.077  0.6957 -0.4917 -0.4377
 6120TIP3    H139851   5.567   5.012   1.170  0.1743  0.4595 -0.4225
 6120TIP3    H239852   5.511   4.914   1.069 -0.3312 -0.1641  0.4532
 6121TIP3   OH239853   0.574   4.530   0.480 -0.1709 -0.1244 -0.8690
 6121TIP3    H139854   0.630   4.478   0.538 -2.3901  0.0324  1.5105
 6121TIP3    H239855   0.627   4.606   0.457  0.7573 -0.1680  1.0144
 6122TIP3   OH239856   4.497   6.793  17.059 -0.0479  0.2046  0.6989
 6122TIP3    H139857   4.524   6.718  17.112  0.1806 -0.0347  0.2548
 6122TIP3    H239858   4.562   6.797  16.989 -0.7032  0.1268  0.0809
 6123TIP3   OH239859   4.422   1.653  13.889 -0.2567  0.1073 -0.1237
 6123TIP3    H139860   4.339   1.622  13.926  0.3994 -2.6281 -0.8228
 6123TIP3    H239861   4.395   1.708  13.815 -1.4532  1.1457  1.0403
 6124TIP3   OH239862   0.127   5.493  14.498  0.1090 -0.3350 -0.4854
 6124TIP3    H139863   0.166   5.435  14.563  0.3023  0.1396 -0.1712
 6124TIP3    H239864   0.119   5.440  14.419  1.2258 -0.4853 -0.4979
 6125TIP3   OH239865   4.757   5.428  16.368 -0.4001  0.2203 -0.1624
 6125TIP3    H139866   4.789   5.357  16.312  0.3837 -0.0235  0.5833
 6125TIP3    H239867   4.705   5.483  16.309 -0.6495 -0.7220 -0.8488
 6126TIP3   OH239868   0.980   6.666   0.790 -0.3064 -0.0549 -0.1944
 6126TIP3    H139869   0.961   6.692   0.880  1.1183 -0.5549  0.2694
 6126TIP3    H239870   1.052   6.723   0.764  0.0752 -0.7198 -0.6017
 6127TIP3   OH239871   0.501   6.694   3.117 -0.0111  0.0145 -0.0223
 6127TIP3    H139872   0.434   6.640   3.159 -0.3336 -0.3391 -0.9578
 6127TIP3    H239873   0.520   6.763   3.180  1.3407 -1.8914  1.7524
 6128TIP3   OH239874   5.075   0.509  12.380  0.4780  0.0944 -0.3666
 6128TIP3    H139875   5.076   0.518  12.475 -0.3684  0.1138 -0.3567
 6128TIP3    H239876   5.080   0.599  12.347 -0.6828  0.1902 -0.3214
 6129TIP3   OH239877   1.633   0.496  14.996 -0.1064 -0.2591 -0.1446
 6129TIP3    H139878   1.559   0.553  15.018  0.4180  0.9106 -1.3361
 6129TIP3    H239879   1.710   0.546  15.023  0.3304 -0.6867 -0.5959
 6130TIP3   OH239880   4.811   6.399   2.893 -0.0545  0.3349 -0.3048
 6130TIP3    H139881   4.830   6.308   2.871 -0.9760 -0.0523  0.5011
 6130TIP3    H239882   4.829   6.447   2.812  0.9907 -0.4798 -0.5601
 6131TIP3   OH239883   5.365   1.566  12.397  0.1789  0.7062 -0.2012
 6131TIP3    H139884   5.277   1.593  12.373  0.4399  1.7261 -0.0442
 6131TIP3    H239885   5.415   1.571  12.315 -0.4070 -2.0084 -0.7579
 6132TIP3   OH239886   5.349   0.891   1.462  0.0596 -0.2989  0.3845
 6132TIP3    H139887   5.374   0.820   1.522  0.4212 -0.4699  0.0346
 6132TIP3    H239888   5.284   0.941   1.511  0.2461 -0.5194  0.8691
 6133TIP3   OH239889   2.621   6.275  13.221  0.4483  0.1464  0.1489
 6133TIP3    H139890   2.659   6.329  13.290 -1.2654  0.1784  1.0747
 6133TIP3    H239891   2.532   6.308  13.210 -1.0971 -3.2448  1.5944
 6134TIP3   OH239892   2.646   3.251   1.750 -0.7670 -0.1218  0.0398
 6134TIP3    H139893   2.686   3.289   1.671 -0.3394  0.5681  0.5807
 6134TIP3    H239894   2.588   3.320   1.782 -0.0408  0.0681  0.9877
 6135TIP3   OH239895   4.423   2.671   2.246 -0.0039  0.6233 -0.2036
 6135TIP3    H139896   4.390   2.676   2.336  1.5299  0.5711  0.3789
 6135TIP3    H239897   4.345   2.669   2.192 -0.9421  1.7509  1.0758
 6136TIP3   OH239898   4.081   4.277   1.916 -0.1944  0.3408 -0.1462
 6136TIP3    H139899   4.007   4.290   1.857 -0.2922  0.4520  0.0014
 6136TIP3    H239900   4.145   4.227   1.864 -0.0349  0.9451 -0.5342
 6137TIP3   OH239901   4.216   0.948  16.263  0.7380 -0.2729  0.1606
 6137TIP3    H139902   4.251   1.023  16.312 -1.0988  0.1871  0.8125
 6137TIP3    H239903   4.277   0.877  16.283  0.2762  0.0081  2.8461
 6138TIP3   OH239904   3.417   2.218  16.292  0.2223  0.0243  0.2475
 6138TIP3    H139905   3.459   2.253  16.213 -3.1401  2.2184 -0.6804
 6138TIP3    H239906   3.400   2.295  16.346  0.3145 -1.1939  2.0368
 6139TIP3   OH239907   5.679   0.441  11.408 -0.4541  0.1374  0.0898
 6139TIP3    H139908   5.606   0.471  11.354  1.0043  0.1106 -1.9728
 6139TIP3    H239909   5.638   0.394  11.480 -2.4443 -1.1736 -1.8321
 6140TIP3   OH239910   1.983   0.261   5.647 -0.4329  0.2561  0.3044
 6140TIP3    H139911   2.041   0.217   5.586  0.3441  0.0477  1.1892
 6140TIP3    H239912   1.993   0.354   5.627  0.7889  0.2741  0.9561
 6141TIP3   OH239913   6.072   0.893  13.187 -0.1435 -0.6112 -0.2824
 6141TIP3    H139914   6.138   0.913  13.254 -0.1645 -1.0790 -0.1194
 6141TIP3    H239915   6.003   0.957  13.202  0.2484 -0.1613 -0.4103
 6142TIP3   OH239916   3.943   4.493  12.636  0.3631  0.0674  0.9501
 6142TIP3    H139917   3.995   4.502  12.555 -2.2667 -3.6074 -1.2815
 6142TIP3    H239918   3.919   4.583  12.659  2.4746  1.3149 -1.4747
 6143TIP3   OH239919   1.042   0.065   1.835 -0.2538 -0.6150 -0.0123
 6143TIP3    H139920   1.024   0.087   1.926  1.6921  0.8955  0.0459
 6143TIP3    H239921   0.968   0.102   1.786 -0.6192 -0.2417  0.8220
 6144TIP3   OH239922   6.392   2.078   2.214  0.5479  0.0031 -0.3391
 6144TIP3    H139923   6.358   2.055   2.300  1.2704 -0.5240 -0.1906
 6144TIP3    H239924   6.395   2.174   2.214  2.5548 -0.0289  1.0199
 6145TIP3   OH239925   1.365   4.980   2.913 -0.0614 -0.4405 -0.4245
 6145TIP3    H139926   1.368   4.943   3.001  1.4420 -1.6531 -0.9640
 6145TIP3    H239927   1.327   4.910   2.859  0.4532 -0.2740 -1.0050
 6146TIP3   OH239928   4.109   3.695  11.112  0.0545  0.4988 -0.0726
 6146TIP3    H139929   4.170   3.622  11.107  1.5009  1.7060 -0.6163
 6146TIP3    H239930   4.022   3.655  11.106  0.8440 -1.0958 -1.2095
 6147TIP3   OH239931   3.485   5.298  16.948 -0.0986  0.0637  0.0129
 6147TIP3    H139932   3.470   5.310  17.042 -0.5107  1.0941 -0.1756
 6147TIP3    H239933   3.568   5.343  16.932 -1.4204  2.3511 -0.6169
 6148TIP3   OH239934   4.035   5.594  16.534 -0.2771 -0.0959 -0.4746
 6148TIP3    H139935   4.099   5.555  16.594  0.7643  0.9127 -0.9036
 6148TIP3    H239936   4.072   5.579  16.447  0.0696  1.6871 -0.6564
 6149TIP3   OH239937   4.883   1.581  14.153 -0.3376  0.3863 -0.1003
 6149TIP3    H139938   4.863   1.671  14.126 -0.7031 -0.0132 -1.1933
 6149TIP3    H239939   4.945   1.550  14.088 -0.5806 -0.3186  0.0002
 6150TIP3   OH239940   4.849   5.278   3.582  0.5520 -0.1438  0.2363
 6150TIP3    H139941   4.923   5.299   3.524 -0.0546  1.2300 -0.0711
 6150TIP3    H239942   4.835   5.359   3.632 -1.0931 -0.2279 -0.0816
 6151TIP3   OH239943   2.844   2.395   0.280  0.0783 -0.2217  0.0825
 6151TIP3    H139944   2.931   2.391   0.241 -0.4615  0.2873 -1.2152
 6151TIP3    H239945   2.860   2.411   0.373  1.3555  0.2982 -0.2149
 6152TIP3   OH239946   4.864   0.461   3.442 -0.0437 -0.5646  0.6417
 6152TIP3    H139947   4.951   0.483   3.410  0.5323  0.0634  2.5400
 6152TIP3    H239948   4.826   0.406   3.374  1.0527  0.8508 -1.1546
 6153TIP3   OH239949   0.407   5.318   5.116  0.0648 -0.4245  0.1596
 6153TIP3    H139950   0.403   5.244   5.177  0.1671  0.1510  0.8748
 6153TIP3    H239951   0.327   5.368   5.133  0.3205 -0.0060  0.1446
 6154TIP3   OH239952   4.804   2.702   3.091 -0.1528  0.2764  0.3049
 6154TIP3    H139953   4.820   2.786   3.048  0.1415 -0.1366 -0.3986
 6154TIP3    H239954   4.763   2.647   3.024  3.6174 -1.5627 -0.6365
 6155TIP3   OH239955   1.862   5.827   4.758  0.8142 -0.6544 -0.4831
 6155TIP3    H139956   1.789   5.778   4.720  1.3317 -1.6874 -0.1635
 6155TIP3    H239957   1.933   5.817   4.695  0.9162 -0.2859 -0.4285
 6156TIP3   OH239958   5.850   0.951  14.742 -0.4410 -0.0481  0.5872
 6156TIP3    H139959   5.866   0.997  14.824 -0.7470  1.4208 -0.1477
 6156TIP3    H239960   5.771   0.993  14.707 -0.0500 -0.3434 -0.6670
 6157TIP3   OH239961   5.249   3.033  13.109  0.0316 -0.8758 -0.0183
 6157TIP3    H139962   5.304   3.110  13.096 -0.1337 -0.6276  0.7567
 6157TIP3    H239963   5.216   3.013  13.021  1.1880 -0.9071 -0.4553
 6158TIP3   OH239964   4.167   3.035   4.478  0.5283  0.1654  0.1615
 6158TIP3    H139965   4.228   3.084   4.422  0.3897 -0.1536 -0.2678
 6158TIP3    H239966   4.082   3.044   4.436  0.6616 -1.2315 -0.4398
 6159TIP3   OH239967   4.409   3.386  14.926  0.2755 -0.7255  0.1004
 6159TIP3    H139968   4.373   3.406  15.013 -0.0798 -0.8568 -0.0136
 6159TIP3    H239969   4.387   3.463  14.873  0.2182 -0.7804  0.0457
 6160TIP3   OH239970   4.968   0.230  13.960  0.1362 -0.2828 -0.5090
 6160TIP3    H139971   5.048   0.272  13.929  0.0183 -0.9241 -1.7551
 6160TIP3    H239972   4.969   0.241  14.055 -0.5680  3.6777 -0.8917
 6161TIP3   OH239973   2.354   4.781   5.010 -0.1791  0.2823 -0.3555
 6161TIP3    H139974   2.312   4.853   5.056 -2.1707 -0.7184 -0.5577
 6161TIP3    H239975   2.404   4.735   5.077 -0.1907  0.9159  0.0872
 6162TIP3   OH239976   0.090   3.640   2.059 -0.7430 -0.3630  0.1799
 6162TIP3    H139977   0.047   3.673   1.980  0.7936 -0.1743 -0.6103
 6162TIP3    H239978   0.080   3.710   2.123 -1.1151 -0.0899 -0.1763
 6163TIP3   OH239979   5.182   3.387   1.919  0.4240 -0.9398 -0.1357
 6163TIP3    H139980   5.122   3.331   1.968  0.7009 -1.1757 -0.0647
 6163TIP3    H239981   5.269   3.367   1.955  0.3467  0.7348  1.0411
 6164TIP3   OH239982   0.935   5.915  11.450 -0.1297  0.1527  0.2704
 6164TIP3    H139983   0.919   5.962  11.532  0.1960 -1.3561  1.2253
 6164TIP3    H239984   0.972   5.980  11.391  0.6537  1.0059  1.6804
 6165TIP3   OH239985   2.819   1.129  13.041 -0.2164 -0.1961  0.6055
 6165TIP3    H139986   2.825   1.052  13.097  0.8439  0.7323  1.7997
 6165TIP3    H239987   2.804   1.094  12.953  0.1023 -1.7518  1.1609
 6166TIP3   OH239988   5.626   1.813   5.883 -0.8771  0.4211  0.7057
 6166TIP3    H139989   5.703   1.849   5.840 -1.4937 -1.2747 -1.9908
 6166TIP3    H239990   5.614   1.866   5.961  2.5463  1.2069  0.7703
 6167TIP3   OH239991   0.989   4.251   4.611 -0.3883 -0.5730 -0.5393
 6167TIP3    H139992   0.961   4.281   4.525  0.1299  2.5324  0.3125
 6167TIP3    H239993   0.909   4.251   4.664 -0.3314 -0.2537 -0.4470
 6168TIP3   OH239994   0.251   4.908   4.582 -0.4179  0.0314  0.2308
 6168TIP3    H139995   0.270   4.995   4.616 -1.2971  0.4900 -0.4457
 6168TIP3    H239996   0.258   4.850   4.658 -1.7379  0.9568  1.0812
 6169TIP3   OH239997   1.304   5.768  13.241  0.0500  0.6501 -0.0008
 6169TIP3    H139998   1.226   5.786  13.294  0.3832  0.2905  0.6151
 6169TIP3    H239999   1.376   5.769  13.304  0.3488 -0.6315 -0.3185
 6170TIP3   OH240000   0.015   0.657  11.170 -0.4314  0.0691  0.2657
 6170TIP3    H140001   0.043   0.707  11.246  0.6082 -1.7537  1.1148
 6170TIP3    H240002   0.073   0.687  11.099  0.7301 -0.5284  0.9621
 6171TIP3   OH240003   4.481   0.547  15.717  0.1189 -0.2160 -0.5617
 6171TIP3    H140004   4.559   0.591  15.685  0.4497 -0.0494  0.4560
 6171TIP3    H240005   4.458   0.486  15.647  0.6985  0.2946 -1.2040
 6172TIP3   OH240006   0.604   1.838  15.751  0.1475 -0.0627 -0.4709
 6172TIP3    H140007   0.698   1.826  15.738 -0.1137 -3.2600  0.0637
 6172TIP3    H240008   0.564   1.792  15.677 -1.0243  1.9707 -1.1478
 6173TIP3   OH240009   3.092   1.124  15.260  0.3380  0.5930  0.7723
 6173TIP3    H140010   3.082   1.136  15.166  0.0719 -1.2037  0.5706
 6173TIP3    H240011   3.102   1.030  15.273  0.0358  0.7694  2.5687
 6174TIP3   OH240012   4.528   6.455  11.337 -0.1900 -0.3587  1.3175
 6174TIP3    H140013   4.487   6.540  11.354 -1.9835 -0.8310 -0.3776
 6174TIP3    H240014   4.456   6.401  11.302  1.7669 -1.3659 -1.2939
 6175TIP3   OH240015   1.227   2.484  16.290  0.2570 -0.1750 -0.2515
 6175TIP3    H140016   1.226   2.574  16.325  0.6510 -0.4207  0.4093
 6175TIP3    H240017   1.136   2.463  16.274  0.3250  1.4381 -3.2762
 6176TIP3   OH240018   0.241   5.404   4.553  0.2499 -0.0224  0.0245
 6176TIP3    H140019   0.283   5.357   4.626 -1.4472 -1.0683  0.3363
 6176TIP3    H240020   0.164   5.445   4.592  1.2365  2.3580 -0.4333
 6177TIP3   OH240021   3.870   6.322   1.981 -0.2491 -0.0727 -0.1815
 6177TIP3    H140022   3.937   6.255   1.971  0.9917  0.9144  1.3463
 6177TIP3    H240023   3.873   6.370   1.898  1.7220  0.6298  0.2499
 6178TIP3   OH240024   5.382   3.325  11.597  0.0010  0.4448  0.2780
 6178TIP3    H140025   5.372   3.417  11.571  0.3318  0.7861  1.3519
 6178TIP3    H240026   5.431   3.328  11.679  1.2533 -0.7573 -0.3992
 6179TIP3   OH240027   2.546   1.256  11.058 -0.2178 -0.3709 -0.0173
 6179TIP3    H140028   2.627   1.286  11.099  0.2308 -0.5630 -0.7441
 6179TIP3    H240029   2.539   1.308  10.978 -1.4960  0.5579  0.6892
 6180TIP3   OH240030   5.038   1.828   4.767 -0.0810  0.3270 -0.2470
 6180TIP3    H140031   4.990   1.875   4.699 -2.1269 -0.9430  0.2576
 6180TIP3    H240032   5.085   1.759   4.721 -1.0249 -0.1917 -0.4376
 6181TIP3   OH240033   2.520   6.120  17.133 -0.0570 -0.4079  0.3521
 6181TIP3    H140034   2.462   6.044  17.133 -0.8184  0.1638 -0.7811
 6181TIP3    H240035   2.545   6.131  17.041  1.1442 -0.1174  0.7129
 6182TIP3   OH240036   0.429   1.493  12.675 -0.3926 -0.0774 -0.8384
 6182TIP3    H140037   0.346   1.454  12.646 -1.7041  0.5666  1.8794
 6182TIP3    H240038   0.406   1.583  12.696  0.7900 -0.1300  0.7451
 6183TIP3   OH240039   4.653   5.029  16.628 -0.0841 -0.2939  0.2389
 6183TIP3    H140040   4.654   5.125  16.628 -0.3032 -0.2886  0.6506
 6183TIP3    H240041   4.735   5.004  16.585  0.4373  0.0873  1.0002
 6184TIP3   OH240042   1.724   4.845   2.837 -0.3133  0.0992 -0.0392
 6184TIP3    H140043   1.661   4.869   2.906  0.8538  0.5652  0.8670
 6184TIP3    H240044   1.728   4.750   2.842 -0.3292  0.1209  0.4508
 6185TIP3   OH240045   5.707   6.160  11.289 -0.1760 -0.6021  0.2069
 6185TIP3    H140046   5.613   6.156  11.271 -0.6102  1.8261  1.6739
 6185TIP3    H240047   5.742   6.080  11.251 -2.6452 -0.9343 -1.5073
 6186TIP3   OH240048   5.767   1.566   3.708  0.9336  0.5394  0.7406
 6186TIP3    H140049   5.838   1.525   3.660  0.3011 -1.1562  1.1984
 6186TIP3    H240050   5.802   1.578   3.796 -0.2305 -3.0224  1.8022
 6187TIP3   OH240051   3.641   5.448   4.865  0.0136  0.0180 -0.4590
 6187TIP3    H140052   3.712   5.450   4.802  0.3095 -0.7549 -0.1512
 6187TIP3    H240053   3.589   5.372   4.840  0.0554 -0.2088  0.1415
 6188TIP3   OH240054   6.199   2.889  13.954 -0.5121 -0.2594 -0.0773
 6188TIP3    H140055   6.218   2.875  13.861  1.8599  1.4605  0.0745
 6188TIP3    H240056   6.207   2.803  13.994 -0.1758 -0.7883 -1.2820
 6189TIP3   OH240057   6.452   2.881  15.359  0.0178  0.1328 -0.5441
 6189TIP3    H140058   6.543   2.908  15.346  0.0204 -0.4964 -1.8633
 6189TIP3    H240059   6.405   2.963  15.372  1.2255  0.3127  3.2904
 6190TIP3   OH240060   6.371   4.137   2.845 -0.2711  0.0548  0.6699
 6190TIP3    H140061   6.435   4.097   2.904  1.0957 -2.4572 -2.4237
 6190TIP3    H240062   6.302   4.071   2.836 -0.7767  0.6748 -0.0476
 6191TIP3   OH240063   5.949   1.275   3.919 -0.0285 -0.3551  0.4470
 6191TIP3    H140064   5.986   1.359   3.891  1.1562 -0.2091  2.3110
 6191TIP3    H240065   5.860   1.276   3.886  0.4360  1.0070 -0.8302
 6192TIP3   OH240066   0.713   4.168   2.488  0.1563 -0.0705  0.3222
 6192TIP3    H140067   0.641   4.231   2.486  0.3139  0.0981 -0.0718
 6192TIP3    H240068   0.786   4.214   2.449  0.6761 -0.0033  1.3542
 6193TIP3   OH240069   5.076   3.295  15.494  0.8374 -0.3262 -0.3888
 6193TIP3    H140070   5.079   3.293  15.589 -0.5631  0.1340 -0.3321
 6193TIP3    H240071   5.118   3.379  15.471 -0.1744  0.2585 -0.1145
 6194TIP3   OH240072   4.199   5.128  13.322  0.1302  0.7795  0.3290
 6194TIP3    H140073   4.243   5.045  13.307 -0.3586  0.8990 -1.8906
 6194TIP3    H240074   4.264   5.195  13.301 -0.1503  0.9550  0.0056
 6195TIP3   OH240075   3.429   3.336  14.780 -0.0872 -0.7398 -0.1096
 6195TIP3    H140076   3.444   3.334  14.874 -2.2854 -0.0896  0.2724
 6195TIP3    H240077   3.516   3.350  14.743  1.1145 -3.1972  1.6813
 6196TIP3   OH240078   3.885   0.160  14.752  0.5624 -0.0955  0.1426
 6196TIP3    H140079   3.928   0.245  14.754 -0.5489  0.4904 -0.1454
 6196TIP3    H240080   3.798   0.177  14.788  0.6791 -1.3131  1.0041
 6197TIP3   OH240081   3.487   4.388  11.542 -0.3487  0.2855 -0.6257
 6197TIP3    H140082   3.578   4.402  11.518 -1.2029  0.5981 -3.9146
 6197TIP3    H240083   3.455   4.474  11.569  0.7382 -0.1489  2.1866
 6198TIP3   OH240084   2.028   4.704  11.819  0.0139  0.0066  0.3955
 6198TIP3    H140085   1.964   4.650  11.772 -0.0902 -0.1340  0.6984
 6198TIP3    H240086   2.080   4.744  11.750  0.8372 -1.3785  0.1940
 6199TIP3   OH240087   0.580   4.220  11.347 -0.2109 -0.2940  0.1884
 6199TIP3    H140088   0.613   4.300  11.387 -0.2686 -1.0554  1.7861
 6199TIP3    H240089   0.486   4.220  11.364 -0.3459 -0.3213 -0.5066
 6200TIP3   OH240090   4.410   5.506  14.878  0.7118 -0.0170 -0.2856
 6200TIP3    H140091   4.339   5.551  14.833  1.1408 -2.1486 -3.1994
 6200TIP3    H240092   4.366   5.451  14.943 -0.0745  0.9352  0.0065
 6201TIP3   OH240093   1.174   0.742  12.923  0.4367 -0.5627 -0.2455
 6201TIP3    H140094   1.180   0.746  13.019 -0.8298 -1.2063 -0.1400
 6201TIP3    H240095   1.261   0.711  12.896  1.6612  2.0154  0.5070
 6202TIP3   OH240096   2.192   6.636  11.675  0.2611  0.3121  0.2348
 6202TIP3    H140097   2.126   6.568  11.684  0.6609 -0.2455 -0.9258
 6202TIP3    H240098   2.229   6.645  11.763  1.8557 -2.6950 -0.0504
 6203TIP3   OH240099   6.692   2.455   5.171  0.1598  0.6819  0.0313
 6203TIP3    H140100   6.673   2.493   5.257  2.4906  1.5236  0.2098
 6203TIP3    H240101   6.675   2.525   5.109 -1.5232  0.0739 -0.2074
 6204TIP3   OH240102   1.304   4.958  16.201  0.0919  0.3071 -0.2051
 6204TIP3    H140103   1.256   5.041  16.208  1.5979  1.1324  0.7076
 6204TIP3    H240104   1.268   4.904  16.271  0.7832  1.0777  0.7544
 6205TIP3   OH240105   2.496   2.215   5.844 -0.1630  0.0782  0.0627
 6205TIP3    H140106   2.513   2.309   5.836  2.2232 -0.2991  0.3032
 6205TIP3    H240107   2.451   2.206   5.928  0.6907  0.8943  0.6268
 6206TIP3   OH240108   3.176   6.551  14.443 -0.1464  0.4456 -0.4042
 6206TIP3    H140109   3.197   6.626  14.499 -0.5451  1.4862 -1.6174
 6206TIP3    H240110   3.252   6.493  14.452  1.1941  2.0285 -1.1716
 6207TIP3   OH240111   1.072   2.180  12.400  0.1566  0.6805 -0.2787
 6207TIP3    H140112   1.089   2.221  12.484 -1.8644  1.0018  0.0038
 6207TIP3    H240113   1.142   2.116  12.389 -0.6266 -0.6985  2.5127
 6208TIP3   OH240114   1.291   0.795  10.401  0.2735 -0.2223  0.5699
 6208TIP3    H140115   1.199   0.818  10.398 -0.3593 -2.4942  1.5038
 6208TIP3    H240116   1.328   0.854  10.466 -0.7933 -0.1807  1.1469
 6209TIP3   OH240117   6.472   5.899  16.381  0.5374 -0.1966  0.1719
 6209TIP3    H140118   6.537   5.871  16.446  1.3503 -0.1077 -0.5895
 6209TIP3    H240119   6.391   5.912  16.431  1.3787  0.7493  1.3197
 6210TIP3   OH240120   4.053   1.959   3.754  0.3213  0.3587  0.0973
 6210TIP3    H140121   4.125   1.945   3.693 -1.3547  0.7276 -2.0218
 6210TIP3    H240122   4.081   2.033   3.808  2.1049 -0.4111  0.2692
 6211TIP3   OH240123   2.029   0.103   3.036 -0.3990 -0.2930  0.5664
 6211TIP3    H140124   2.107   0.066   2.994  0.9765  1.6393  1.3399
 6211TIP3    H240125   2.001   0.036   3.098  0.9619 -0.8034  0.6462
 6212TIP3   OH240126   2.113   0.229  16.316 -0.5660  0.1411 -0.3856
 6212TIP3    H140127   2.186   0.272  16.361  0.6289 -1.2522 -0.9259
 6212TIP3    H240128   2.126   0.136  16.333 -1.1738 -0.2648 -2.0145
 6213TIP3   OH240129   1.715   3.261   3.201  0.2585 -0.3283 -0.1045
 6213TIP3    H140130   1.769   3.184   3.221 -1.2323 -1.9515 -2.0446
 6213TIP3    H240131   1.763   3.308   3.134 -0.1998 -1.2145 -1.0783
 6214TIP3   OH240132   0.444   3.578  14.946  0.0161  0.2104  0.1645
 6214TIP3    H140133   0.354   3.609  14.948  0.1728  0.6734 -0.0145
 6214TIP3    H240134   0.481   3.616  14.866  0.9794  1.7225  1.3087
 6215TIP3   OH240135   5.769   1.953   2.765  0.0895 -0.4239 -0.7150
 6215TIP3    H140136   5.861   1.978   2.770  0.1318 -0.3353 -1.8332
 6215TIP3    H240137   5.741   1.946   2.856  1.4890 -1.5085 -0.3529
 6216TIP3   OH240138   4.957   6.278   6.422  0.2783  0.3297 -0.3628
 6216TIP3    H140139   4.931   6.345   6.485  1.1329  0.7607 -0.4603
 6216TIP3    H240140   5.048   6.257   6.444 -0.3869 -1.7642  0.4970
 6217TIP3   OH240141   3.931   1.341  10.833 -0.2577  0.1505  0.1144
 6217TIP3    H140142   4.010   1.359  10.884 -0.3226  1.4923 -0.2412
 6217TIP3    H240143   3.960   1.280  10.764  0.0699 -0.7699  1.0489
 6218TIP3   OH240144   3.602   1.154  15.264  0.2128  0.3772  0.4854
 6218TIP3    H140145   3.509   1.176  15.272 -0.2772 -1.3994 -0.0315
 6218TIP3    H240146   3.602   1.064  15.230  2.1262  0.7457 -0.5243
 6219TIP3   OH240147   6.552   1.394  17.170  0.0164 -0.2397 -0.7538
 6219TIP3    H140148   6.474   1.404  17.225  1.5405  2.0020  1.1116
 6219TIP3    H240149   6.598   1.318  17.208 -0.0430 -0.0533 -0.3030
 6220TIP3   OH240150   2.172   0.426  16.748  0.0831  0.1854 -0.1564
 6220TIP3    H140151   2.137   0.482  16.679 -1.3812 -0.4254  0.0836
 6220TIP3    H240152   2.172   0.338  16.711 -1.4722 -0.2681  0.8945
 6221TIP3   OH240153   3.905   0.614  13.055 -0.0049  0.6705  0.0866
 6221TIP3    H140154   3.884   0.540  12.998  0.4633 -0.0470  0.8328
 6221TIP3    H240155   3.830   0.622  13.113  0.7061 -0.3870  1.1930
 6222TIP3   OH240156   2.958   5.347  16.467  0.3243 -0.1718 -0.2647
 6222TIP3    H140157   2.979   5.441  16.461 -0.5959 -0.0580 -2.1845
 6222TIP3    H240158   2.968   5.315  16.378  3.4759 -2.5820  0.8959
 6223TIP3   OH240159   3.534   5.741  16.691  0.2622  0.2912 -0.3125
 6223TIP3    H140160   3.475   5.765  16.620  0.4300 -0.4033 -0.6928
 6223TIP3    H240161   3.482   5.756  16.771  0.0931  1.1182 -0.5676
 6224TIP3   OH240162   0.858   1.051  13.633 -0.0735 -1.0067 -0.1310
 6224TIP3    H140163   0.891   1.101  13.558 -0.3920  0.7548  0.8827
 6224TIP3    H240164   0.884   0.961  13.614  0.2715 -0.5246 -2.1270
 6225TIP3   OH240165   1.320   3.764  10.738  0.1497 -0.0933  0.5847
 6225TIP3    H140166   1.300   3.675  10.709  0.8864  0.7078 -2.5660
 6225TIP3    H240167   1.291   3.820  10.666  4.3982  1.8197  0.2338
 6226TIP3   OH240168   6.083   5.730  10.894  0.2586  0.0413 -0.2916
 6226TIP3    H140169   6.070   5.635  10.899  1.0968 -0.1075 -0.7853
 6226TIP3    H240170   6.017   5.760  10.831  0.7690 -0.3883 -1.0478
 6227TIP3   OH240171   4.761   3.589  15.662 -0.0165  0.2766  0.4601
 6227TIP3    H140172   4.790   3.524  15.597  1.8312  0.0216  1.5036
 6227TIP3    H240173   4.717   3.656  15.611  0.1217 -0.6550 -0.9035
 6228TIP3   OH240174   1.182   4.542  16.463  0.6273 -0.5763 -0.0464
 6228TIP3    H140175   1.212   4.622  16.420  0.0791  0.5638  1.6872
 6228TIP3    H240176   1.121   4.503  16.400  1.3647  0.0286 -1.1571
 6229TIP3   OH240177   4.172   5.016  14.531  0.3751 -0.5664 -0.0663
 6229TIP3    H140178   4.143   5.071  14.459 -0.8363 -2.8428 -1.3530
 6229TIP3    H240179   4.258   5.051  14.555  0.4387  0.6942 -2.0928
 6230TIP3   OH240180   2.683   3.756   3.675  0.0118  0.0730  0.0024
 6230TIP3    H140181   2.607   3.814   3.691 -0.6911 -0.9278  0.3408
 6230TIP3    H240182   2.733   3.801   3.607  0.4609  2.0063  1.5581
 6231TIP3   OH240183   5.836   3.263  17.249  0.4024 -0.1856 -0.0899
 6231TIP3    H140184   5.754   3.266  17.297 -1.0680 -0.6205 -2.4816
 6231TIP3    H240185   5.825   3.191  17.187  1.7951  1.0837 -1.8651
 6232TIP3   OH240186   5.371   4.370   0.897  0.1712  0.2537  0.0521
 6232TIP3    H140187   5.406   4.407   0.817  0.6061 -0.3835 -0.0593
 6232TIP3    H240188   5.280   4.350   0.877  0.1183  0.6400 -0.0933
 6233TIP3   OH240189   6.257   5.538   6.213  0.0914  0.0095 -0.2469
 6233TIP3    H140190   6.171   5.570   6.186 -1.2225 -2.0913  1.2976
 6233TIP3    H240191   6.240   5.452   6.252  2.9023 -0.4790  0.0400
 6234TIP3   OH240192   5.649   3.870  16.902  0.0139 -0.5268 -0.5171
 6234TIP3    H140193   5.589   3.842  16.972  0.5676 -2.6088 -0.8482
 6234TIP3    H240194   5.668   3.962  16.922  0.2293 -1.1080  2.1366
 6235TIP3   OH240195   6.228   5.479  11.519  0.2684 -0.5876  0.5171
 6235TIP3    H140196   6.162   5.425  11.562 -0.5532  0.0078  0.0008
 6235TIP3    H240197   6.180   5.530  11.454  1.2594 -0.2973 -0.0023
 6236TIP3   OH240198   1.651   3.352   1.788 -0.7305 -0.0881 -0.4696
 6236TIP3    H140199   1.646   3.326   1.696 -2.6522  2.4182 -1.1135
 6236TIP3    H240200   1.721   3.298   1.824  0.0424 -1.1179 -3.3855
 6237TIP3   OH240201   2.415   5.472  12.321  0.2591 -0.0774 -0.1708
 6237TIP3    H140202   2.430   5.550  12.375 -2.0678 -0.6070  1.3002
 6237TIP3    H240203   2.462   5.402  12.367 -2.7185 -0.7854  1.9365
 6238TIP3   OH240204   4.214   4.752   1.827  0.0724 -0.1416 -0.1049
 6238TIP3    H140205   4.159   4.724   1.753  0.7841  1.7727 -1.4256
 6238TIP3    H240206   4.303   4.753   1.791  0.4383  0.7382  0.8008
 6239TIP3   OH240207   6.462   2.992   1.891 -0.6806  0.5315 -0.2986
 6239TIP3    H140208   6.416   2.915   1.925 -0.1266  0.6853  0.8173
 6239TIP3    H240209   6.398   3.035   1.834 -1.5117  0.0882  0.2894
 6240TIP3   OH240210   1.354   5.098   5.409 -0.1003  0.1460  0.2641
 6240TIP3    H140211   1.408   5.049   5.348 -1.2163 -0.6815 -0.0872
 6240TIP3    H240212   1.293   5.033   5.444 -1.4983  1.2287 -0.0946
 6241TIP3   OH240213   0.895   0.375  17.005 -0.2051 -0.3101 -0.3660
 6241TIP3    H140214   0.872   0.351  16.915  0.4043 -2.5023  0.0400
 6241TIP3    H240215   0.987   0.403  16.999 -0.2082 -0.3185 -0.4590
 6242TIP3   OH240216   5.177   2.860   4.629 -0.4954  0.5333 -0.1979
 6242TIP3    H140217   5.153   2.775   4.666  2.3427 -0.7068 -1.1046
 6242TIP3    H240218   5.197   2.914   4.705  0.6249 -0.5234  0.2717
 6243TIP3   OH240219   5.848   1.248   3.089  0.4869 -0.8776 -0.1516
 6243TIP3    H140220   5.826   1.276   3.178 -1.6723 -1.4458 -0.4818
 6243TIP3    H240221   5.869   1.155   3.098  1.0514 -0.7528 -0.1277
 6244TIP3   OH240222   6.162   0.582   1.915  0.0468 -0.2489  0.8375
 6244TIP3    H140223   6.123   0.536   1.989 -1.7924  0.2413  0.2011
 6244TIP3    H240224   6.190   0.511   1.856 -2.6135 -0.6067 -0.0578
 6245TIP3   OH240225   2.781   4.211   3.529  0.0577 -0.2967 -0.0211
 6245TIP3    H140226   2.774   4.242   3.620 -2.6971 -1.6820  0.2834
 6245TIP3    H240227   2.733   4.276   3.478  0.3369 -0.3099 -0.2994
 6246TIP3   OH240228   5.275   0.548   0.034 -0.0975  0.2133 -0.0621
 6246TIP3    H140229   5.317   0.617  -0.016 -0.1438  1.1639  1.1780
 6246TIP3    H240230   5.209   0.511  -0.026  0.7115  0.4626 -1.1130
 6247TIP3   OH240231   2.433   3.248   6.423 -0.4856  1.0583 -0.5026
 6247TIP3    H140232   2.429   3.339   6.451 -2.0623  0.9494 -0.3138
 6247TIP3    H240233   2.341   3.219   6.422 -0.1494 -0.0446 -2.1349
 6248TIP3   OH240234   2.800   2.365   5.782  0.4331 -0.0964 -0.0959
 6248TIP3    H140235   2.727   2.421   5.754  0.6819  0.0114 -0.5384
 6248TIP3    H240236   2.824   2.317   5.703  1.1498  0.2141 -0.0656
 6249TIP3   OH240237   1.825   1.887  16.111 -0.0472 -0.0461 -0.6899
 6249TIP3    H140238   1.887   1.814  16.116  0.3888  0.2649 -1.4261
 6249TIP3    H240239   1.831   1.917  16.020 -0.6112  0.5657 -0.5251
 6250TIP3   OH240240   3.190   2.982  17.196  0.3291  0.5128  0.0404
 6250TIP3    H140241   3.244   2.953  17.122 -0.3664  0.2940 -0.3863
 6250TIP3    H240242   3.249   2.978  17.272  0.4095 -1.4421 -0.1130
 6251TIP3   OH240243   0.356   6.171  11.175 -0.1991  0.9354  0.3298
 6251TIP3    H140244   0.418   6.116  11.128 -1.1647  0.0449  0.0624
 6251TIP3    H240245   0.344   6.248  11.118 -0.4246  0.4398 -0.3040
 6252TIP3   OH240246   0.435   4.840  12.793  0.2668 -0.5491  0.4188
 6252TIP3    H140247   0.383   4.845  12.873  2.2106 -0.9506  1.7474
 6252TIP3    H240248   0.372   4.818  12.724 -1.9068  2.6422  1.2983
 6253TIP3   OH240249   4.943   2.768   1.403  0.4497  0.7628  0.7157
 6253TIP3    H140250   4.998   2.843   1.381 -0.7803  1.9072  1.4742
 6253TIP3    H240251   4.853   2.800   1.394 -0.2067 -1.8051 -3.0431
 6254TIP3   OH240252   5.387   4.463   4.836  0.0884  0.4948  0.2202
 6254TIP3    H140253   5.307   4.432   4.879  0.9208 -1.0211  0.6902
 6254TIP3    H240254   5.433   4.383   4.810  0.5286  1.3704 -1.7911
 6255TIP3   OH240255   0.848   5.653  14.505 -0.8410 -0.1037  0.3941
 6255TIP3    H140256   0.779   5.609  14.455 -0.3458  3.3580 -3.6163
 6255TIP3    H240257   0.911   5.681  14.439  1.6356  1.6999  3.3885
 6256TIP3   OH240258   4.209   1.683   1.982 -0.2357  0.1264 -0.0421
 6256TIP3    H140259   4.140   1.684   2.048  0.8116  0.3104  1.0584
 6256TIP3    H240260   4.179   1.746   1.916 -2.3726 -1.7131 -0.9007
 6257TIP3   OH240261   0.912   5.677  12.026 -0.1155 -0.1880  0.3083
 6257TIP3    H140262   0.982   5.618  11.997  0.4746  0.6035  0.1035
 6257TIP3    H240263   0.917   5.673  12.122 -0.6060 -1.0813  0.3056
 6258TIP3   OH240264   3.897   6.198  16.002  0.3287 -0.0396 -0.2742
 6258TIP3    H140265   3.832   6.214  16.070 -0.2389  0.4356 -0.9106
 6258TIP3    H240266   3.919   6.105  16.011 -0.6192 -0.2682 -0.1984
 6259TIP3   OH240267   6.739   1.561   2.945  0.0691  0.0580  0.0569
 6259TIP3    H140268   6.662   1.598   2.989  0.2058  0.3619  0.0449
 6259TIP3    H240269   6.809   1.567   3.010  0.0257 -0.4517  0.1557
 6260TIP3   OH240270   5.185   6.326  11.221 -0.6479  0.5530  0.3255
 6260TIP3    H140271   5.218   6.412  11.194  0.8188  0.2051  0.9720
 6260TIP3    H240272   5.177   6.332  11.316 -1.4017  0.2537  0.2880
 6261TIP3   OH240273   0.295   4.510  11.914 -0.0254 -0.0914  0.3425
 6261TIP3    H140274   0.261   4.486  12.000 -1.6545 -0.0432 -0.2571
 6261TIP3    H240275   0.355   4.438  11.892  0.0839 -0.3159  1.3341
 6262TIP3   OH240276   5.574   5.935   4.581  0.2925  0.1484 -0.0993
 6262TIP3    H140277   5.644   5.990   4.547  0.9484  0.3128  1.4880
 6262TIP3    H240278   5.494   5.983   4.561  0.8214  1.3948  0.7071
 6263TIP3   OH240279   1.609   6.582   5.396 -0.5666 -0.1935  0.3796
 6263TIP3    H140280   1.561   6.614   5.320 -1.7900  0.2678  1.3325
 6263TIP3    H240281   1.693   6.627   5.392 -1.0348  0.6383 -0.1002
 6264TIP3   OH240282   3.829   1.079  16.860 -0.2609 -0.0392  0.0732
 6264TIP3    H140283   3.883   1.082  16.939  1.4124 -0.6841 -1.0264
 6264TIP3    H240284   3.760   1.144  16.876  1.4375  1.5606  1.0763
 6265TIP3   OH240285   1.087   5.347   1.485 -0.1215  0.1540  0.5288
 6265TIP3    H140286   1.166   5.298   1.465 -0.5416 -0.7349  1.0140
 6265TIP3    H240287   1.077   5.340   1.580 -0.5726  0.5645  0.5135
 6266TIP3   OH240288   6.575   0.555   1.041 -0.3118  0.0044  0.2856
 6266TIP3    H140289   6.638   0.502   0.992 -0.6124  0.4336 -0.5908
 6266TIP3    H240290   6.612   0.562   1.129 -0.0472 -1.2671  0.2739
 6267TIP3   OH240291   1.262   0.887   0.868  0.0448 -0.7603  0.2612
 6267TIP3    H140292   1.178   0.884   0.915  0.4518  1.5622  1.2330
 6267TIP3    H240293   1.327   0.899   0.937  0.7273  1.8723 -0.7718
 6268TIP3   OH240294   4.542   2.576   0.851  0.5467 -0.2263 -0.1342
 6268TIP3    H140295   4.483   2.518   0.899 -0.0963  0.3309 -0.2370
 6268TIP3    H240296   4.503   2.583   0.764  0.2403  0.8937  0.0823
 6269TIP3   OH240297   0.205   4.417   5.899 -0.3346 -0.1049  0.1542
 6269TIP3    H140298   0.196   4.349   5.966 -0.7147 -0.6102 -0.4063
 6269TIP3    H240299   0.127   4.407   5.844 -0.9331  1.4659  0.6809
 6270TIP3   OH240300   4.844   4.972   0.207 -0.1511  0.0169  0.3704
 6270TIP3    H140301   4.842   5.004   0.297 -0.0454 -0.3170  0.4927
 6270TIP3    H240302   4.856   4.878   0.215 -0.2614 -0.0298  0.0079
 6271TIP3   OH240303   4.155   2.041  16.859 -0.2320 -0.0463 -0.1254
 6271TIP3    H140304   4.112   2.097  16.795  1.8460  2.1058  0.2787
 6271TIP3    H240305   4.242   2.026  16.823  0.4393 -0.0614  1.4797
 6272TIP3   OH240306   4.558   4.610   2.376  0.1132  0.3888 -0.2939
 6272TIP3    H140307   4.489   4.562   2.422  0.5440  0.2826  0.2595
 6272TIP3    H240308   4.544   4.591   2.284  0.2991 -0.8470 -0.0783
 6273TIP3   OH240309   1.608   0.923   4.845 -0.1976 -0.0784 -0.4766
 6273TIP3    H140310   1.581   0.878   4.925  0.1698 -1.0221 -0.8807
 6273TIP3    H240311   1.655   0.857   4.794 -3.2397 -0.4072 -2.9874
 6274TIP3   OH240312   5.012   0.373  16.822 -0.0585  0.2150 -0.1309
 6274TIP3    H140313   4.991   0.375  16.915  2.5073  0.7473  0.4771
 6274TIP3    H240314   4.949   0.433  16.782  0.5116  2.0839  1.6584
 6275TIP3   OH240315   6.446   1.245  16.468 -0.0075  0.2376  0.0006
 6275TIP3    H140316   6.355   1.218  16.455 -0.5725  1.6009  1.0196
 6275TIP3    H240317   6.441   1.314  16.534  1.7797  0.2679  0.1096
 6276TIP3   OH240318   2.013   2.193   0.213  0.1038  0.0190 -0.7071
 6276TIP3    H140319   2.071   2.168   0.141  0.7084  0.1259 -0.2638
 6276TIP3    H240320   1.971   2.110   0.238  0.4799 -0.1634 -0.6668
 6277TIP3   OH240321   1.341   2.304   3.875 -0.0293 -0.0634  0.6254
 6277TIP3    H140322   1.293   2.372   3.828 -0.8007 -0.3529  0.9996
 6277TIP3    H240323   1.274   2.253   3.921  0.6303 -0.4020  1.2359
 6278TIP3   OH240324   3.951   5.059  12.112 -0.3726 -0.3211  0.1380
 6278TIP3    H140325   4.039   5.053  12.149 -0.6513  2.0295  1.2953
 6278TIP3    H240326   3.941   5.152  12.089 -2.7586 -0.4157  0.6202
 6279TIP3   OH240327   3.120   3.811   1.035  0.0007  0.0908 -0.1235
 6279TIP3    H140328   3.075   3.744   0.983  0.6309 -0.5729  0.1836
 6279TIP3    H240329   3.119   3.776   1.124 -1.3619  1.3688  0.3767
 6280TIP3   OH240330   5.552   4.737  12.613 -0.1286 -0.1267  0.2600
 6280TIP3    H140331   5.548   4.650  12.652 -0.9688 -0.0564  0.3360
 6280TIP3    H240332   5.610   4.787  12.670  1.2372 -0.9371 -0.3780
 6281TIP3   OH240333   1.542   1.437   0.017 -0.4886 -0.5836 -0.3302
 6281TIP3    H140334   1.542   1.357  -0.036 -2.6500 -1.6292  1.1798
 6281TIP3    H240335   1.450   1.462   0.021 -0.2552 -0.1025  2.2790
 6282TIP3   OH240336   4.464   5.402   0.892 -0.1341 -0.4909 -0.3614
 6282TIP3    H140337   4.465   5.486   0.845  0.4999 -1.3525 -1.9475
 6282TIP3    H240338   4.545   5.402   0.943 -0.1016 -0.1621 -0.4127
 6283TIP3   OH240339   4.471   3.157   1.397 -0.0776 -0.2080 -0.4438
 6283TIP3    H140340   4.556   3.156   1.442  0.6469 -0.2172 -1.7978
 6283TIP3    H240341   4.483   3.101   1.321 -1.1200  0.2892 -0.9865
 6284TIP3   OH240342   5.493   3.843   0.927  0.1377 -0.5987  0.3108
 6284TIP3    H140343   5.451   3.916   0.881 -0.4469 -0.7825  0.5415
 6284TIP3    H240344   5.527   3.787   0.857  0.8580  0.0443  0.1384
 6285TIP3   OH240345   5.354   3.960  10.976  0.0877  0.5458 -0.3846
 6285TIP3    H140346   5.275   3.936  10.928  0.3913 -0.5993 -0.3148
 6285TIP3    H240347   5.405   3.879  10.982  2.1884  1.6760 -2.1388
 6286TIP3   OH240348   4.316   4.839   4.852  0.3749 -0.3776 -0.0569
 6286TIP3    H140349   4.224   4.864   4.847  0.6688  0.9801  1.1714
 6286TIP3    H240350   4.339   4.817   4.761 -1.1218 -0.6253 -0.3885
 6287TIP3   OH240351   6.655   6.443  11.779 -0.2575  0.6188  0.5694
 6287TIP3    H140352   6.572   6.430  11.734 -0.3228  0.5662  0.7070
 6287TIP3    H240353   6.691   6.355  11.790  0.0546  0.6797  0.0590
 6288TIP3   OH240354   4.372   5.069   6.731 -0.1116  0.0447  0.4077
 6288TIP3    H140355   4.427   5.138   6.770  1.1447  0.2082 -1.6208
 6288TIP3    H240356   4.286   5.110   6.722  0.2725  0.8866  0.4927
 6289TIP3   OH240357   5.734   0.993   5.141  1.0585  0.1330 -0.4761
 6289TIP3    H140358   5.679   0.915   5.139  0.5445  0.5038 -0.9687
 6289TIP3    H240359   5.810   0.967   5.193 -0.3714  0.1527  1.6898
 6290TIP3   OH240360   5.902   4.392   5.232 -0.2453  0.1885 -0.0251
 6290TIP3    H140361   5.829   4.337   5.263  1.0741 -1.0371  0.9829
 6290TIP3    H240362   5.941   4.342   5.161 -1.1267  1.4127 -1.3914
 6291TIP3   OH240363   3.730   2.045  14.790 -0.0993  0.1480 -0.1472
 6291TIP3    H140364   3.824   2.059  14.804  0.0396  0.3549 -1.2267
 6291TIP3    H240365   3.702   1.993  14.865  1.1404 -0.9953 -0.4587
 6292TIP3   OH240366   1.541   0.776  13.278 -0.2116 -0.1534 -0.2450
 6292TIP3    H140367   1.580   0.852  13.322  2.6643 -2.1500  0.7968
 6292TIP3    H240368   1.511   0.720  13.349 -0.3883 -0.9781 -0.9680
 6293TIP3   OH240369   5.036   1.033   6.758 -0.4346 -0.1820 -0.2791
 6293TIP3    H140370   5.030   0.951   6.809  2.9090 -0.5682 -0.4357
 6293TIP3    H240371   5.045   1.101   6.824 -0.4386 -0.2388 -0.2192
 6294TIP3   OH240372   1.752   1.129   2.821  0.4383  0.3739 -0.1167
 6294TIP3    H140373   1.680   1.192   2.816 -0.2420 -0.3820  0.0411
 6294TIP3    H240374   1.719   1.051   2.777  0.4884 -0.5983  1.5283
 6295TIP3   OH240375   1.201   0.669   2.502 -0.0161  0.8608  0.3240
 6295TIP3    H140376   1.242   0.640   2.583  0.9708  1.3478 -0.0007
 6295TIP3    H240377   1.111   0.693   2.528  0.1210  0.4877  1.1610
 6296TIP3   OH240378   0.700   3.163   2.997 -0.2972 -0.4081  0.3557
 6296TIP3    H140379   0.718   3.072   2.973  0.3122 -0.2965  0.3824
 6296TIP3    H240380   0.769   3.214   2.955 -1.6302  0.2446 -1.0933
 6297TIP3   OH240381   3.861   2.815  10.388  0.5423  0.4510  0.5750
 6297TIP3    H140382   3.944   2.767  10.390  1.1694  1.4956  0.2772
 6297TIP3    H240383   3.856   2.859  10.473  0.1121  0.0822  0.7382
 6298TIP3   OH240384   1.531   0.707   3.781 -0.2479  0.2185  0.2680
 6298TIP3    H140385   1.463   0.733   3.842  0.2548  2.1572  0.0292
 6298TIP3    H240386   1.503   0.621   3.749 -2.3618  0.8039  0.4729
 6299TIP3   OH240387   5.076   5.846   5.180  0.5532 -0.4177 -0.3995
 6299TIP3    H140388   5.161   5.809   5.157  1.9142  1.8135  0.9246
 6299TIP3    H240389   5.078   5.935   5.145 -1.7858 -0.7555 -1.5141
 6300TIP3   OH240390   0.939   2.561  14.301  0.5567  0.0752 -0.2748
 6300TIP3    H140391   0.931   2.484  14.245 -0.9928  0.1405 -0.1541
 6300TIP3    H240392   0.940   2.635  14.241 -0.4889  0.1055 -0.2705
 6301TIP3   OH240393   5.927   2.444   4.091 -0.5646  0.7245  0.2779
 6301TIP3    H140394   6.016   2.468   4.116 -0.5156  0.2776  0.5336
 6301TIP3    H240395   5.930   2.349   4.083 -1.1768  0.6529  0.8983
 6302TIP3   OH240396   1.177   5.449  14.004  0.3428 -0.7711 -0.0255
 6302TIP3    H140397   1.192   5.460  14.098 -0.1890 -0.8700  0.0729
 6302TIP3    H240398   1.237   5.511  13.963  0.0996 -0.2472  0.4031
 6303TIP3   OH240399   5.739   2.536   5.205  0.1715 -0.0754 -0.1828
 6303TIP3    H140400   5.830   2.515   5.187  0.2320 -0.9751  1.0732
 6303TIP3    H240401   5.689   2.477   5.147  0.3645  1.5718 -2.0878
 6304TIP3   OH240402   0.922   6.009  12.321  0.1962  0.1162 -0.0999
 6304TIP3    H140403   1.012   5.975  12.317 -0.2348 -1.1855  0.8792
 6304TIP3    H240404   0.929   6.098  12.286  2.0986  0.4815  1.0857
 6305TIP3   OH240405   4.640   2.582  15.831  0.3195  0.4500 -0.9241
 6305TIP3    H140406   4.630   2.656  15.771 -0.6859  1.7001  0.7277
 6305TIP3    H240407   4.732   2.587  15.859 -0.0597  1.8788  0.1493
 6306TIP3   OH240408   4.032   5.364   0.304  0.1525  0.5248  0.1469
 6306TIP3    H140409   4.104   5.389   0.361 -1.0804  0.4785  1.7812
 6306TIP3    H240410   4.046   5.272   0.285  1.2113  0.8333 -0.6135
 6307TIP3   OH240411   3.043   5.487  11.973  1.1380  0.2709  0.0284
 6307TIP3    H140412   2.998   5.412  12.011  0.4352 -0.0525 -1.4094
 6307TIP3    H240413   2.995   5.563  12.008 -0.0518 -0.0473 -0.8883
 6308TIP3   OH240414   4.660   0.145  12.581  0.3792  0.1939 -0.0594
 6308TIP3    H140415   4.747   0.108  12.564  0.5331  0.5087  0.0398
 6308TIP3    H240416   4.670   0.190  12.665 -0.0653 -0.3745  0.3060
 6309TIP3   OH240417   0.298   3.095  13.378 -0.1302  0.0867 -0.2737
 6309TIP3    H140418   0.373   3.100  13.319  1.7414 -2.7576  1.7094
 6309TIP3    H240419   0.278   3.001  13.383 -2.4649  0.6168  0.8765
 6310TIP3   OH240420   4.030   1.489  12.536  0.1104 -0.0351 -0.1657
 6310TIP3    H140421   4.006   1.402  12.568  1.6574 -0.9717 -1.4370
 6310TIP3    H240422   4.126   1.489  12.539  0.1467  1.2165 -1.2148
 6311TIP3   OH240423   4.439   6.411  14.348  0.3753 -0.4935  0.1235
 6311TIP3    H140424   4.397   6.394  14.264 -0.3896  1.5199  0.0672
 6311TIP3    H240425   4.524   6.369  14.341  0.5871  0.2073 -1.9250
 6312TIP3   OH240426   2.598   6.046   0.594 -0.3766 -0.0674  0.4251
 6312TIP3    H140427   2.680   6.047   0.643  0.4033 -0.4445 -0.8345
 6312TIP3    H240428   2.603   6.123   0.538  0.1668 -1.3238 -1.3038
 6313TIP3   OH240429   3.836   6.614  13.422 -0.5614  0.8678  0.3079
 6313TIP3    H140430   3.796   6.636  13.506  0.1611  0.6859  0.7138
 6313TIP3    H240431   3.923   6.582  13.446 -0.7896 -0.3251 -0.4218
 6314TIP3   OH240432   4.893   2.358  15.973 -0.3710  0.1752  0.2577
 6314TIP3    H140433   4.986   2.362  15.993 -0.6518  0.1769  1.5832
 6314TIP3    H240434   4.866   2.449  15.963 -0.4088  0.2118  0.7004
 6315TIP3   OH240435   1.033   2.275  16.335 -0.5045 -0.1310 -0.6471
 6315TIP3    H140436   0.973   2.205  16.360 -0.5658 -0.0048 -0.4367
 6315TIP3    H240437   1.101   2.274  16.402  1.6575 -2.5754 -2.8100
 6316TIP3   OH240438   4.355   6.590   2.620 -0.3422  0.4813  0.3322
 6316TIP3    H140439   4.435   6.537   2.613 -0.9179 -0.1020 -2.2321
 6316TIP3    H240440   4.308   6.551   2.694 -0.6544 -2.4964 -1.3502
 6317TIP3   OH240441   2.190   5.371   4.533  0.1036  0.1242 -0.6117
 6317TIP3    H140442   2.131   5.302   4.501 -0.2679 -0.0580  0.4689
 6317TIP3    H240443   2.151   5.452   4.501  1.9485 -0.2718 -4.1837
 6318TIP3   OH240444   6.014   6.312   4.137 -0.4138  0.7737  0.5350
 6318TIP3    H140445   5.944   6.291   4.075  0.7327  1.7707 -1.1367
 6318TIP3    H240446   6.012   6.240   4.200  0.9575 -2.4466 -2.8690
 6319TIP3   OH240447   2.233   4.241   0.549 -0.2946  0.5768 -0.2773
 6319TIP3    H140448   2.207   4.314   0.492  1.0984 -0.1989 -1.9776
 6319TIP3    H240449   2.155   4.186   0.555 -0.5237  0.7802 -1.2917
 6320TIP3   OH240450   0.523   5.101   0.037 -0.4955 -0.0210  0.2922
 6320TIP3    H140451   0.516   5.057  -0.048  1.6932 -0.1659  0.1553
 6320TIP3    H240452   0.522   5.194   0.017 -1.0359 -0.0472  0.2027
 6321TIP3   OH240453   0.729   4.785  12.767  0.1795  0.3367  0.7394
 6321TIP3    H140454   0.648   4.832  12.746  0.4623  0.6211  0.2603
 6321TIP3    H240455   0.704   4.721  12.833 -0.2643  1.0115  1.2306
 6322TIP3   OH240456   0.535   6.435  11.183 -0.5845 -0.1545 -0.0769
 6322TIP3    H140457   0.460   6.410  11.128 -2.1948  4.2844 -0.1385
 6322TIP3    H240458   0.495   6.466  11.265  1.4324 -1.0088  1.2591
 6323TIP3   OH240459   2.937   3.485  12.334  0.0716 -0.0325 -0.4182
 6323TIP3    H140460   2.950   3.391  12.319  3.4333  0.4456 -0.8575
 6323TIP3    H240461   2.842   3.496  12.334 -0.3948 -3.4241 -0.3970
 6324TIP3   OH240462   5.877   6.613   1.269  0.0415  0.4282  0.3934
 6324TIP3    H140463   5.806   6.658   1.223 -1.4512 -1.3313  0.9336
 6324TIP3    H240464   5.881   6.526   1.228 -0.1088 -0.5174  2.3395
 6325TIP3   OH240465   5.709   1.716   3.077 -0.0798  0.2864 -0.9223
 6325TIP3    H140466   5.723   1.622   3.088 -0.4144  0.2721 -0.6260
 6325TIP3    H240467   5.619   1.723   3.046  0.1997  0.4569 -1.7360
 6326TIP3   OH240468   0.804   4.210  14.454 -0.0360 -0.3649  0.1080
 6326TIP3    H140469   0.794   4.283  14.394 -0.8844 -2.1089 -1.9217
 6326TIP3    H240470   0.717   4.199  14.493  0.9849  2.1168  3.3831
 6327TIP3   OH240471   1.941   4.877  12.337  0.2195 -0.0787  0.2416
 6327TIP3    H140472   1.935   4.818  12.261  0.7946 -1.0838  0.9522
 6327TIP3    H240473   2.028   4.917  12.329 -1.1342  2.5808 -1.5844
 6328TIP3   OH240474   4.714   4.391   5.804 -0.5368 -0.0952  0.5012
 6328TIP3    H140475   4.627   4.350   5.803 -0.3454 -0.5861  2.3151
 6328TIP3    H240476   4.700   4.474   5.850 -0.6980  1.4576 -2.1875
 6329TIP3   OH240477   6.191   0.244  14.974  0.0801 -0.6348  0.2561
 6329TIP3    H140478   6.096   0.237  14.988 -0.2629  1.7760 -0.7388
 6329TIP3    H240479   6.220   0.307  15.040  0.4494  1.0906 -1.5098
 6330TIP3   OH240480   6.694   2.512  16.266 -0.1017  0.2159 -0.0177
 6330TIP3    H140481   6.775   2.531  16.219 -0.1751 -2.8648 -1.5800
 6330TIP3    H240482   6.722   2.490  16.355  0.9327 -1.7424 -0.7917
 6331TIP3   OH240483   6.337   3.254  15.794 -0.0416 -0.2724 -0.3100
 6331TIP3    H140484   6.288   3.189  15.844  1.0436 -1.1712 -0.4135
 6331TIP3    H240485   6.404   3.285  15.855  0.1187 -0.0254 -0.6142
 6332TIP3   OH240486   3.376   3.858   5.578 -0.0878  0.1762 -0.3515
 6332TIP3    H140487   3.453   3.828   5.626  0.8878  1.1493 -1.2816
 6332TIP3    H240488   3.328   3.912   5.642  1.2392  1.5293 -0.4562
 6333TIP3   OH240489   4.336   4.132  12.041  0.6044 -0.0181  0.3052
 6333TIP3    H140490   4.254   4.097  12.075  1.4301 -1.6241  0.6911
 6333TIP3    H240491   4.394   4.135  12.117  1.0448  0.6646 -0.0563
 6334TIP3   OH240492   6.059   0.249   1.330 -0.0178  0.2272 -0.1249
 6334TIP3    H140493   6.014   0.220   1.410  0.6041  0.3568  0.2722
 6334TIP3    H240494   6.042   0.179   1.267 -0.8549  0.3145 -0.0073
 6335TIP3   OH240495   1.287   1.031  16.792 -0.1314 -0.0941  0.3803
 6335TIP3    H140496   1.244   1.015  16.708  0.6931  0.3322 -0.1428
 6335TIP3    H240497   1.254   0.963  16.850 -0.7177 -0.3932 -0.2940
 6336TIP3   OH240498   4.585   4.541  15.987  0.0260  0.0044 -0.2558
 6336TIP3    H140499   4.678   4.564  15.979 -0.0832  1.1224  1.5602
 6336TIP3    H240500   4.559   4.574  16.072 -2.3777  0.7803 -1.2432
 6337TIP3   OH240501   1.634   5.467  10.992 -0.2551 -0.0853  0.0696
 6337TIP3    H140502   1.649   5.387  11.042 -2.0893 -0.7167 -0.3917
 6337TIP3    H240503   1.716   5.516  11.001  0.3086 -1.2942  1.6551
 6338TIP3   OH240504   2.735   4.703   3.608  0.4811 -0.1741 -0.4010
 6338TIP3    H140505   2.675   4.630   3.620  0.5539 -0.1605  0.0562
 6338TIP3    H240506   2.735   4.720   3.514 -2.6270  1.8450 -0.1010
 6339TIP3   OH240507   2.979   5.164   1.429  0.3596  0.4789 -0.5093
 6339TIP3    H140508   2.998   5.083   1.478  0.7457  1.4164  0.9213
 6339TIP3    H240509   3.033   5.157   1.350  1.2105 -0.1778  0.1197
 6340TIP3   OH240510   3.499   4.216  15.389  0.1057 -0.1271  0.2922
 6340TIP3    H140511   3.464   4.130  15.413  0.1941  0.2888  1.9585
 6340TIP3    H240512   3.588   4.197  15.357 -0.5342 -0.8441 -1.0753
 6341TIP3   OH240513   2.078   5.782   1.133  0.5182 -0.2162  0.4777
 6341TIP3    H140514   2.055   5.689   1.138 -1.4608  0.2826  0.8969
 6341TIP3    H240515   2.002   5.828   1.168  2.4654  1.4820  2.6419
 6342TIP3   OH240516   6.632   6.254   3.712  0.1746 -0.3262 -0.5611
 6342TIP3    H140517   6.726   6.238   3.699  0.2403 -0.1790 -0.2632
 6342TIP3    H240518   6.602   6.287   3.627  0.0980 -1.7196 -1.0964
 6343TIP3   OH240519   1.574   6.121  15.867 -0.0518  0.1009 -0.5367
 6343TIP3    H140520   1.567   6.206  15.824  1.3847 -0.9504 -2.9620
 6343TIP3    H240521   1.545   6.058  15.801 -0.4567 -1.3363  0.9950
 6344TIP3   OH240522   3.210   0.664   2.511 -0.6507 -0.0439 -0.3015
 6344TIP3    H140523   3.175   0.742   2.468  1.4193  0.9390 -0.2460
 6344TIP3    H240524   3.195   0.680   2.604 -2.4255 -0.8309 -0.4307
 6345TIP3   OH240525   2.561   2.087  13.655 -0.3816 -0.8257 -0.1858
 6345TIP3    H140526   2.527   2.020  13.714  1.3482 -2.4507 -1.0091
 6345TIP3    H240527   2.496   2.157  13.659 -0.4443 -1.0149  3.4287
 6346TIP3   OH240528   4.826   1.558  11.474 -0.1444 -0.0326 -0.3120
 6346TIP3    H140529   4.739   1.579  11.509 -0.5519 -1.0341 -0.7265
 6346TIP3    H240530   4.867   1.504  11.541 -0.0482 -0.0321 -0.3692
 6347TIP3   OH240531   0.113   0.330  12.960 -0.1738 -0.1545  0.1044
 6347TIP3    H140532   0.052   0.403  12.948 -0.3655 -0.2708  0.3585
 6347TIP3    H240533   0.161   0.325  12.878 -2.7381 -2.1494 -1.3670
 6348TIP3   OH240534   3.013   6.610  11.629  0.4253 -0.3502 -0.6946
 6348TIP3    H140535   2.929   6.566  11.623 -0.7050  1.6162  0.1864
 6348TIP3    H240536   3.026   6.625  11.723  2.5445 -2.0655 -0.6629
 6349TIP3   OH240537   4.387   5.107   5.510 -0.5096 -0.4956  0.6463
 6349TIP3    H140538   4.411   5.038   5.447  1.5819  0.4500  0.3615
 6349TIP3    H240539   4.424   5.078   5.593 -0.4193 -0.1875  0.7170
 6350TIP3   OH240540   4.908   6.472  17.137 -0.7028  0.1103  0.5042
 6350TIP3    H140541   4.838   6.416  17.169  0.9590 -1.7917  0.9891
 6350TIP3    H240542   4.945   6.423  17.063  0.1198  1.0648  0.2681
 6351TIP3   OH240543   4.747   5.678  16.497 -0.1322  0.4656 -0.4550
 6351TIP3    H140544   4.827   5.708  16.540  0.2365  0.7723 -1.3455
 6351TIP3    H240545   4.764   5.586  16.477 -0.2489  0.3601 -0.0640
 6352TIP3   OH240546   1.578   6.542  13.785  0.0783  0.2308  0.3320
 6352TIP3    H140547   1.502   6.596  13.762 -2.0166 -2.4244  0.6565
 6352TIP3    H240548   1.590   6.557  13.879  0.6266  1.4708  0.0659
 6353TIP3   OH240549   5.252   5.373   2.435  0.0211  0.1703  0.7394
 6353TIP3    H140550   5.216   5.461   2.434  0.5805  0.3999  0.7445
 6353TIP3    H240551   5.332   5.379   2.382  0.6032 -0.1020  1.5701
 6354TIP3   OH240552   0.910   0.234  16.440 -0.1103  0.2446  0.1514
 6354TIP3    H140553   1.004   0.220  16.452 -0.5417 -1.1043  2.3057
 6354TIP3    H240554   0.900   0.329  16.439  1.2926  0.4042 -0.1657
 6355TIP3   OH240555   1.490   2.283   5.175  0.7659 -1.6495  0.1241
 6355TIP3    H140556   1.549   2.233   5.119  0.2189 -1.9033 -0.2272
 6355TIP3    H240557   1.525   2.273   5.263  2.1168 -0.5641 -0.2718
 6356TIP3   OH240558   3.524   0.969   3.870 -0.0832 -0.6398  0.0343
 6356TIP3    H140559   3.579   0.892   3.857 -1.5220 -1.2880 -2.6600
 6356TIP3    H240560   3.573   1.040   3.828  1.1606 -0.0474  2.3659
 6357TIP3   OH240561   5.801   3.441   4.924  0.0682 -0.5344 -0.0753
 6357TIP3    H140562   5.851   3.478   4.997  0.9669 -0.1753 -0.8607
 6357TIP3    H240563   5.734   3.507   4.905 -0.2580 -0.6917  0.5046
 6358TIP3   OH240564   1.808   6.557  16.624  0.1029 -0.1842  0.1444
 6358TIP3    H140565   1.896   6.563  16.663 -0.9565  1.6595  2.3900
 6358TIP3    H240566   1.790   6.463  16.622  1.5775 -0.5163  0.9457
 6359TIP3   OH240567   4.560   3.206  14.806 -0.7296  0.7318 -0.3542
 6359TIP3    H140568   4.515   3.270  14.860 -0.0464  1.3577 -0.5275
 6359TIP3    H240569   4.490   3.164  14.756 -1.2132  1.1082  0.0036
 6360TIP3   OH240570   4.522   5.455   1.290 -0.1071  0.0233 -0.4063
 6360TIP3    H140571   4.560   5.525   1.344 -0.2756 -0.7769  0.7805
 6360TIP3    H240572   4.474   5.400   1.353  0.1969 -1.2802 -1.2945
 6361TIP3   OH240573   4.027   5.502  14.178  0.0221 -0.0094  0.3539
 6361TIP3    H140574   4.012   5.441  14.250 -2.4818  0.1636  0.0328
 6361TIP3    H240575   3.956   5.483  14.116  0.9590  1.2203 -1.1042
 6362TIP3   OH240576   2.882   5.126   2.609  0.2297 -0.0419  0.1083
 6362TIP3    H140577   2.845   5.165   2.530 -3.2536  0.9743  2.1527
 6362TIP3    H240578   2.842   5.039   2.613 -0.1522  0.1832  1.1463
 6363TIP3   OH240579   3.114   5.753   0.775 -0.0572 -0.1675  0.0230
 6363TIP3    H140580   3.024   5.745   0.744  0.0985 -1.6323 -0.0836
 6363TIP3    H240581   3.168   5.729   0.700  0.3230 -3.2478  1.1820
 6364TIP3   OH240582   6.512   1.103  15.780 -0.1670 -0.2513  0.5661
 6364TIP3    H140583   6.431   1.072  15.821 -1.1267  1.2485 -0.1668
 6364TIP3    H240584   6.484   1.174  15.723  1.3650 -1.2446 -1.4828
 6365TIP3   OH240585   4.530   3.528   5.084 -0.2562 -0.3939  0.1827
 6365TIP3    H140586   4.474   3.604   5.089 -1.2080 -1.1762  1.8456
 6365TIP3    H240587   4.618   3.563   5.066 -0.8219  1.0006  0.1385
 6366TIP3   OH240588   3.499   3.174   4.424 -0.2525 -0.6390  0.0092
 6366TIP3    H140589   3.576   3.209   4.469 -1.8590  0.2497  2.1495
 6366TIP3    H240590   3.529   3.093   4.384  1.7208 -0.4580  1.0756
 6367TIP3   OH240591   0.705   1.412   0.427 -0.0474  0.3292  0.2762
 6367TIP3    H140592   0.615   1.445   0.432  0.1128  0.7315  0.5148
 6367TIP3    H240593   0.757   1.477   0.474 -0.0564 -1.3818  2.7516
 6368TIP3   OH240594   4.791   2.639   5.396 -0.1662 -0.0817  0.0084
 6368TIP3    H140595   4.835   2.582   5.333 -0.4972 -0.1228 -0.1864
 6368TIP3    H240596   4.862   2.676   5.449  0.0688 -0.4689 -0.0357
 6369TIP3   OH240597   3.121   1.814   0.132  0.7804 -0.4190  0.0526
 6369TIP3    H140598   3.051   1.753   0.157  1.3198 -0.7212  0.8596
 6369TIP3    H240599   3.202   1.762   0.140  1.1558  0.1200 -0.2070
 6370TIP3   OH240600   0.580   1.723   2.144 -0.7090  0.5956 -0.4001
 6370TIP3    H140601   0.507   1.759   2.095 -0.8574 -0.0940 -0.6831
 6370TIP3    H240602   0.543   1.652   2.195 -0.2642  0.3432 -0.4249
 6371TIP3   OH240603   6.152   0.789  16.765 -0.1149  0.1939  0.6140
 6371TIP3    H140604   6.059   0.768  16.762 -0.0071 -0.2731  0.5751
 6371TIP3    H240605   6.159   0.855  16.834 -0.6090  0.9262 -0.0303
 6372TIP3   OH240606   6.303   6.196  12.899  0.2598 -0.1838 -0.0398
 6372TIP3    H140607   6.359   6.145  12.958  0.4705 -1.1550 -1.0504
 6372TIP3    H240608   6.355   6.206  12.819 -0.3626  0.3350 -0.3872
 6373TIP3   OH240609   5.100   4.180  11.002 -0.5226 -0.1454  0.5777
 6373TIP3    H140610   5.115   4.219  10.916 -0.2184  0.9956  1.1385
 6373TIP3    H240611   5.015   4.215  11.030 -0.5885 -0.4584  0.7703
 6374TIP3   OH240612   1.549   0.506  10.927 -0.3153 -0.0010 -0.0027
 6374TIP3    H140613   1.639   0.507  10.892 -0.3436 -1.4048 -0.1480
 6374TIP3    H240614   1.501   0.567  10.872 -0.7555 -3.3731 -3.6220
 6375TIP3   OH240615   6.376   0.093  15.122 -0.1756  0.2590  0.0782
 6375TIP3    H140616   6.291   0.132  15.145 -0.4146  0.1037 -0.5316
 6375TIP3    H240617   6.405   0.141  15.044 -0.4842 -0.7730 -0.6963
 6376TIP3   OH240618   0.225   1.572   0.170  0.2583  0.5147 -0.1412
 6376TIP3    H140619   0.150   1.539   0.219  1.4856 -0.1683  1.3014
 6376TIP3    H240620   0.191   1.585   0.081 -0.5508 -3.6764 -0.5542
 6377TIP3   OH240621   2.386   4.698   4.651  0.0000 -0.2819  0.0754
 6377TIP3    H140622   2.343   4.757   4.589  1.6668 -0.1218 -0.9611
 6377TIP3    H240623   2.320   4.683   4.719 -1.4677  0.4461 -1.1394
 6378TIP3   OH240624   6.820   4.110   0.718  0.2046  0.2842  0.0847
 6378TIP3    H140625   6.791   4.032   0.671  0.4431  0.9159 -1.1435
 6378TIP3    H240626   6.898   4.082   0.766  1.3066  0.1782 -1.7156
 6379TIP3   OH240627   2.740   6.611  10.736  0.6791 -0.4095 -0.6083
 6379TIP3    H140628   2.725   6.683  10.674  0.2795 -0.3650 -0.4628
 6379TIP3    H240629   2.674   6.546  10.713  1.1379 -0.7977 -0.8391
 6380TIP3   OH240630   3.157   2.755   4.641  0.0099  0.1287  0.7046
 6380TIP3    H140631   3.109   2.785   4.718 -0.3943 -0.8312  0.8420
 6380TIP3    H240632   3.112   2.795   4.567 -0.7112 -0.3648  0.8645
 6381TIP3   OH240633   1.812   1.237  11.756 -0.5675 -0.0513 -0.0960
 6381TIP3    H140634   1.863   1.156  11.750  0.8090  0.7252  0.8768
 6381TIP3    H240635   1.817   1.275  11.668  1.3989  0.5073  0.2301
 6382TIP3   OH240636   2.859   0.335  13.738  0.1061  0.3192  0.5055
 6382TIP3    H140637   2.881   0.324  13.646 -0.3928 -0.0773  0.4303
 6382TIP3    H240638   2.933   0.382  13.776 -0.1303  1.3538 -0.3088
 6383TIP3   OH240639   4.059   0.785   2.429 -0.0557 -0.1875  0.3777
 6383TIP3    H140640   3.981   0.794   2.374  0.5405 -0.2213 -0.4824
 6383TIP3    H240641   4.026   0.789   2.519 -1.0984 -0.6320  0.0181
 6384TIP3   OH240642   3.969   5.140   4.247  0.5598 -0.2675 -0.2760
 6384TIP3    H140643   4.035   5.127   4.314  0.8486 -2.0504 -0.8915
 6384TIP3    H240644   3.948   5.233   4.252 -0.0166 -0.5188  2.8267
 6385TIP3   OH240645   2.918   2.067   3.485 -0.3438  0.1700  0.0979
 6385TIP3    H140646   2.946   2.158   3.472 -1.1478  0.2257 -1.5143
 6385TIP3    H240647   2.842   2.058   3.426 -1.2835 -1.0636  1.4730
 6386TIP3   OH240648   3.702   3.079   4.005 -0.3083  0.0586  0.2982
 6386TIP3    H140649   3.617   3.064   4.047 -0.2622  2.5742  1.4037
 6386TIP3    H240650   3.764   3.081   4.078  0.4908 -0.3201 -0.3641
 6387TIP3   OH240651   2.188   0.334   4.673  0.1753  0.0062 -0.1671
 6387TIP3    H140652   2.187   0.285   4.755  0.4641 -0.5550 -0.4943
 6387TIP3    H240653   2.248   0.406   4.689 -1.2493  1.0072  0.7393
 6388TIP3   OH240654   5.445   5.502  10.486  0.2601  0.1158  0.0090
 6388TIP3    H140655   5.407   5.426  10.530  1.4740 -0.5673 -0.0833
 6388TIP3    H240656   5.425   5.576  10.543 -0.3547 -0.3801  0.4405
 6389TIP3   OH240657   6.012   6.126   1.773  0.2847 -0.3117  0.1560
 6389TIP3    H140658   6.058   6.052   1.813 -0.7071  0.2766  2.4765
 6389TIP3    H240659   5.953   6.086   1.710  2.1549 -1.2466 -1.0461
 6390TIP3   OH240660   2.018   1.567   2.061  0.0477 -0.3983  0.5507
 6390TIP3    H140661   1.925   1.584   2.044 -0.0450 -0.9292  0.4977
 6390TIP3    H240662   2.018   1.483   2.107  0.6833 -1.7578 -1.8379
 6391TIP3   OH240663   1.787   1.177   5.132  0.4277 -0.2045 -0.5452
 6391TIP3    H140664   1.769   1.103   5.189  1.6334  1.2183  1.7384
 6391TIP3    H240665   1.845   1.142   5.064  0.8931 -1.3671  0.4373
 6392TIP3   OH240666   4.639   0.615  13.193  0.3413 -0.3710 -0.0860
 6392TIP3    H140667   4.659   0.654  13.278 -0.3938  2.6407 -1.2118
 6392TIP3    H240668   4.621   0.523  13.212 -2.2879  0.7379  3.3711
 6393TIP3   OH240669   5.895   3.391  14.948 -0.0930 -0.3480  0.4230
 6393TIP3    H140670   5.882   3.332  14.873 -2.2511  0.5005  0.0901
 6393TIP3    H240671   5.852   3.345  15.021  0.0239 -0.1393  0.6192
 6394TIP3   OH240672   3.697   0.560  13.210  0.0624 -0.0083 -0.1618
 6394TIP3    H140673   3.633   0.493  13.187  0.4978 -0.8599  1.0323
 6394TIP3    H240674   3.702   0.557  13.306  2.4065 -0.4564 -0.2556
 6395TIP3   OH240675   0.371   1.650   0.850 -0.6953  0.1591 -0.0604
 6395TIP3    H140676   0.419   1.726   0.885 -0.2983 -0.9916  1.9637
 6395TIP3    H240677   0.282   1.682   0.838 -0.0093  1.6179 -1.5080
 6396TIP3   OH240678   6.435   3.803   2.766  0.3740 -0.6001  0.5633
 6396TIP3    H140679   6.512   3.769   2.811  0.5461 -0.3514  0.4599
 6396TIP3    H240680   6.379   3.837   2.836 -0.6711 -2.8042  0.8405
 6397TIP3   OH240681   5.361   0.874  16.728  0.0627  0.1653  0.5721
 6397TIP3    H140682   5.355   0.941  16.660  3.4659 -0.5098 -0.5040
 6397TIP3    H240683   5.344   0.921  16.810 -1.5032  1.5106 -0.5102
 6398TIP3   OH240684   1.888   5.734  17.125  0.4298 -0.4724 -0.1795
 6398TIP3    H140685   1.800   5.719  17.090  1.3130 -0.0583 -2.6476
 6398TIP3    H240686   1.942   5.668  17.082  1.3535 -0.6390  1.2387
 6399TIP3   OH240687   0.503   3.684   5.619 -0.0348  0.0881 -0.1864
 6399TIP3    H140688   0.485   3.645   5.704  0.6305  0.4578  0.1310
 6399TIP3    H240689   0.417   3.712   5.587 -0.1490  1.0560  0.9178
 6400TIP3   OH240690   1.756   5.498   3.118  0.4268 -0.5057 -0.1300
 6400TIP3    H140691   1.807   5.541   3.187  1.8118 -2.3736  0.0477
 6400TIP3    H240692   1.666   5.524   3.136  1.2717  2.8465 -0.4574
 6401TIP3   OH240693   5.373   5.000   0.393 -0.1176 -0.6471 -0.1956
 6401TIP3    H140694   5.447   4.960   0.440  0.4485  0.4065 -0.1715
 6401TIP3    H240695   5.397   5.092   0.385  0.1575 -0.9623 -3.2948
 6402TIP3   OH240696   0.697   6.468  16.752  0.1403 -0.2276  0.2959
 6402TIP3    H140697   0.782   6.427  16.734  0.2813  0.5544 -0.9092
 6402TIP3    H240698   0.699   6.550  16.703 -1.0663  0.0986  0.7705
 6403TIP3   OH240699   0.441   1.398   6.218  0.2388  0.4315  0.2278
 6403TIP3    H140700   0.355   1.420   6.181  0.4571  1.1026  0.1072
 6403TIP3    H240701   0.470   1.479   6.260  0.0648 -0.2790  1.7385
 6404TIP3   OH240702   6.230   4.370   0.217  0.0619  0.5334 -0.0814
 6404TIP3    H140703   6.318   4.407   0.216  0.2777  0.0120 -0.3090
 6404TIP3    H240704   6.230   4.309   0.291  0.5161 -0.9628 -1.2892
 6405TIP3   OH240705   3.296   5.644  15.210 -0.2816  0.5805 -0.9357
 6405TIP3    H140706   3.332   5.597  15.286 -1.8798  0.4557 -0.2340
 6405TIP3    H240707   3.229   5.701  15.247 -1.2169  0.3667 -2.2861
 6406TIP3   OH240708   3.659   1.107  11.050 -0.1253 -0.5009 -0.1386
 6406TIP3    H140709   3.682   1.092  10.958 -0.2777  2.4529 -0.7263
 6406TIP3    H240710   3.615   1.027  11.078  2.2945 -2.4853 -1.8461
 6407TIP3   OH240711   1.033   2.341  13.906 -0.3170  0.5790 -0.3711
 6407TIP3    H140712   1.106   2.321  13.847 -1.0124 -1.4169 -0.5742
 6407TIP3    H240713   0.972   2.268  13.894 -1.9430  1.7845  0.4530
 6408TIP3   OH240714   1.433   3.686  12.294  0.1888  0.0134  0.1999
 6408TIP3    H140715   1.432   3.664  12.200 -0.1749 -0.1881  0.2516
 6408TIP3    H240716   1.516   3.733  12.306  0.1438  0.2160 -0.2621
 6409TIP3   OH240717   3.466   1.723   4.877  0.1362  0.3311 -0.4207
 6409TIP3    H140718   3.372   1.739   4.874  0.3109  1.5679  0.3084
 6409TIP3    H240719   3.484   1.700   4.968  0.3136 -1.4484 -0.8861
 6410TIP3   OH240720   3.129   0.493   1.850  0.8290 -0.1022  0.4222
 6410TIP3    H140721   3.207   0.522   1.897  1.0781 -1.7153  1.0392
 6410TIP3    H240722   3.056   0.534   1.895  1.1996 -0.0897  1.0066
 6411TIP3   OH240723   4.070   4.310   0.906  0.1174 -0.4836  0.4810
 6411TIP3    H140724   4.132   4.254   0.952  0.4379 -0.4333  0.1149
 6411TIP3    H240725   4.002   4.328   0.970 -0.4134 -1.9618  0.3444
 6412TIP3   OH240726   2.618   3.312   4.750  0.0570 -0.3050 -0.0959
 6412TIP3    H140727   2.581   3.293   4.663 -1.9264 -0.4236  0.7439
 6412TIP3    H240728   2.702   3.267   4.750 -0.9703 -2.3110 -1.1295
 6413TIP3   OH240729   5.861   3.026   1.922 -0.1592  0.1480  0.4769
 6413TIP3    H140730   5.916   3.075   1.861 -3.5999  1.0360 -2.0657
 6413TIP3    H240731   5.884   2.934   1.907 -0.3739  0.4214 -1.5898
 6414TIP3   OH240732   1.233   0.348   1.125 -0.3825 -0.0230  0.7074
 6414TIP3    H140733   1.166   0.304   1.073  0.0712  1.5353 -1.2398
 6414TIP3    H240734   1.187   0.418   1.171 -0.5423 -0.5601  1.3704
 6415TIP3   OH240735   2.454   3.978  11.581 -0.5897 -0.4332 -0.0583
 6415TIP3    H140736   2.366   4.001  11.611  0.1846 -1.2199  3.0450
 6415TIP3    H240737   2.440   3.930  11.500 -2.9794  0.0311  0.0370
 6416TIP3   OH240738   2.332   6.062   3.599 -0.0906  0.6252 -0.0328
 6416TIP3    H140739   2.272   6.120   3.552 -0.0123 -0.1393 -1.0924
 6416TIP3    H240740   2.369   6.006   3.531 -0.4856 -0.9580  1.0418
 6417TIP3   OH240741   2.157   1.789  12.545  0.1703 -0.4255 -0.3056
 6417TIP3    H140742   2.233   1.838  12.577 -0.2232  0.8445 -1.2908
 6417TIP3    H240743   2.181   1.698  12.557  0.6868 -0.0169  2.1118
 6418TIP3   OH240744   6.027   5.655   4.462  0.4336  0.1839  0.3948
 6418TIP3    H140745   5.954   5.716   4.452  1.6606  1.6199 -0.0125
 6418TIP3    H240746   5.990   5.581   4.510 -0.8545  1.6580  1.7288
 6419TIP3   OH240747   5.486   2.240  13.568 -0.4456 -0.8490 -0.2027
 6419TIP3    H140748   5.406   2.289  13.550 -0.8551 -0.6370  2.0370
 6419TIP3    H240749   5.553   2.306  13.581 -0.4064 -0.9464  0.1055
 6420TIP3   OH240750   2.873   1.158  13.991 -0.2280  0.5156 -0.1980
 6420TIP3    H140751   2.801   1.207  14.030 -0.4986  0.0557 -0.1191
 6420TIP3    H240752   2.929   1.225  13.952 -0.2158  0.9378  0.5493
 6421TIP3   OH240753   4.721   1.515   2.692 -0.4050  0.1012 -0.1374
 6421TIP3    H140754   4.815   1.495   2.687 -0.4245  0.0092 -0.1395
 6421TIP3    H240755   4.700   1.551   2.606 -0.6411 -1.0362 -0.5659
 6422TIP3   OH240756   2.410   3.046   0.852  0.4861 -0.2918  0.1186
 6422TIP3    H140757   2.497   3.019   0.823  0.3213  0.0767 -0.7510
 6422TIP3    H240758   2.412   3.142   0.848  1.4807 -0.0565  4.3752
 6423TIP3   OH240759   3.401   4.136   3.164 -0.5121  0.2822 -0.4101
 6423TIP3    H140760   3.379   4.047   3.190  1.5868 -0.5772 -1.4703
 6423TIP3    H240761   3.376   4.141   3.072 -0.3512  0.6876 -0.4326
 6424TIP3   OH240762   3.442   5.453   3.268  0.1124 -0.1615 -0.0641
 6424TIP3    H140763   3.401   5.516   3.209 -0.1585 -0.5253 -0.2636
 6424TIP3    H240764   3.531   5.488   3.281 -0.8375  1.5977  1.8510
 6425TIP3   OH240765   2.285   0.581  12.841 -0.6593 -0.0697  0.0880
 6425TIP3    H140766   2.300   0.589  12.747 -1.7034  1.3210  0.0122
 6425TIP3    H240767   2.197   0.543  12.848  0.2048 -2.0602  0.5170
 6426TIP3   OH240768   6.109   2.015   5.080 -0.0298 -0.0508  0.2591
 6426TIP3    H140769   6.078   1.933   5.041 -1.9998  0.4843  0.6767
 6426TIP3    H240770   6.182   2.042   5.023 -0.5261 -1.1498 -0.9311
 6427TIP3   OH240771   4.037   0.066   2.976  0.0623  0.3227  0.4542
 6427TIP3    H140772   3.972   0.135   2.989 -0.0453  0.2889  0.0930
 6427TIP3    H240773   3.997   0.007   2.912 -1.4257 -2.0262  3.3574
 6428TIP3   OH240774   0.671   2.739  11.390 -0.5353  0.0954 -0.4060
 6428TIP3    H140775   0.738   2.727  11.457  1.3779  0.9060 -2.1036
 6428TIP3    H240776   0.634   2.825  11.409 -1.1406 -0.3781  0.5735
 6429TIP3   OH240777   1.090   3.189   0.493 -0.2978 -0.0844  0.6237
 6429TIP3    H140778   1.072   3.275   0.456  1.2492 -0.0394 -0.0557
 6429TIP3    H240779   1.037   3.129   0.440  0.1659  0.2370 -0.2234
 6430TIP3   OH240780   3.396   2.704  10.340 -0.3862 -0.0654  0.2165
 6430TIP3    H140781   3.371   2.637  10.404 -0.6312 -0.3210 -0.1420
 6430TIP3    H240782   3.315   2.753  10.324 -0.3294 -0.0122  0.0939
 6431TIP3   OH240783   5.375   4.858   3.627 -0.1044  0.1374 -0.3671
 6431TIP3    H140784   5.421   4.840   3.545  0.1518 -0.9427  0.0079
 6431TIP3    H240785   5.283   4.861   3.602  0.0412  0.6692 -0.8410
 6432TIP3   OH240786   5.541   2.820   3.161  0.0070  0.1550  0.4443
 6432TIP3    H140787   5.631   2.823   3.131 -0.0787  2.5677  0.3354
 6432TIP3    H240788   5.512   2.731   3.142  2.6118 -0.8822  1.2612
 6433TIP3   OH240789   4.983   4.086  14.261  0.4610  0.4123 -0.1332
 6433TIP3    H140790   5.039   4.158  14.235  1.4256 -0.7445 -1.3097
 6433TIP3    H240791   4.957   4.044  14.179  0.9129 -1.3283  0.5857
 6434TIP3   OH240792   5.133   5.635  17.030 -0.2892  0.2559  1.3275
 6434TIP3    H140793   5.118   5.653  16.937 -1.0257  0.4071  1.4657
 6434TIP3    H240794   5.219   5.672  17.049  0.0324 -0.1247  0.6147
 6435TIP3   OH240795   5.036   5.110   1.036 -0.4296  0.1076 -0.0164
 6435TIP3    H140796   5.004   5.177   0.976 -0.6934  0.1447  0.1648
 6435TIP3    H240797   5.088   5.158   1.100 -1.3570  0.2561  0.6325
 6436TIP3   OH240798   0.477   1.708  15.959  0.7070 -0.1871  0.7869
 6436TIP3    H140799   0.499   1.753  15.878  0.5232 -0.8555  0.3589
 6436TIP3    H240800   0.534   1.748  16.025 -1.0003  2.1910  0.8864
 6437TIP3   OH240801   6.089   3.773   0.823  0.0003  0.5954  0.4000
 6437TIP3    H140802   6.122   3.859   0.849 -0.3962  0.8122  0.1850
 6437TIP3    H240803   6.142   3.749   0.747 -0.1823  0.8448  0.1922
 6438TIP3   OH240804   5.173   0.458   2.108  0.0236 -0.2794 -0.0990
 6438TIP3    H140805   5.093   0.407   2.119 -0.3044  0.0169 -1.0144
 6438TIP3    H240806   5.241   0.394   2.089 -0.2983 -0.4211 -0.7982
 6439TIP3   OH240807   6.162   1.820   1.580 -0.3800 -0.2055  0.8063
 6439TIP3    H140808   6.166   1.727   1.556 -1.0105 -0.4645  1.6984
 6439TIP3    H240809   6.085   1.853   1.532 -0.1531 -0.1393  0.4855
 6440TIP3   OH240810   0.055   2.961   0.563  0.4271 -0.7741 -0.1232
 6440TIP3    H140811   0.143   2.923   0.559 -0.1930 -2.2496  0.0034
 6440TIP3    H240812   0.020   2.932   0.647  0.2002  0.6822  0.2938
 6441TIP3   OH240813   5.560   1.554   5.870 -0.0652  0.4153  0.2474
 6441TIP3    H140814   5.614   1.499   5.813 -1.0533 -0.9858  0.6089
 6441TIP3    H240815   5.595   1.642   5.860  0.9264 -0.1197 -1.1309
 6442TIP3   OH240816   4.560   0.810   5.816  0.4298  0.0824  0.3166
 6442TIP3    H140817   4.572   0.788   5.724 -1.7568 -1.7423  0.4105
 6442TIP3    H240818   4.648   0.821   5.851  1.2637  1.0448 -2.0485
 6443TIP3   OH240819   3.193   3.772   4.764  0.1147  0.4128  0.3563
 6443TIP3    H140820   3.228   3.790   4.851  1.5588 -1.5143  0.2151
 6443TIP3    H240821   3.178   3.677   4.764 -0.2063  0.4546 -1.3783
 6444TIP3   OH240822   5.990   3.570   2.338 -0.6333 -0.1494 -0.8391
 6444TIP3    H140823   6.023   3.660   2.338  0.1083 -0.4084 -2.4171
 6444TIP3    H240824   6.068   3.515   2.343 -1.0547 -0.7165 -0.4582
 6445TIP3   OH240825   3.931   3.150  17.027 -0.1779 -0.5156 -0.0457
 6445TIP3    H140826   3.917   3.136  16.934 -1.9171 -2.1246  0.4143
 6445TIP3    H240827   3.955   3.242  17.035 -1.2895 -0.0491 -1.9341
 6446TIP3   OH240828   6.285   1.852   6.407 -0.2730 -0.1113 -0.8004
 6446TIP3    H140829   6.205   1.900   6.427  0.0393 -0.1247  0.5396
 6446TIP3    H240830   6.347   1.919   6.377  0.4872  0.5227  2.0221
 6447TIP3   OH240831   3.266   4.161  14.543 -0.3809 -0.2484 -0.7179
 6447TIP3    H140832   3.228   4.107  14.474  0.8307  0.6840 -2.1496
 6447TIP3    H240833   3.272   4.248  14.504 -0.3534  0.4585  0.8326
 6448TIP3   OH240834   1.141   3.096  13.530 -0.3543  0.6779  0.3832
 6448TIP3    H140835   1.068   3.043  13.497 -1.4342  0.4916  2.8887
 6448TIP3    H240836   1.209   3.032  13.551 -0.2331  0.6547 -0.0733
 6449TIP3   OH240837   2.067   6.329   0.592 -0.1033 -0.2020 -0.7150
 6449TIP3    H140838   2.031   6.288   0.514 -1.3404 -1.2418  0.3634
 6449TIP3    H240839   2.053   6.423   0.579  0.0581 -0.3323 -1.8920
 6450TIP3   OH240840   6.029   3.469   6.191 -0.1707 -0.2595  0.1554
 6450TIP3    H140841   5.976   3.405   6.239  1.5081  0.0834  2.5283
 6450TIP3    H240842   6.026   3.548   6.245  1.2152  0.3491 -0.6409
 6451TIP3   OH240843   2.387   3.201   2.655 -0.0400 -0.7142  0.3559
 6451TIP3    H140844   2.357   3.260   2.586 -0.5207 -0.5702  0.6894
 6451TIP3    H240845   2.340   3.228   2.733  2.0802  0.5175  1.2652
 6452TIP3   OH240846   5.068   5.699  13.644 -0.2768 -1.0043 -0.3900
 6452TIP3    H140847   5.153   5.736  13.623 -0.1442 -1.5044 -0.7460
 6452TIP3    H240848   5.079   5.658  13.730 -1.1114  1.9995  1.2272
 6453TIP3   OH240849   5.815   1.944   1.658 -0.2462  0.0107  0.1381
 6453TIP3    H140850   5.826   1.987   1.573  1.2646 -0.3045  0.1695
 6453TIP3    H240851   5.886   1.978   1.712 -0.4314 -0.7612  0.8810
 6454TIP3   OH240852   2.221   5.266  12.329  0.4946 -0.5641 -0.1258
 6454TIP3    H140853   2.228   5.344  12.384 -1.2873 -2.0391  2.3008
 6454TIP3    H240854   2.285   5.280  12.259  0.7038  2.7313  0.6422
 6455TIP3   OH240855   5.553   3.973   5.160  0.3554 -0.3784 -0.3448
 6455TIP3    H140856   5.631   3.995   5.211  1.3709  0.3052 -2.1156
 6455TIP3    H240857   5.496   3.927   5.221  2.0219 -0.6202  1.0710
 6456TIP3   OH240858   2.363   0.182  15.659 -0.2354 -0.0502 -0.8781
 6456TIP3    H140859   2.438   0.161  15.714 -0.4089 -0.8259 -0.9272
 6456TIP3    H240860   2.310   0.241  15.713 -0.1101 -0.3348 -0.4383
 6457TIP3   OH240861   1.802   2.247   1.566  0.2538  0.6406  0.0963
 6457TIP3    H140862   1.730   2.278   1.510  0.3891  0.7343 -0.0250
 6457TIP3    H240863   1.874   2.229   1.506 -0.2979 -1.3458 -0.0152
 6458TIP3   OH240864   1.098   6.752  12.740  0.0596  0.1053  0.0429
 6458TIP3    H140865   1.034   6.801  12.689 -2.0416 -2.7060 -0.1475
 6458TIP3    H240866   1.117   6.808  12.815 -0.2187  2.3403 -1.5033
 6459TIP3   OH240867   0.839   4.099  11.255  0.5543 -0.4608  0.1006
 6459TIP3    H140868   0.824   4.060  11.169  0.5512 -1.1653  0.4139
 6459TIP3    H240869   0.752   4.112  11.291  0.5685 -0.8725  0.2985
 6460TIP3   OH240870   1.428   0.657   1.736  0.2545 -0.5637  0.6965
 6460TIP3    H140871   1.376   0.584   1.702 -0.3201  0.2785 -0.2622
 6460TIP3    H240872   1.400   0.666   1.827 -0.3948 -0.9016  0.5340
 6461TIP3   OH240873   0.293   6.661   3.892  0.3152  0.1683  0.4607
 6461TIP3    H140874   0.266   6.572   3.915  1.0748 -0.0331  0.6009
 6461TIP3    H240875   0.256   6.716   3.962 -1.7848  0.2177 -0.6672
 6462TIP3   OH240876   0.839   2.984  11.456 -0.0250 -0.7448 -0.4956
 6462TIP3    H140877   0.923   2.948  11.485  0.1880 -0.9938 -1.4239
 6462TIP3    H240878   0.844   2.984  11.361 -0.1934  1.3682 -0.5193
 6463TIP3   OH240879   0.868   0.382   2.201 -0.6256 -0.0766  0.1747
 6463TIP3    H140880   0.792   0.426   2.240  0.4318  1.1010  0.9364
 6463TIP3    H240881   0.937   0.389   2.267 -0.1132 -1.9538 -0.1304
 6464TIP3   OH240882   5.546   3.997  12.008 -0.0140  0.0840 -0.4361
 6464TIP3    H140883   5.587   3.916  12.039  0.2945  0.8226  1.1228
 6464TIP3    H240884   5.503   4.034  12.085 -1.1998  0.7886 -1.4091
 6465TIP3   OH240885   5.729   6.782  14.917  0.3182  0.0619  0.1280
 6465TIP3    H140886   5.714   6.731  14.837 -0.4914 -0.3913  0.5640
 6465TIP3    H240887   5.738   6.872  14.887  0.5732 -0.1835 -0.5334
 6466TIP3   OH240888   2.113   3.344  16.807  0.5775  0.0901  0.4464
 6466TIP3    H140889   2.184   3.294  16.848  0.2152 -0.3827  0.4967
 6466TIP3    H240890   2.136   3.346  16.714 -0.0946 -1.3290  0.2304
 6467TIP3   OH240891   1.502   0.938  11.787  0.1196 -0.2798 -0.6209
 6467TIP3    H140892   1.566   0.871  11.810  0.7583  0.5547  0.0209
 6467TIP3    H240893   1.429   0.924  11.848  0.2909 -0.3270 -0.4300
 6468TIP3   OH240894   6.719   6.475  14.331 -0.0081  1.1251  0.3629
 6468TIP3    H140895   6.642   6.505  14.282  0.2395  2.3689  0.7180
 6468TIP3    H240896   6.726   6.536  14.403  0.7222  0.3924  0.9208
 6469TIP3   OH240897   4.252   0.016   5.860 -0.2024  0.3913  0.1218
 6469TIP3    H140898   4.272  -0.076   5.877 -1.2942 -0.1470 -1.4454
 6469TIP3    H240899   4.270   0.060   5.944 -1.4381 -1.5218  1.4257
 6470TIP3   OH240900   1.066   5.093   4.172 -0.3389 -0.1633 -0.6830
 6470TIP3    H140901   1.136   5.140   4.126 -0.2867  0.7627  0.3104
 6470TIP3    H240902   1.015   5.052   4.103 -0.0880  0.9609 -1.5580
 6471TIP3   OH240903   6.305   0.340  12.655  0.1724 -0.3484  0.3325
 6471TIP3    H140904   6.397   0.351  12.680 -0.0423  0.5294  0.7868
 6471TIP3    H240905   6.278   0.260  12.699  1.1015 -1.3829 -0.9540
 6472TIP3   OH240906   5.547   6.533  15.251 -0.4681 -0.3029  0.1907
 6472TIP3    H140907   5.482   6.543  15.182  2.5524 -0.2402 -2.7947
 6472TIP3    H240908   5.532   6.607  15.310 -3.1812 -0.4286 -0.2743
 6473TIP3   OH240909   6.700   1.557   5.488 -0.1079  0.1582 -0.0708
 6473TIP3    H140910   6.659   1.585   5.406  0.6224  0.9228 -0.1917
 6473TIP3    H240911   6.749   1.634   5.517 -3.6287  1.3068  3.2347
 6474TIP3   OH240912   5.053   4.215  16.653  0.1597 -0.1712 -0.7806
 6474TIP3    H140913   5.005   4.166  16.719 -0.3996 -2.9413 -3.1504
 6474TIP3    H240914   4.995   4.289  16.631 -0.5970 -0.4537  0.2091
 6475TIP3   OH240915   3.709   1.556   4.135  0.6531  0.2262 -0.2375
 6475TIP3    H140916   3.762   1.578   4.212  1.0803 -1.0636 -0.1385
 6475TIP3    H240917   3.657   1.481   4.164  1.0696 -0.4864 -1.3085
 6476TIP3   OH240918   1.557   6.116   3.356  0.5547  0.2711 -0.0807
 6476TIP3    H140919   1.602   6.054   3.300  1.5100  0.5522  0.3616
 6476TIP3    H240920   1.547   6.195   3.303  2.2657  0.8480  0.4222
 6477TIP3   OH240921   1.158   0.812  15.119 -0.9671  0.2820 -0.0501
 6477TIP3    H140922   1.077   0.782  15.079 -1.0207 -0.0123  0.2760
 6477TIP3    H240923   1.131   0.853  15.201 -0.6484 -1.2402  0.8238
 6478TIP3   OH240924   6.128   0.306   0.874 -0.0891  0.0857 -0.4850
 6478TIP3    H140925   6.103   0.372   0.938 -1.5432  2.5595 -3.4635
 6478TIP3    H240926   6.222   0.295   0.886 -0.1394  1.3403  1.2737
 6479TIP3   OH240927   3.328   4.582   4.438  0.3388 -0.7284  0.2805
 6479TIP3    H140928   3.362   4.664   4.475 -0.8719 -0.3210  0.5353
 6479TIP3    H240929   3.402   4.544   4.390  0.9834  0.3953  0.3666
 6480TIP3   OH240930   6.075   1.584   2.155 -0.3363  0.4900 -0.8311
 6480TIP3    H140931   6.098   1.491   2.150 -1.9589  0.0550 -0.5966
 6480TIP3    H240932   6.119   1.615   2.234 -0.3447 -0.2518 -0.5274
 6481TIP3   OH240933   5.126   1.372   4.765 -0.4177  0.1865  0.5998
 6481TIP3    H140934   5.216   1.351   4.791 -0.0381 -1.2948 -1.7388
 6481TIP3    H240935   5.130   1.465   4.742  0.9523 -0.2326 -1.0334
 6482TIP3   OH240936   4.268   0.010   6.463  0.3069 -0.5465  0.3017
 6482TIP3    H140937   4.236   0.101   6.468 -0.5266 -0.7768 -0.7876
 6482TIP3    H240938   4.209  -0.039   6.521  0.5240 -0.4687  0.5929
 6483TIP3   OH240939   5.316   1.983   2.018  0.7161 -0.8314  0.6913
 6483TIP3    H140940   5.303   1.934   1.937 -0.4422 -1.3959  1.1928
 6483TIP3    H240941   5.383   1.933   2.065  1.7025 -0.2587 -0.1016
 6484TIP3   OH240942   4.452   2.899  11.159 -0.3760 -0.0499 -0.1426
 6484TIP3    H140943   4.493   2.883  11.074  2.4509 -0.1316  1.1742
 6484TIP3    H240944   4.468   2.818  11.208  2.0582  1.6240  1.9636
 6485TIP3   OH240945   2.998   1.282   5.170  0.9812 -0.0268  0.4964
 6485TIP3    H140946   3.059   1.314   5.104 -0.0272  1.8586  0.4716
 6485TIP3    H240947   2.945   1.216   5.124  1.6137 -0.1789 -0.0204
 6486TIP3   OH240948   0.968   3.456   2.677  0.1387  0.2249 -0.0708
 6486TIP3    H140949   0.959   3.442   2.583 -0.0166 -0.5190  0.0494
 6486TIP3    H240950   0.898   3.517   2.699  0.2961  0.5536 -0.4651
 6487TIP3   OH240951   5.929   0.941  17.158 -0.4011  0.1627 -0.2807
 6487TIP3    H140952   5.909   1.025  17.198  0.1128 -0.2231  0.7975
 6487TIP3    H240953   5.889   0.876  17.216  0.4166 -0.4017 -0.3326
 6488TIP3   OH240954   5.584   0.309  16.841  0.2175  0.6099  0.7843
 6488TIP3    H140955   5.493   0.326  16.865  0.1031 -0.7974  1.3685
 6488TIP3    H240956   5.586   0.217  16.816  1.5053  0.6021  0.8725
 6489TIP3   OH240957   6.344   5.523   5.486 -0.5450 -0.7887  0.0247
 6489TIP3    H140958   6.373   5.454   5.546 -2.3943 -1.6845 -0.0479
 6489TIP3    H240959   6.270   5.563   5.531 -0.5891 -0.0376 -0.7204
 6490TIP3   OH240960   4.935   1.535  15.658 -0.3345  0.5314 -0.1098
 6490TIP3    H140961   5.027   1.538  15.684 -0.6260 -1.3292  1.2577
 6490TIP3    H240962   4.889   1.585  15.726 -0.7319 -1.6819  1.3056
 6491TIP3   OH240963   6.244   6.103  14.179  0.0501 -0.3793  0.3045
 6491TIP3    H140964   6.313   6.155  14.138 -2.1318  2.9481  0.5999
 6491TIP3    H240965   6.168   6.114  14.121 -1.0164 -1.6072  1.4438
 6492TIP3   OH240966   6.468   4.955  11.547  0.8971 -0.1949 -0.2172
 6492TIP3    H140967   6.460   4.862  11.567 -0.5576 -0.0208  0.0641
 6492TIP3    H240968   6.390   4.975  11.495  0.5819  1.1138  0.7262
 6493TIP3   OH240969   1.983   3.358  12.613  0.6282 -0.0773 -0.3042
 6493TIP3    H140970   1.955   3.448  12.632  0.4158 -0.0166 -0.9106
 6493TIP3    H240971   2.077   3.358  12.632  1.0548  0.8273 -2.2646
 6494TIP3   OH240972   5.932   3.928  14.082 -0.3882  0.3094  0.4423
 6494TIP3    H140973   5.929   3.837  14.112  3.3783  0.5614  1.7232
 6494TIP3    H240974   5.983   3.926  14.001  0.9589  1.4697  1.2415
 6495TIP3   OH240975   3.877   5.329   3.145  0.3861  0.2409 -0.4991
 6495TIP3    H140976   3.973   5.322   3.148  0.4766  0.4341 -2.5839
 6495TIP3    H240977   3.847   5.273   3.217  2.0813  0.7240  0.6184
 6496TIP3   OH240978   5.514   1.382  16.194 -0.1958 -0.6722  0.0195
 6496TIP3    H140979   5.571   1.388  16.271  0.6932 -2.2154 -0.5042
 6496TIP3    H240980   5.465   1.464  16.194 -0.6694 -0.9068  2.6088
 6497TIP3   OH240981   6.009   6.138  13.695 -0.2077  0.1346 -0.2840
 6497TIP3    H140982   5.952   6.162  13.622 -0.4058 -1.6032 -0.7228
 6497TIP3    H240983   5.953   6.146  13.773 -0.8623 -0.8624 -0.6420
 6498TIP3   OH240984   0.570   2.335   4.266 -0.1949  0.0642 -0.1109
 6498TIP3    H140985   0.555   2.293   4.182  0.7611 -0.6494  0.0696
 6498TIP3    H240986   0.655   2.377   4.257  0.8748 -1.7678  1.1884
 6499TIP3   OH240987   0.413   4.289  13.430 -0.7344  0.3674  0.0841
 6499TIP3    H140988   0.383   4.372  13.392  0.3830  0.5513 -0.4146
 6499TIP3    H240989   0.384   4.293  13.522 -4.2368 -0.4794 -0.9330
 6500TIP3   OH240990   4.627   0.947   4.134  0.2302 -0.2419 -0.1133
 6500TIP3    H140991   4.606   0.865   4.090 -2.1055  1.4291 -2.2085
 6500TIP3    H240992   4.656   1.005   4.064 -0.3064  1.4354  1.0294
 6501TIP3   OH240993   5.496   2.782  16.907  0.4969 -0.2032 -0.5532
 6501TIP3    H140994   5.574   2.761  16.855  2.5864  0.6325  2.1182
 6501TIP3    H240995   5.512   2.741  16.992 -0.4421  2.6810  1.0929
 6502TIP3   OH240996   0.507   6.159   0.232 -0.0866  0.3692 -0.5391
 6502TIP3    H140997   0.475   6.237   0.277 -2.4884 -0.0398 -1.4941
 6502TIP3    H240998   0.478   6.169   0.141  1.2923 -0.7096 -1.1323
 6503TIP3   OH240999   1.176   2.628  13.055 -0.0837  0.0017  0.2670
 6503TIP3    H141000   1.144   2.718  13.062  0.6595  0.0676  3.3313
 6503TIP3    H241001   1.162   2.605  12.963 -0.2885  3.2269 -0.5662
 6504TIP3   OH241002   5.381   4.847  15.611  0.1747 -0.0208 -0.3885
 6504TIP3    H141003   5.433   4.820  15.687  1.5899  0.7662 -1.0613
 6504TIP3    H241004   5.302   4.793  15.616  0.9168 -1.0300  0.8120
 6505TIP3   OH241005   2.718   4.855  13.552 -0.2115 -0.7665 -0.3188
 6505TIP3    H141006   2.795   4.905  13.526 -0.8170  1.5171  2.0861
 6505TIP3    H241007   2.733   4.833  13.643 -2.5629  0.1149  0.3371
 6506TIP3   OH241008   1.546   5.899   5.202 -0.3215  0.4058 -0.0784
 6506TIP3    H141009   1.569   5.990   5.222 -0.5943  0.0467  1.9196
 6506TIP3    H241010   1.590   5.882   5.119  1.2090  1.8012  0.4085
 6507TIP3   OH241011   1.944   5.168  15.280  0.8626  0.2288 -0.6904
 6507TIP3    H141012   1.893   5.186  15.201  1.8169  4.4949 -0.4553
 6507TIP3    H241013   2.033   5.157  15.250  0.8454 -0.5699 -0.4510
 6508TIP3   OH241014   6.115   5.018   2.058  0.0061 -0.0161 -0.1495
 6508TIP3    H141015   6.180   4.948   2.067 -0.1079 -0.1727 -0.5265
 6508TIP3    H241016   6.034   4.980   2.091 -0.0206 -0.0088 -0.2073
 6509TIP3   OH241017   2.560   4.574  12.021  0.0091  0.4175  0.4594
 6509TIP3    H141018   2.648   4.561  12.055 -0.3396  0.0890  1.2509
 6509TIP3    H241019   2.540   4.666  12.040  0.2224  0.5260  0.1681
 6510TIP3   OH241020   2.065   5.033   0.956  0.4458  0.2038  0.0621
 6510TIP3    H141021   2.089   5.000   1.043 -0.7373  0.2350  0.4092
 6510TIP3    H241022   2.010   5.109   0.974 -1.0451 -0.6793 -0.7083
 6511TIP3   OH241023   1.709   6.265  14.516 -0.2553  0.1037  0.5605
 6511TIP3    H141024   1.655   6.193  14.482  0.5962  0.2801 -1.2343
 6511TIP3    H241025   1.789   6.262  14.463  0.1759  1.8091  1.0810
 6512TIP3   OH241026   4.909   3.002  11.935  0.2609  0.0726  0.3096
 6512TIP3    H141027   4.957   2.923  11.911  0.1407 -0.4735  1.7936
 6512TIP3    H241028   4.976   3.060  11.973  0.5841  1.2085 -1.8974
 6513TIP3   OH241029   1.805   4.922  16.192  0.3708 -0.2001 -0.1833
 6513TIP3    H141030   1.717   4.910  16.227 -0.3908  1.2875 -1.5461
 6513TIP3    H241031   1.818   5.017  16.189  2.1029 -0.4051  0.1978
 6514TIP3   OH241032   5.975   1.175   2.842 -0.5776  0.1169 -0.1270
 6514TIP3    H141033   6.053   1.133   2.878 -0.1029  0.3730 -0.8538
 6514TIP3    H241034   5.935   1.220   2.916 -0.7918 -1.1617  0.5464
 6515TIP3   OH241035   1.185   5.448  15.630 -1.1955  0.1123 -0.5976
 6515TIP3    H141036   1.120   5.401  15.682 -0.9819  0.3895 -0.0739
 6515TIP3    H241037   1.198   5.393  15.552 -1.6219 -0.2353 -0.4244
 6516TIP3   OH241038   3.174   5.866   1.697  0.1027 -0.1130 -0.4942
 6516TIP3    H141039   3.222   5.933   1.746 -1.6714  0.8523 -0.0403
 6516TIP3    H241040   3.149   5.909   1.615 -0.5585 -0.3727 -0.4349
 6517TIP3   OH241041   2.546   6.279   6.310 -0.1555  0.0153 -0.0648
 6517TIP3    H141042   2.635   6.295   6.280  0.2202 -0.5959  0.7147
 6517TIP3    H241043   2.493   6.342   6.261  0.5219 -0.4895 -1.4819
 6518TIP3   OH241044   4.707   0.327   3.281 -0.5117  0.1871 -0.0856
 6518TIP3    H141045   4.694   0.236   3.257  1.7050  0.1699 -1.3447
 6518TIP3    H241046   4.623   0.369   3.263 -0.3935 -0.8355 -3.2429
 6519TIP3   OH241047   2.749   3.100   2.997  0.2650  0.1807  0.3194
 6519TIP3    H141048   2.816   3.077   3.061 -1.9613  0.3306  2.7413
 6519TIP3    H241049   2.687   3.028   3.000 -0.3589  0.6490 -0.9869
 6520TIP3   OH241050   0.593   5.204  16.544 -0.2494 -0.0509  0.3214
 6520TIP3    H141051   0.678   5.161  16.553 -0.6903 -0.9648  0.2500
 6520TIP3    H241052   0.555   5.166  16.465 -1.0085 -0.1705  0.7381
 6521TIP3   OH241053   3.252   1.670  16.646  0.0580  0.0811  0.3117
 6521TIP3    H141054   3.166   1.665  16.688 -0.5583  0.9853 -0.8255
 6521TIP3    H241055   3.250   1.751  16.596  1.2959 -0.2795 -0.3437
 6522TIP3   OH241056   1.981   2.272   4.632  0.2001  0.1052 -0.2313
 6522TIP3    H141057   1.933   2.234   4.706 -0.2643 -0.3821 -0.7888
 6522TIP3    H241058   2.042   2.204   4.605  1.9239  1.0739  1.1122
 6523TIP3   OH241059   4.628   6.646   5.365 -0.1225  0.6529 -0.1216
 6523TIP3    H141060   4.676   6.709   5.311 -1.4605  3.1080  1.4769
 6523TIP3    H241061   4.695   6.610   5.424  0.3764  1.7866  0.0299
 6524TIP3   OH241062   6.318   5.098  15.261 -0.1045  0.1903  0.1849
 6524TIP3    H141063   6.317   5.020  15.316  0.1635  0.3871  0.4726
 6524TIP3    H241064   6.284   5.069  15.177  0.9604 -0.4791 -0.0276
 6525TIP3   OH241065   3.889   3.763  13.374 -0.6119  0.0615  0.4855
 6525TIP3    H141066   3.841   3.830  13.326  0.0634  0.6058  0.5665
 6525TIP3    H241067   3.909   3.696  13.308 -1.3950 -0.1333  0.4330
 6526TIP3   OH241068   4.913   1.313  17.183  0.2464 -0.2764  0.6618
 6526TIP3    H141069   4.856   1.304  17.259  0.7424 -1.7936  0.8773
 6526TIP3    H241070   4.966   1.233  17.183  1.1368  0.2877 -0.5466
 6527TIP3   OH241071   0.452   0.173  12.707  0.0556  0.0655  0.5078
 6527TIP3    H141072   0.523   0.237  12.702  0.1473  0.0014  1.0572
 6527TIP3    H241073   0.483   0.099  12.656  0.6243 -0.1978  1.2315
 6528TIP3   OH241074   4.809   4.097  16.177  0.7416  0.0275  0.3208
 6528TIP3    H141075   4.903   4.114  16.183  0.9561 -0.8924 -0.3490
 6528TIP3    H241076   4.771   4.150  16.247  1.9356 -0.9881  1.7769
 6529TIP3   OH241077   0.514   2.017  16.163  0.0790  0.1967  0.2304
 6529TIP3    H141078   0.602   2.035  16.130 -0.0317 -0.3022 -0.3356
 6529TIP3    H241079   0.480   2.103  16.189  1.1271  0.2645  1.4459
 6530TIP3   OH241080   4.413   3.508  11.336  0.1125  0.0987 -0.2361
 6530TIP3    H141081   4.387   3.599  11.351 -0.9896 -0.6030  2.2999
 6530TIP3    H241082   4.343   3.456  11.374  1.6613 -1.8088  0.1002
 6531TIP3   OH241083   3.922   0.427   1.698  0.4882 -0.5962  0.0664
 6531TIP3    H141084   3.965   0.463   1.621  2.2832  0.4210  1.4942
 6531TIP3    H241085   3.860   0.494   1.725  0.2686 -0.7091 -0.1567
 6532TIP3   OH241086   5.397   5.780   4.003  0.5400  0.5411 -0.6699
 6532TIP3    H141087   5.396   5.867   4.042  0.7240 -0.4971  1.7348
 6532TIP3    H241088   5.325   5.734   4.046  2.0461 -1.2736 -0.0217
 6533TIP3   OH241089   2.012   1.794   0.686  0.0088  0.0840  0.2337
 6533TIP3    H141090   1.959   1.861   0.641  2.2498  0.9274 -1.2396
 6533TIP3    H241091   2.102   1.816   0.663  0.8650 -2.7437  0.7498
 6534TIP3   OH241092   1.910   2.731   2.844  0.1341  0.0711 -0.3257
 6534TIP3    H141093   1.858   2.797   2.800 -3.7076 -1.3015  1.9253
 6534TIP3    H241094   1.853   2.654   2.847  2.6345 -1.7795  1.4723
 6535TIP3   OH241095   4.586   3.071  13.728 -0.1436 -0.2684  0.1171
 6535TIP3    H141096   4.608   3.050  13.637  0.3521  0.2301  0.1140
 6535TIP3    H241097   4.644   3.015  13.780 -0.0120 -0.1320  0.1193
 6536TIP3   OH241098   1.128   5.564   1.164 -0.1325 -0.1218  0.5282
 6536TIP3    H141099   1.150   5.472   1.150  0.6078 -0.3682  3.1963
 6536TIP3    H241100   1.056   5.563   1.227  0.8914  1.1501  1.7646
 6537TIP3   OH241101   5.922   3.894  13.227  0.6000 -0.5166 -0.1940
 6537TIP3    H141102   5.977   3.837  13.281 -0.0559 -0.2445  0.7741
 6537TIP3    H241103   5.984   3.940  13.171  1.1995 -1.6138 -0.4486
 6538TIP3   OH241104   4.520   5.829  13.959  0.6865  0.0152 -0.3163
 6538TIP3    H141105   4.572   5.894  13.911 -0.4771  1.1624 -0.0710
 6538TIP3    H241106   4.488   5.876  14.036 -1.6989 -0.2700 -1.0796
 6539TIP3   OH241107   2.874   3.501   3.274 -0.0777  0.0618  0.1057
 6539TIP3    H141108   2.836   3.417   3.251 -1.0445  0.4503  0.2530
 6539TIP3    H241109   2.901   3.540   3.191 -0.5423  0.0351 -0.0582
 6540TIP3   OH241110   0.934   1.991  16.392 -0.4887  0.3802  0.0961
 6540TIP3    H141111   0.969   1.906  16.366 -0.5928  0.2335  0.4400
 6540TIP3    H241112   0.949   1.996  16.487  1.7459  1.7661 -0.2845
 6541TIP3   OH241113   0.499   5.354  17.177  0.1974  0.4711  0.2976
 6541TIP3    H141114   0.516   5.444  17.205  0.6264  0.3273  0.5152
 6541TIP3    H241115   0.408   5.354  17.151  0.4103  1.1651 -0.4596
 6542TIP3   OH241116   6.042   0.411  10.980 -0.4512  0.5092 -0.3027
 6542TIP3    H141117   6.100   0.335  10.984 -0.5035  0.5254  0.9705
 6542TIP3    H241118   5.956   0.375  10.960 -0.5256  0.1887  0.5563
 6543TIP3   OH241119   1.989   4.969   3.918  0.2695 -0.4730 -0.0524
 6543TIP3    H141120   1.963   5.027   3.846 -0.1529 -1.5253 -0.7568
 6543TIP3    H241121   2.017   5.029   3.988  0.4999  0.5628 -1.0154
 6544TIP3   OH241122   4.714   0.057   1.662 -0.4963  0.6360 -0.5137
 6544TIP3    H141123   4.775  -0.004   1.621 -1.2300 -1.4096  1.3055
 6544TIP3    H241124   4.636   0.052   1.607 -1.0174 -1.1214  0.3197
 6545TIP3   OH241125   3.720   1.356  11.680  0.7262 -0.0821  0.0514
 6545TIP3    H141126   3.799   1.401  11.709 -0.6225  1.6429  1.1054
 6545TIP3    H241127   3.669   1.424  11.635 -1.7846 -0.2448  2.5166
 6546TIP3   OH241128   3.649   1.781   3.342  0.5103  0.0883 -0.0134
 6546TIP3    H141129   3.554   1.779   3.338  0.5439 -0.9714 -0.3043
 6546TIP3    H241130   3.672   1.726   3.417  0.9362 -0.5662 -0.6191
 6547TIP3   OH241131   3.623   6.791   5.648 -0.1048 -0.1745  0.3963
 6547TIP3    H141132   3.599   6.786   5.741  1.1411  0.1534  0.7428
 6547TIP3    H241133   3.599   6.880   5.622 -0.8814 -0.4109  0.2685
 6548TIP3   OH241134   6.250   5.996  14.497 -0.2604 -0.0057 -0.4036
 6548TIP3    H141135   6.287   6.064  14.553 -2.4817 -0.9290  2.2903
 6548TIP3    H241136   6.166   6.032  14.468  0.3786  0.0124 -2.2686
 6549TIP3   OH241137   5.225   2.438   3.851 -0.3237  0.4166 -0.0337
 6549TIP3    H141138   5.305   2.489   3.859  0.2001 -0.2109 -1.2115
 6549TIP3    H241139   5.167   2.473   3.920  1.4546 -0.1015  1.7631
 6550TIP3   OH241140   3.153   6.732   0.632 -0.4492 -0.4827 -0.2703
 6550TIP3    H141141   3.131   6.736   0.725 -0.2902  0.3799 -0.2748
 6550TIP3    H241142   3.091   6.791   0.589 -1.0091 -1.4326 -0.8080
 6551TIP3   OH241143   5.781   4.602   4.617  0.6314 -0.6354 -0.0294
 6551TIP3    H141144   5.738   4.687   4.608  0.1155 -0.9413 -0.4803
 6551TIP3    H241145   5.709   4.539   4.620  1.0259 -1.0873 -0.1001
 6552TIP3   OH241146   1.865   2.616  10.958  0.3689 -0.1595  0.1630
 6552TIP3    H141147   1.916   2.552  10.908  2.9887  1.8381  0.1687
 6552TIP3    H241148   1.878   2.591  11.049  0.6369 -0.1511  0.1263
 6553TIP3   OH241149   1.519   5.477  16.860  0.0340  0.5844  0.3469
 6553TIP3    H141150   1.445   5.535  16.844  1.4009  2.2110 -0.2698
 6553TIP3    H241151   1.485   5.389  16.842 -2.0747  1.1719  1.2942
 6554TIP3   OH241152   4.961   4.103  12.607 -0.0160  0.0173  0.1355
 6554TIP3    H141153   4.968   4.047  12.530 -0.1363 -1.3942  1.1317
 6554TIP3    H241154   4.874   4.085  12.642 -0.1325  0.9776  0.3517
 6555TIP3   OH241155   0.483   3.434   5.112 -0.2661  0.2202  0.1328
 6555TIP3    H141156   0.526   3.369   5.056 -0.3364  0.6822 -0.4622
 6555TIP3    H241157   0.444   3.383   5.183 -2.3340 -0.6617 -1.5784
 6556TIP3   OH241158   2.321   2.212  17.253 -0.4143  0.0271 -0.2201
 6556TIP3    H141159   2.346   2.289  17.304  5.2055 -0.1901 -2.4091
 6556TIP3    H241160   2.264   2.246  17.184  0.8294  2.0059 -0.3018
 6557TIP3   OH241161   3.389   2.472   2.378  0.5326  0.1022  0.3868
 6557TIP3    H141162   3.317   2.534   2.371  0.5644  0.1532  0.4988
 6557TIP3    H241163   3.398   2.456   2.473  1.5740  1.1711  0.4887
 6558TIP3   OH241164   1.584   6.603  11.372  0.1316  0.3395 -0.1113
 6558TIP3    H141165   1.561   6.518  11.409  0.1390 -0.1727 -1.2571
 6558TIP3    H241166   1.568   6.594  11.278  0.7395  1.4041 -0.3358
 6559TIP3   OH241167   5.292   0.130  13.928  0.5024 -0.9079  0.0151
 6559TIP3    H141168   5.367   0.070  13.930  0.1492 -1.3441  1.9734
 6559TIP3    H241169   5.245   0.111  14.010 -0.1466  1.3910  0.1962
 6560TIP3   OH241170   4.578   6.310   3.075  0.3184  0.5448 -0.1159
 6560TIP3    H141171   4.649   6.368   3.047  0.2263  0.3946 -0.6655
 6560TIP3    H241172   4.500   6.364   3.074  0.0268  0.1148 -1.7891
 6561TIP3   OH241173   3.001   5.517  13.974  0.1416 -0.2119 -0.1492
 6561TIP3    H141174   2.944   5.550  13.904 -1.0237 -0.1956  0.7976
 6561TIP3    H241175   3.085   5.560  13.958 -0.0664 -0.3271 -1.6326
 6562TIP3   OH241176   0.123   2.090  13.730  0.2205 -0.9487 -0.1562
 6562TIP3    H141177   0.098   2.153  13.798 -1.9992 -2.9666  0.9890
 6562TIP3    H241178   0.175   2.024  13.776  0.2851 -1.3370 -0.7858
 6563TIP3   OH241179   1.047   6.300  15.526  0.1243  0.5114 -0.5157
 6563TIP3    H141180   0.987   6.339  15.589  0.3155  1.4784 -0.9067
 6563TIP3    H241181   1.079   6.220  15.567  0.5862  1.3587  0.7905
 6564TIP3   OH241182   2.496   4.221   0.519 -0.4623  0.0080 -0.7326
 6564TIP3    H141183   2.409   4.242   0.552  0.0079  1.4100 -0.3396
 6564TIP3    H241184   2.544   4.304   0.522  0.1904 -0.2334 -3.1008
 6565TIP3   OH241185   1.262   5.014   2.082 -0.2219  0.0617 -0.1571
 6565TIP3    H141186   1.305   5.036   2.165 -0.0927 -0.8323  0.0212
 6565TIP3    H241187   1.328   5.034   2.015 -0.1665  0.3704 -0.0112
 6566TIP3   OH241188   2.018   5.787  15.783  0.9496  0.1074 -0.4038
 6566TIP3    H141189   2.107   5.809  15.812  0.6102  0.9993 -0.0308
 6566TIP3    H241190   1.965   5.863  15.807  0.1875 -0.1847 -1.1251
 6567TIP3   OH241191   4.581   5.521  11.224 -0.4374 -0.4268 -0.1694
 6567TIP3    H141192   4.666   5.480  11.211 -0.1617  0.0747  0.0068
 6567TIP3    H241193   4.537   5.466  11.289 -1.7869 -2.8774 -3.0598
 6568TIP3   OH241194   4.660   1.250   3.649  0.1769  0.1546 -0.3535
 6568TIP3    H141195   4.744   1.278   3.685 -0.1262 -1.1330  1.4027
 6568TIP3    H241196   4.623   1.330   3.611  1.3356  1.1499  0.5380
 6569TIP3   OH241197   2.330   2.283  12.282 -0.3220 -0.3607 -0.1699
 6569TIP3    H141198   2.336   2.232  12.363  1.0981  0.2866  0.1631
 6569TIP3    H241199   2.312   2.372  12.311 -0.5721 -0.2605 -0.6212
 6570TIP3   OH241200   4.539   5.160  15.102 -0.5097  0.1228  0.4803
 6570TIP3    H141201   4.546   5.066  15.117 -0.1613  0.0278 -0.2767
 6570TIP3    H241202   4.454   5.184  15.139 -0.5297 -0.4633  0.8138
 6571TIP3   OH241203   3.547   3.504   5.260  0.2971 -0.2770 -0.0265
 6571TIP3    H141204   3.614   3.557   5.216 -0.1235 -1.0481 -1.6564
 6571TIP3    H241205   3.474   3.502   5.198 -0.3274 -1.3898  0.7240
 6572TIP3   OH241206   0.686   1.561  16.924 -0.0589  0.3700 -0.1200
 6572TIP3    H141207   0.776   1.585  16.902  0.0311  0.2480  0.1080
 6572TIP3    H241208   0.679   1.580  17.018 -0.9525  2.5153 -0.5878
 6573TIP3   OH241209   0.611   4.562   3.500  0.2521  0.0172 -0.0094
 6573TIP3    H141210   0.521   4.588   3.486  0.3431 -0.6642 -2.0408
 6573TIP3    H241211   0.643   4.538   3.413  1.8539 -1.3948  0.9334
 6574TIP3   OH241212   6.609   4.491   2.075 -0.0149  0.2329 -0.1806
 6574TIP3    H141213   6.581   4.572   2.032  0.8318  0.5366 -0.1685
 6574TIP3    H241214   6.653   4.441   2.006  0.0670  0.0806 -0.0192
 6575TIP3   OH241215   0.021   5.570  14.801  0.0197 -0.0830 -0.3145
 6575TIP3    H141216   0.071   5.619  14.866  0.7075  1.3078 -1.8517
 6575TIP3    H241217   0.019   5.481  14.835  1.7661  0.2743  0.8120
 6576TIP3   OH241218   4.818   1.411  13.480 -0.7362  0.0087 -0.5277
 6576TIP3    H141219   4.844   1.496  13.446 -0.7527 -0.9650 -3.1053
 6576TIP3    H241220   4.861   1.404  13.565 -2.7992  3.6310  0.9057
 6577TIP3   OH241221   5.080   3.856   4.546 -0.0820 -0.1376 -0.0260
 6577TIP3    H141222   5.108   3.782   4.492 -1.9361 -3.0011  2.8167
 6577TIP3    H241223   4.991   3.874   4.517 -0.2783 -0.1875  0.5489
 6578TIP3   OH241224   1.268   2.013  12.189  0.0532  0.4232 -0.1152
 6578TIP3    H141225   1.347   2.047  12.228 -1.3511  0.8470  2.4406
 6578TIP3    H241226   1.282   1.918  12.185  0.2221  0.3856  1.3790
 6579TIP3   OH241227   4.082   4.407  11.453 -0.1781 -0.2476  0.2696
 6579TIP3    H141228   4.011   4.428  11.393 -0.5776  1.2671  1.2434
 6579TIP3    H241229   4.108   4.491  11.489  2.0989 -0.7842 -0.0437
 6580TIP3   OH241230   2.830   4.375   0.324  0.3380 -0.1130  0.1489
 6580TIP3    H141231   2.832   4.465   0.359 -1.9860 -0.4755  1.2660
 6580TIP3    H241232   2.834   4.319   0.402 -0.5731 -0.9713 -0.4175
 6581TIP3   OH241233   4.714   4.396  13.290  0.0850  0.1839  0.0007
 6581TIP3    H141234   4.662   4.475  13.303 -0.2122  0.0581 -0.4212
 6581TIP3    H241235   4.764   4.412  13.210 -0.8297 -0.5069 -0.7202
 6582TIP3   OH241236   5.510   2.578   3.470 -0.0474 -0.3622  0.3650
 6582TIP3    H141237   5.575   2.586   3.399 -3.3022 -2.5806 -3.0411
 6582TIP3    H241238   5.510   2.484   3.492 -2.3554 -0.4639  0.0199
 6583TIP3   OH241239   1.938   1.772   4.378  0.0216  0.4455 -0.8897
 6583TIP3    H141240   1.892   1.855   4.375  0.1484  0.4987 -1.6255
 6583TIP3    H241241   2.029   1.796   4.397 -0.0664  0.4258 -0.4574
 6584TIP3   OH241242   3.434   5.163   2.014 -0.3285 -0.1443 -0.1540
 6584TIP3    H141243   3.376   5.238   1.997 -0.8761 -0.2149  1.3491
 6584TIP3    H241244   3.379   5.102   2.064  0.6919 -0.7342  0.2481
 6585TIP3   OH241245   6.448   3.620  17.005  0.8285  0.3088 -0.0211
 6585TIP3    H141246   6.378   3.634  17.069  0.7461 -0.5009  0.0649
 6585TIP3    H241247   6.454   3.704  16.959  1.7587  1.3367  1.8962
 6586TIP3   OH241248   3.053   3.424   0.663  0.7522 -0.2744  0.1293
 6586TIP3    H141249   3.065   3.330   0.655 -0.3594 -0.3058 -1.3336
 6586TIP3    H241250   2.968   3.435   0.706  0.9027  0.0590  0.3474
 6587TIP3   OH241251   3.897   4.304   2.127  0.5312  0.2187  0.0242
 6587TIP3    H141252   3.974   4.332   2.078 -0.3852  0.0191 -1.5621
 6587TIP3    H241253   3.834   4.377   2.118 -0.0379 -0.2686  0.0094
 6588TIP3   OH241254   6.467   2.236  13.469  0.2645 -0.0111  0.0947
 6588TIP3    H141255   6.467   2.141  13.477  1.9801 -0.2265 -2.0619
 6588TIP3    H241256   6.375   2.258  13.455 -0.0941 -1.4021  0.1800
 6589TIP3   OH241257   1.132   1.282   4.843 -0.1688  0.1541  0.2051
 6589TIP3    H141258   1.136   1.345   4.772 -0.8212 -0.0993 -0.0584
 6589TIP3    H241259   1.200   1.310   4.904  2.0365 -0.9964 -1.6324
 6590TIP3   OH241260   5.322   6.303   1.707 -0.1674  0.1456 -0.5035
 6590TIP3    H141261   5.322   6.369   1.777  0.3586 -0.4388  0.0432
 6590TIP3    H241262   5.322   6.355   1.626 -1.2864  0.8303 -0.0859
 6591TIP3   OH241263   3.215   5.145  13.974 -0.3759 -0.7849 -0.7486
 6591TIP3    H141264   3.234   5.235  13.948  0.3424 -0.7437 -0.0847
 6591TIP3    H241265   3.121   5.136  13.961 -0.6709  0.4648  0.4170
 6592TIP3   OH241266   4.335   4.054   2.089  0.7355 -0.0034  0.2991
 6592TIP3    H141267   4.272   4.081   2.156 -0.6414 -2.4743  0.0620
 6592TIP3    H241268   4.410   4.021   2.138  0.2920 -0.5185  0.6419
 6593TIP3   OH241269   4.670   2.155  15.162  0.3579 -0.2680  0.0405
 6593TIP3    H141270   4.730   2.109  15.221 -0.0755 -0.9195 -0.0278
 6593TIP3    H241271   4.583   2.122  15.185  0.2194 -0.7749 -1.1918
 6594TIP3   OH241272   4.448   6.288   5.710 -0.3252  1.1525 -0.6524
 6594TIP3    H141273   4.365   6.299   5.756  0.1781  1.2971  0.2444
 6594TIP3    H241274   4.497   6.369   5.729  0.5937  0.4449  0.0646
 6595TIP3   OH241275   6.751   6.512  12.021 -0.2662 -0.3229  0.1202
 6595TIP3    H141276   6.730   6.509  11.928 -0.2932  0.4848  0.0940
 6595TIP3    H241277   6.813   6.585  12.029  1.5556 -1.8606  0.3890
 6596TIP3   OH241278   2.324   2.878  16.055 -0.3726 -0.0002  0.4782
 6596TIP3    H141279   2.308   2.831  15.973 -0.8292  0.4933  0.2827
 6596TIP3    H241280   2.412   2.851  16.082 -0.1267  0.0222 -0.3005
 6597TIP3   OH241281   4.714   4.822   4.960 -0.2329 -0.2934 -0.1289
 6597TIP3    H141282   4.667   4.769   5.024  0.0990  1.5221  1.6632
 6597TIP3    H241283   4.797   4.844   5.003  0.7107 -0.3987 -1.8218
 6598TIP3   OH241284   1.809   0.938   6.504 -0.0428  0.2424 -0.1898
 6598TIP3    H141285   1.856   0.939   6.421 -0.9769 -0.4597 -0.7452
 6598TIP3    H241286   1.723   0.901   6.482  0.1838 -1.2846  1.3495
 6599TIP3   OH241287   0.526   4.818   4.674  0.2153 -0.3429 -0.3183
 6599TIP3    H141288   0.561   4.879   4.739 -1.3209  0.0295  0.1648
 6599TIP3    H241289   0.451   4.777   4.716 -0.8082 -0.0875 -1.8405
 6600TIP3   OH241290   4.565   3.552   0.015 -0.0788  0.8704 -0.0025
 6600TIP3    H141291   4.635   3.497   0.049 -1.9116 -0.4736  1.7134
 6600TIP3    H241292   4.603   3.640   0.014  0.7915  0.6349  3.5903
 6601TIP3   OH241293   2.907   2.967  12.462 -0.6588  0.6133  0.1603
 6601TIP3    H141294   2.906   2.949  12.556 -0.3754  0.5573  0.1541
 6601TIP3    H241295   2.815   2.973  12.437 -0.8392 -2.1581 -0.0751
 6602TIP3   OH241296   2.804   5.116   6.572  0.0383 -0.1112  0.1553
 6602TIP3    H141297   2.832   5.207   6.561  1.7725 -0.6483 -0.0635
 6602TIP3    H241298   2.747   5.118   6.649  0.9715  0.9904  0.8568
 6603TIP3   OH241299   2.081   5.413  10.683 -0.1972 -0.4345 -0.6544
 6603TIP3    H141300   2.053   5.421  10.775 -1.1405 -0.2503 -0.9506
 6603TIP3    H241301   2.025   5.474  10.635  0.0272 -0.8133 -1.4075
 6604TIP3   OH241302   2.802   6.485   0.920  0.8356  0.5087 -0.1299
 6604TIP3    H141303   2.831   6.434   0.844 -1.4516 -2.1426  0.7052
 6604TIP3    H241304   2.879   6.490   0.977  1.4565 -0.9147 -0.8306
 6605TIP3   OH241305   2.885   4.864  13.003  0.3922  0.1776 -0.3372
 6605TIP3    H141306   2.818   4.878  12.935  1.9046  1.0269 -1.6883
 6605TIP3    H241307   2.836   4.864  13.085 -1.0065  3.2066 -1.1032
 6606TIP3   OH241308   6.058   6.515   4.787 -0.0955 -0.4362 -0.3011
 6606TIP3    H141309   6.063   6.421   4.804 -0.5544 -0.1410  1.5590
 6606TIP3    H241310   6.137   6.551   4.828  0.0962 -0.0178 -1.0396
 6607TIP3   OH241311   3.444   4.018   2.669 -0.6836 -0.6811 -0.3728
 6607TIP3    H141312   3.379   3.995   2.603 -1.3087  0.9033 -0.3250
 6607TIP3    H241313   3.393   4.043   2.746 -0.0054 -0.2577 -0.0557
 6608TIP3   OH241314   4.175   4.570   6.102  0.3136  0.0621 -0.7448
 6608TIP3    H141315   4.199   4.648   6.152 -0.0405 -2.2987  3.2698
 6608TIP3    H241316   4.079   4.576   6.094  0.3298  0.2454 -0.8206
 6609TIP3   OH241317   3.527   5.812  11.625 -0.1925  0.0210  1.0410
 6609TIP3    H141318   3.578   5.883  11.664  1.9289 -0.4956 -0.6842
 6609TIP3    H241319   3.522   5.746  11.694 -0.5424  1.0453  2.0091
 6610TIP3   OH241320   6.555   3.589  13.403 -0.4472  0.1664  0.7956
 6610TIP3    H141321   6.606   3.535  13.463  0.3965  1.6508  1.4501
 6610TIP3    H241322   6.494   3.637  13.459  0.2665  1.4690  0.4963
 6611TIP3   OH241323   4.400   5.952   6.247 -0.7806  0.9702  0.3190
 6611TIP3    H141324   4.310   5.972   6.271 -1.6365 -0.1745 -1.8285
 6611TIP3    H241325   4.412   5.860   6.269  0.0869  1.2989  1.2388
 6612TIP3   OH241326   0.345   6.784  14.500  0.4630 -0.8951  0.0371
 6612TIP3    H141327   0.289   6.780  14.578 -0.6130  0.7075 -0.6472
 6612TIP3    H241328   0.404   6.857  14.517  0.3584 -0.6682 -0.5623
 6613TIP3   OH241329   1.562   2.095  11.796  0.6974  0.5400 -0.2296
 6613TIP3    H141330   1.612   2.070  11.874  0.8553  0.2115 -0.4348
 6613TIP3    H241331   1.547   2.013  11.750 -0.4843  0.5677  0.0882
 6614TIP3   OH241332   4.410   1.141  15.184 -0.5492 -0.0606  0.6099
 6614TIP3    H141333   4.392   1.134  15.278  3.7228 -0.1935  1.4885
 6614TIP3    H241334   4.394   1.053  15.150 -1.2838 -0.2216  1.3430
 6615TIP3   OH241335   6.351   5.455   5.865  0.1234  0.2642  0.0228
 6615TIP3    H141336   6.266   5.495   5.882  0.0519  0.5316 -0.9434
 6615TIP3    H241337   6.413   5.506   5.917 -0.2624  0.2924  0.4527
 6616TIP3   OH241338   2.091   1.981  12.910 -0.7929 -0.1317  0.4331
 6616TIP3    H141339   2.091   2.071  12.941 -0.4991  0.1178 -0.3044
 6616TIP3    H241340   2.000   1.964  12.885 -1.5059 -0.9860  3.3017
 6617TIP3   OH241341   2.205   4.650   3.651 -0.5739 -0.1154 -0.4220
 6617TIP3    H141342   2.129   4.688   3.696  0.1474 -0.1421  0.8536
 6617TIP3    H241343   2.276   4.712   3.668 -0.1789 -0.3809 -1.1084
 6618TIP3   OH241344   4.020   0.620   3.233  0.2133 -0.2734  0.1232
 6618TIP3    H141345   3.972   0.692   3.192 -1.6203 -0.4329  1.9183
 6618TIP3    H241346   3.971   0.601   3.313  2.3991 -1.5097  1.2053
 6619TIP3   OH241347   0.593   2.474  12.876  0.3445  0.5599  0.3688
 6619TIP3    H141348   0.649   2.498  12.802  1.5201 -0.0153  1.0622
 6619TIP3    H241349   0.524   2.420  12.837  1.0584  0.1132 -0.2824
 6620TIP3   OH241350   2.183   4.985  12.324 -0.0810  0.3039  0.0986
 6620TIP3    H141351   2.235   4.995  12.244 -0.5393 -1.9439 -0.5115
 6620TIP3    H241352   2.161   5.075  12.349  1.9235  1.1583 -1.0549
 6621TIP3   OH241353   0.137   0.459  14.115 -0.3809  0.3226 -0.2388
 6621TIP3    H141354   0.125   0.371  14.150 -0.6890 -0.1005 -1.3829
 6621TIP3    H241355   0.151   0.514  14.192  2.6349 -1.1382  0.3207
 6622TIP3   OH241356   2.028   6.419  11.312 -0.4000  0.1042  0.2084
 6622TIP3    H141357   2.035   6.333  11.271  1.2611 -0.0999  0.9035
 6622TIP3    H241358   1.934   6.436  11.315 -0.7222 -1.5374 -0.2204
 6623TIP3   OH241359   4.643   1.756  11.369  0.7150  0.6842 -0.1887
 6623TIP3    H141360   4.652   1.686  11.304  0.5636  1.3086 -0.8886
 6623TIP3    H241361   4.604   1.829  11.320  0.8172  1.2339  0.5479
 6624TIP3   OH241362   3.995   4.597   1.277  0.1368 -0.6034  0.4022
 6624TIP3    H141363   4.080   4.641   1.280 -0.5604  0.8456 -0.4462
 6624TIP3    H241364   3.999   4.544   1.198  0.4953 -1.0685  0.7272
 6625TIP3   OH241365   4.608   2.406  12.186 -0.2411 -0.1362  0.3906
 6625TIP3    H141366   4.656   2.347  12.127 -1.9271 -0.3431 -0.8078
 6625TIP3    H241367   4.573   2.347  12.254  0.1020 -0.1565  0.5559
 6626TIP3   OH241368   6.379   0.736   2.040  0.8020 -0.4235  0.4105
 6626TIP3    H141369   6.418   0.664   2.089  0.2980 -0.3064  0.9955
 6626TIP3    H241370   6.306   0.696   1.993  0.0171 -0.1442  1.3788
 6627TIP3   OH241371   2.024   3.826  15.672  0.3571 -0.1336  0.1764
 6627TIP3    H141372   2.073   3.885  15.730 -0.5441 -0.0786  0.8903
 6627TIP3    H241373   1.977   3.768  15.731 -2.0972  1.1601 -0.4344
 6628TIP3   OH241374   2.004   2.943   1.665 -0.1362  0.4441  0.1003
 6628TIP3    H141375   1.981   2.850   1.671  0.6722  0.2563  0.3088
 6628TIP3    H241376   2.026   2.956   1.573  1.6714 -0.0271  0.4591
 6629TIP3   OH241377   5.659   6.072   2.556  0.4201  0.4863  0.0098
 6629TIP3    H141378   5.680   5.979   2.571  0.5691  0.0323 -2.8497
 6629TIP3    H241379   5.687   6.089   2.466 -2.2206  2.5621 -0.4872
 6630TIP3   OH241380   0.758   5.316  12.487 -0.3898 -0.1556  0.4439
 6630TIP3    H141381   0.676   5.339  12.444 -0.2427  1.3051  0.9296
 6630TIP3    H241382   0.744   5.226  12.518 -1.0373 -0.6929 -1.2927
 6631TIP3   OH241383   5.915   3.209   0.709 -0.1084  0.1510 -0.2204
 6631TIP3    H141384   5.904   3.248   0.622  1.7258  0.4742 -0.3164
 6631TIP3    H241385   5.887   3.278   0.770 -2.1878 -0.3647 -0.5536
 6632TIP3   OH241386   4.092   3.914   2.006 -0.2869 -0.0555 -0.2142
 6632TIP3    H141387   4.157   3.976   2.038 -0.4576 -0.0392  0.0967
 6632TIP3    H241388   4.009   3.959   2.015 -0.5427 -0.7701  1.1391
 6633TIP3   OH241389   3.092   5.318  16.032  0.1998  0.2083 -0.2371
 6633TIP3    H141390   3.077   5.246  16.093 -0.9386 -0.8497 -1.7114
 6633TIP3    H241391   3.044   5.392  16.069 -1.2745 -0.6854 -0.3210
 6634TIP3   OH241392   1.896   1.734   0.389 -0.2621  0.1474 -0.1725
 6634TIP3    H141393   1.863   1.668   0.328 -1.7691 -0.1028  0.9013
 6634TIP3    H241394   1.990   1.718   0.393 -0.2129 -0.1986 -1.9908
 6635TIP3   OH241395   4.975   4.841  12.046  0.2810  0.6339 -0.5594
 6635TIP3    H141396   4.991   4.757  12.002 -0.5556 -0.2775  0.8480
 6635TIP3    H241397   5.056   4.858  12.094 -0.4279 -0.5966  1.1080
 6636TIP3   OH241398   1.005   1.083  11.415 -0.1114 -0.3909 -0.5373
 6636TIP3    H141399   1.095   1.114  11.427  0.2676 -1.5239 -0.4696
 6636TIP3    H241400   0.958   1.117  11.491  0.4250 -0.4265 -0.1843
 6637TIP3   OH241401   3.287   3.333   1.624 -0.7423  0.3177  0.2535
 6637TIP3    H141402   3.365   3.384   1.641  0.6248 -1.5564 -0.1463
 6637TIP3    H241403   3.262   3.296   1.709  0.0103 -0.7114  0.0355
 6638TIP3   OH241404   1.442   1.847   1.085 -0.3784 -0.4344 -0.2170
 6638TIP3    H141405   1.405   1.879   1.166 -0.6625  1.0485 -0.9195
 6638TIP3    H241406   1.518   1.795   1.112 -0.8204 -0.4445  1.0177
 6639TIP3   OH241407   0.003   5.535  11.753  0.1249 -0.2594 -0.5158
 6639TIP3    H141408  -0.037   5.482  11.822  0.3365  0.1281 -0.0850
 6639TIP3    H241409   0.020   5.474  11.682  0.0052 -0.6885 -0.1787
 6640TIP3   OH241410   5.834   1.848   3.941  0.1035 -0.6950  0.6100
 6640TIP3    H141411   5.842   1.942   3.928  0.7510 -1.0215 -1.5077
 6640TIP3    H241412   5.795   1.839   4.028  1.1015  1.4930  1.3176
 6641TIP3   OH241413   5.461   4.132   3.774  0.5521  0.5534  0.4357
 6641TIP3    H141414   5.476   4.062   3.838  0.4106  1.7530  1.8139
 6641TIP3    H241415   5.487   4.094   3.690 -0.0053 -1.3071  1.0915
 6642TIP3   OH241416   1.955   4.032   2.351  0.4535  0.0386 -0.0629
 6642TIP3    H141417   2.025   4.016   2.288  1.6809  0.8822  1.0502
 6642TIP3    H241418   2.001   4.061   2.431 -1.0981 -0.4768  1.0300
 6643TIP3   OH241419   5.410   6.455   1.957  0.0981  0.1453 -0.1694
 6643TIP3    H141420   5.484   6.398   1.977  0.7080  1.2131  0.6907
 6643TIP3    H241421   5.449   6.529   1.910 -0.6226  0.0642 -0.9018
 6644TIP3   OH241422   0.684   2.495  13.308 -0.2971  0.3789  0.1133
 6644TIP3    H141423   0.670   2.414  13.260  0.4780  0.5780 -0.4487
 6644TIP3    H241424   0.740   2.471  13.381 -0.6919  0.2592  0.3750
 6645TIP3   OH241425   2.710   6.106   1.145 -0.5948 -0.1416 -0.2752
 6645TIP3    H141426   2.693   6.019   1.180 -1.3341 -0.2546 -0.9144
 6645TIP3    H241427   2.791   6.133   1.188 -0.0722 -1.3530 -0.4811
 6646TIP3   OH241428   2.897   4.215   6.362 -0.8380  0.4905  0.6004
 6646TIP3    H141429   2.917   4.232   6.270  0.6404  0.7582  0.9580
 6646TIP3    H241430   2.952   4.139   6.385 -1.6839  0.0227  1.0856
 6647TIP3   OH241431   6.767   6.190   2.159  0.1235 -0.1670  0.5385
 6647TIP3    H141432   6.714   6.123   2.202  0.5124  0.1299  1.4888
 6647TIP3    H241433   6.760   6.267   2.216  1.1826  0.0258  0.4237
 6648TIP3   OH241434   5.058   5.590  11.328  0.1397 -0.0206  0.5526
 6648TIP3    H141435   5.027   5.645  11.401 -0.2102  0.7839 -0.1986
 6648TIP3    H241436   5.070   5.650  11.255  2.7050 -0.4511  0.5670
 6649TIP3   OH241437   4.592   1.664   0.277 -0.1933 -0.6106  0.0488
 6649TIP3    H141438   4.527   1.724   0.313 -0.1929 -0.2645 -0.5125
 6649TIP3    H241439   4.567   1.654   0.185  1.7088  1.1010 -0.6874
 6650TIP3   OH241440   2.058   0.456   4.028 -0.1522  0.0080 -0.3456
 6650TIP3    H141441   1.974   0.417   4.001  0.2431 -1.1478  0.0567
 6650TIP3    H241442   2.067   0.431   4.120  1.7289 -1.8730 -1.0071
 6651TIP3   OH241443   0.999   0.522  12.930 -0.4761  0.7158  0.1975
 6651TIP3    H141444   1.054   0.599  12.931 -0.9078  1.0284 -0.3888
 6651TIP3    H241445   0.910   0.555  12.919 -0.7098  0.1640  0.3545
 6652TIP3   OH241446   0.341   6.417  12.823 -0.2938 -0.7803 -0.1179
 6652TIP3    H141447   0.397   6.468  12.765  1.9251 -3.8482 -0.7523
 6652TIP3    H241448   0.267   6.391  12.769 -0.7018  0.5208 -0.1891
 6653TIP3   OH241449   1.935   4.548   1.354  0.0759 -0.1798 -0.2982
 6653TIP3    H141450   1.839   4.546   1.353 -0.0541  1.2843  2.5480
 6653TIP3    H241451   1.958   4.623   1.299 -0.4526 -0.2170 -0.5716
 6654TIP3   OH241452   0.528   2.158  14.340 -0.3870 -0.0062 -0.5593
 6654TIP3    H141453   0.608   2.154  14.288  0.2277 -1.6971  0.4608
 6654TIP3    H241454   0.549   2.217  14.412 -0.9526  1.6531 -1.7399
 6655TIP3   OH241455   2.654   4.288   0.894  0.0803  0.5871  0.0045
 6655TIP3    H141456   2.593   4.283   0.968  0.0789  1.6798  0.0726
 6655TIP3    H241457   2.625   4.363   0.843  1.0843  0.8330 -0.2142
 6656TIP3   OH241458   6.043   2.402   3.639 -0.4452  0.2717  0.2192
 6656TIP3    H141459   5.963   2.416   3.589  1.2040  1.1245 -2.2908
 6656TIP3    H241460   6.072   2.314   3.613  0.7865  0.9907 -0.8673
 6657TIP3   OH241461   1.589   1.741  16.218 -0.4548 -0.3597  0.4474
 6657TIP3    H141462   1.605   1.749  16.313  1.2211  0.1766  0.1410
 6657TIP3    H241463   1.647   1.807  16.179 -1.1546 -0.5666 -0.9605
 6658TIP3   OH241464   0.134   3.686  13.758 -0.0690 -0.7131 -0.4735
 6658TIP3    H141465   0.228   3.696  13.770 -0.1909  3.3173 -2.0065
 6658TIP3    H241466   0.095   3.741  13.826 -1.2959 -1.1796 -0.7854
 6659TIP3   OH241467   4.289   6.060  15.167  0.2293  0.2859 -0.1946
 6659TIP3    H141468   4.290   6.142  15.119  0.7746  0.0385 -0.6070
 6659TIP3    H241469   4.235   6.001  15.114 -0.4364  0.4706  0.2645
 6660TIP3   OH241470   3.671   2.016   2.381 -0.0961  0.0314  0.3059
 6660TIP3    H141471   3.592   1.965   2.394  0.0875 -0.3550 -0.0743
 6660TIP3    H241472   3.720   1.968   2.313 -0.0195  0.8152 -0.2007
 6661TIP3   OH241473   3.304   1.895   1.611  0.6252 -0.0022  0.2386
 6661TIP3    H141474   3.243   1.964   1.635 -1.1160 -1.0507 -1.0561
 6661TIP3    H241475   3.308   1.839   1.688 -1.5299 -0.9383 -0.2825
 6662TIP3   OH241476   5.493   1.993   4.317 -0.3961 -0.2648  0.1087
 6662TIP3    H141477   5.514   2.067   4.374 -0.1210 -0.2200 -0.0469
 6662TIP3    H241478   5.463   1.924   4.376  1.1817 -0.6892  0.4542
 6663TIP3   OH241479   4.313   2.458   1.709  0.2647 -0.3791  0.2246
 6663TIP3    H141480   4.377   2.403   1.755  1.4955  1.4768  0.7746
 6663TIP3    H241481   4.289   2.407   1.632  0.1749 -2.3872  1.5381
 6664TIP3   OH241482   4.046   4.856  15.436  0.2002  0.4691 -0.5808
 6664TIP3    H141483   4.090   4.792  15.492 -0.8314  0.0954 -0.1855
 6664TIP3    H241484   3.958   4.820  15.422  0.5801  0.3282 -2.8206
 6665TIP3   OH241485   5.145   0.344   4.951 -0.1164  0.6818  0.2736
 6665TIP3    H141486   5.232   0.353   4.913 -0.9478  3.7474 -1.1051
 6665TIP3    H241487   5.107   0.268   4.906  1.3773  0.0878 -0.0173
 6666TIP3   OH241488   0.179   1.156   3.526  0.2028 -0.2738 -0.2599
 6666TIP3    H141489   0.089   1.128   3.543  0.1128 -0.5220 -1.1161
 6666TIP3    H241490   0.218   1.168   3.613 -0.9685  0.8443  0.1193
 6667TIP3   OH241491   5.583   5.705  16.929  0.5740  0.3148 -0.2551
 6667TIP3    H141492   5.575   5.610  16.939  1.5392  0.4252  1.8599
 6667TIP3    H241493   5.531   5.741  17.000  0.7633  1.3647 -0.6377
 6668TIP3   OH241494   5.363   1.112   3.847  0.5534 -0.2475  0.4457
 6668TIP3    H141495   5.402   1.032   3.814  0.8394 -0.0316  0.2596
 6668TIP3    H241496   5.337   1.161   3.768 -0.5120 -0.5972  0.5695
 6669TIP3   OH241497   2.216   4.739  16.933 -0.2462 -0.1589  0.1036
 6669TIP3    H141498   2.274   4.791  16.989  0.8730 -1.4486  0.1614
 6669TIP3    H241499   2.269   4.716  16.857 -1.0458 -0.3851 -0.3902
 6670TIP3   OH241500   1.715   3.179  11.226  0.1654 -0.1500  1.1473
 6670TIP3    H141501   1.656   3.241  11.183  1.2472  0.8701  1.1199
 6670TIP3    H241502   1.746   3.226  11.303 -0.8241 -1.5325  2.4132
 6671TIP3   OH241503   4.011   3.759   5.116  0.1686 -0.0514 -0.0584
 6671TIP3    H141504   4.068   3.813   5.062  1.0319 -0.6875  0.2102
 6671TIP3    H241505   3.947   3.820   5.153  0.8950  0.7154 -0.0710
 6672TIP3   OH241506   3.507   5.706  13.176  0.1633 -0.0110 -0.6355
 6672TIP3    H141507   3.533   5.635  13.118 -0.9044  0.1825 -1.3650
 6672TIP3    H241508   3.511   5.668  13.264  1.3709 -0.4301 -0.8656
 6673TIP3   OH241509   4.753   0.554   0.691 -0.0776  0.0166  0.4179
 6673TIP3    H141510   4.707   0.498   0.629 -0.0475  1.3781 -0.8549
 6673TIP3    H241511   4.827   0.589   0.641  0.4113  0.4889  1.4668
 6674TIP3   OH241512   2.220   1.901   2.363  0.1463  0.0068 -0.3316
 6674TIP3    H141513   2.144   1.956   2.385  0.3773  0.0481  0.3677
 6674TIP3    H241514   2.295   1.948   2.398  0.3009 -0.9728  0.6732
 6675TIP3   OH241515   4.511   6.193   1.080  0.1012 -0.0202  0.1077
 6675TIP3    H141516   4.439   6.189   1.016  0.9145  0.7149 -0.8658
 6675TIP3    H241517   4.532   6.286   1.086  0.3775 -0.1428  1.0718
 6676TIP3   OH241518   1.338   1.586   5.518  0.6200  0.5778  0.8237
 6676TIP3    H141519   1.418   1.608   5.566 -0.4433 -0.7159  3.3065
 6676TIP3    H241520   1.368   1.531   5.446  2.1407  1.6215  0.6289
 6677TIP3   OH241521   1.701   3.887  15.267 -0.4438 -0.0500 -0.2103
 6677TIP3    H141522   1.646   3.960  15.237  0.7971  0.4895 -1.2406
 6677TIP3    H241523   1.775   3.930  15.311 -0.6484 -0.7531  0.8191
 6678TIP3   OH241524   4.256   0.854  15.987 -0.1029  0.0596 -0.3189
 6678TIP3    H141525   4.221   0.910  16.057 -0.4947  0.6274 -0.9679
 6678TIP3    H241526   4.244   0.764  16.020  1.1645  0.3565  1.0287
 6679TIP3   OH241527   6.088   5.335   5.264 -0.7310  0.3157 -0.4491
 6679TIP3    H141528   6.044   5.419   5.252 -2.5282 -0.5980 -0.3336
 6679TIP3    H241529   6.086   5.294   5.178  0.6273  0.6002 -0.6324
 6680TIP3   OH241530   4.386   2.890   0.335  0.3496  0.5048  0.0782
 6680TIP3    H141531   4.333   2.906   0.414  1.1263  0.1198  0.6816
 6680TIP3    H241532   4.379   2.796   0.321  0.9663  0.4398  0.2200
 6681TIP3   OH241533   3.266   3.957  15.440 -0.0597 -0.4510 -0.5964
 6681TIP3    H141534   3.311   3.978  15.522 -0.8392 -0.3229 -0.1967
 6681TIP3    H241535   3.258   3.862  15.441 -1.8258 -0.3230  0.4346
 6682TIP3   OH241536   2.307   0.024  12.276 -0.1541  0.1497  0.1379
 6682TIP3    H141537   2.243   0.042  12.345 -1.0115 -0.3273 -0.5125
 6682TIP3    H241538   2.310  -0.072  12.272  2.1082  0.1193  1.5197
 6683TIP3   OH241539   4.801   6.755  12.879 -0.3149  0.0901  0.4388
 6683TIP3    H141540   4.825   6.830  12.824  0.1166 -1.2205 -1.1791
 6683TIP3    H241541   4.874   6.747  12.941  0.1941  0.3027 -0.1270
 6684TIP3   OH241542   3.239   2.492  15.974  0.4073  0.2734  0.4913
 6684TIP3    H141543   3.177   2.557  16.008 -1.5693 -2.0582  1.4149
 6684TIP3    H241544   3.249   2.515  15.881 -2.3896  0.2803  0.1578
 6685TIP3   OH241545   4.087   4.621   2.038 -0.1744 -0.0674  0.3723
 6685TIP3    H141546   4.111   4.707   2.002 -1.7882 -0.2834 -1.2902
 6685TIP3    H241547   4.014   4.640   2.097 -1.0073 -0.3862 -0.5540
 6686TIP3   OH241548   0.956   3.339  16.662 -0.7293  0.1264 -0.6310
 6686TIP3    H141549   1.045   3.372  16.647 -0.7665 -0.7677 -3.1931
 6686TIP3    H241550   0.927   3.311  16.575 -3.4176  0.1288  0.2348
 6687TIP3   OH241551   6.283   1.834   4.585  0.4602  0.0355 -0.1896
 6687TIP3    H141552   6.235   1.821   4.503 -0.6543  0.8435  0.3165
 6687TIP3    H241553   6.326   1.919   4.575 -0.7627  0.7593  0.5681
 6688TIP3   OH241554   2.664   2.430   3.497  0.1503 -0.1409 -0.3692
 6688TIP3    H141555   2.617   2.355   3.459 -0.4824 -0.0075  0.1358
 6688TIP3    H241556   2.757   2.407   3.487 -0.0402 -1.5872  0.9107
 6689TIP3   OH241557   2.214   5.725  12.224  0.0356  0.0512  0.0421
 6689TIP3    H141558   2.277   5.717  12.296 -0.1312  0.4404  0.2266
 6689TIP3    H241559   2.223   5.642  12.176 -1.2934 -1.0584  1.6650
 6690TIP3   OH241560   2.572   2.812  14.718 -0.3012  0.2114  0.2374
 6690TIP3    H141561   2.641   2.784  14.658 -1.1719 -0.7782 -0.3099
 6690TIP3    H241562   2.619   2.841  14.797  0.6647 -1.9484  0.4794
 6691TIP3   OH241563   3.334   6.813  13.690 -0.8261  0.6936 -0.1587
 6691TIP3    H141564   3.240   6.798  13.681 -1.5749  3.2271  2.3829
 6691TIP3    H241565   3.357   6.869  13.616 -0.7386 -2.0267 -2.2344
 6692TIP3   OH241566   0.178   1.710   6.150  0.0602 -0.1006 -0.0789
 6692TIP3    H141567   0.164   1.629   6.100  1.5341 -0.2622 -0.2576
 6692TIP3    H241568   0.169   1.684   6.241  2.0218 -0.8152 -0.0575
 6693TIP3   OH241569   3.581   0.282   4.620 -0.0178  0.1976  0.1654
 6693TIP3    H141570   3.518   0.340   4.577 -2.2961 -2.7284 -0.6045
 6693TIP3    H241571   3.573   0.303   4.713 -0.2533  1.6262 -0.1649
 6694TIP3   OH241572   1.300   0.440  12.661 -0.4356  0.4279  0.0363
 6694TIP3    H141573   1.382   0.400  12.634  0.5367  1.8601  0.7780
 6694TIP3    H241574   1.253   0.371  12.708  0.4488 -0.3285 -0.1897
 6695TIP3   OH241575   3.359   4.500   2.663  0.5660  0.4149 -0.0606
 6695TIP3    H141576   3.401   4.555   2.729  1.5037  1.2104 -1.2881
 6695TIP3    H241577   3.285   4.553   2.632 -0.4433 -0.3486  1.0078
 6696TIP3   OH241578   1.757   0.085   1.994  0.0405  0.1493  0.2455
 6696TIP3    H141579   1.720   0.161   1.950  0.7255  0.5013  0.2651
 6696TIP3    H241580   1.705   0.011   1.962 -0.5354  0.6045  0.1188
 6697TIP3   OH241581   0.221   3.307   1.836 -0.1410 -0.3178  0.3668
 6697TIP3    H141582   0.213   3.296   1.741 -2.0613  1.0708  0.3484
 6697TIP3    H241583   0.141   3.268   1.871  0.8759 -1.4390  1.4907
 6698TIP3   OH241584   4.424   2.081  14.089 -0.6175  0.2321 -0.1307
 6698TIP3    H141585   4.416   2.002  14.144  1.6676 -0.7207 -1.0974
 6698TIP3    H241586   4.383   2.150  14.141 -0.1049 -1.0152  2.0232
 6699TIP3   OH241587   6.798   3.041  11.182 -0.0876  0.1753 -0.0738
 6699TIP3    H141588   6.891   3.023  11.190  0.0988  1.3402  0.5588
 6699TIP3    H241589   6.756   2.984  11.247  0.1118 -0.9117 -0.8993
 6700TIP3   OH241590   6.147   6.527  14.505 -0.1803  0.0753  0.2384
 6700TIP3    H141591   6.227   6.477  14.492  0.8138  1.1148  2.0474
 6700TIP3    H241592   6.150   6.554  14.597 -1.3177  2.3058 -0.3213
 6701TIP3   OH241593   2.488   5.137  11.772  0.1098  0.1247 -0.1692
 6701TIP3    H141594   2.533   5.187  11.839  0.5977  0.7642 -0.9633
 6701TIP3    H241595   2.538   5.055  11.766  0.4644  0.3419 -0.2125
 6702TIP3   OH241596   2.110   5.176  11.258 -0.2702  0.5593  0.0908
 6702TIP3    H141597   2.178   5.241  11.274  1.0932 -0.5550 -1.0412
 6702TIP3    H241598   2.049   5.220  11.198  0.1810  1.1090  0.0338
 6703TIP3   OH241599   0.562   3.702   4.470 -0.0921  0.3585 -0.5978
 6703TIP3    H141600   0.556   3.771   4.404  0.2881 -0.2552 -1.2676
 6703TIP3    H241601   0.502   3.634   4.440  1.5485 -0.7888 -1.3620
 6704TIP3   OH241602   4.459   3.233  15.942 -0.1556 -0.2420  0.0153
 6704TIP3    H141603   4.455   3.302  15.876  3.3178  0.8192  0.7910
 6704TIP3    H241604   4.457   3.152  15.892  0.0470  0.5144 -1.2346
 6705TIP3   OH241605   3.948   3.343   3.049 -0.2955  0.3833 -0.6187
 6705TIP3    H141606   4.038   3.349   3.080 -0.3087  0.3455 -0.5735
 6705TIP3    H241607   3.911   3.430   3.065  0.2464  0.9420 -2.2128
 6706TIP3   OH241608   0.949   2.366  15.236 -0.0762 -0.6105  0.2018
 6706TIP3    H141609   0.943   2.397  15.327  1.7905  0.9989 -0.2174
 6706TIP3    H241610   0.929   2.442  15.183 -0.8150 -1.4705 -0.7773
 6707TIP3   OH241611   5.278   5.297   3.767  0.0697  0.2093  0.2887
 6707TIP3    H141612   5.214   5.266   3.831  2.3654 -2.0502  1.5631
 6707TIP3    H241613   5.309   5.380   3.804 -1.1351  0.6730  0.3042
 6708TIP3   OH241614   3.617   6.133   1.011  0.2005 -0.3195 -0.3755
 6708TIP3    H141615   3.612   6.038   1.005 -0.1459 -0.2287 -1.5213
 6708TIP3    H241616   3.530   6.163   0.986  1.5108  0.4878 -4.2911
 6709TIP3   OH241617   5.568   5.409   3.291  0.2481 -0.4884 -0.1788
 6709TIP3    H141618   5.577   5.320   3.323 -0.0184 -0.5202 -0.1940
 6709TIP3    H241619   5.490   5.407   3.236  0.9165 -0.5169 -1.1253
 6710TIP3   OH241620   0.725   6.134   3.857  0.0687  0.3401 -0.1273
 6710TIP3    H141621   0.770   6.055   3.885 -1.6287 -0.2191  1.0896
 6710TIP3    H241622   0.795   6.191   3.825  1.5723 -0.7446  1.1424
 6711TIP3   OH241623   4.838   1.260  13.920 -0.3848 -0.0859  0.1703
 6711TIP3    H141624   4.794   1.256  14.005  0.5324 -2.1142  0.5707
 6711TIP3    H241625   4.788   1.326  13.871 -3.0010 -1.2812  1.1114
 6712TIP3   OH241626   4.453   6.018   2.050 -0.0694 -0.3224 -0.1969
 6712TIP3    H141627   4.520   5.977   1.994 -0.9830 -1.2350 -0.6313
 6712TIP3    H241628   4.473   5.987   2.138  1.5064  1.2843  0.0504
 6713TIP3   OH241629   3.952   2.725   3.468 -0.0375 -0.2642  0.5137
 6713TIP3    H141630   4.007   2.647   3.459 -0.3455 -0.2293 -1.8565
 6713TIP3    H241631   3.889   2.719   3.396 -0.8746  1.5241  1.0658
 6714TIP3   OH241632   3.153   4.210  15.361 -0.1054  0.2952 -0.0486
 6714TIP3    H141633   3.223   4.147  15.379 -0.8781  0.2728  3.2661
 6714TIP3    H241634   3.194   4.277  15.307  1.5735 -1.4184 -0.9727
 6715TIP3   OH241635   1.834   6.323  15.158 -0.0017  0.5971 -0.7647
 6715TIP3    H141636   1.746   6.348  15.186  0.5677  2.2852 -0.4184
 6715TIP3    H241637   1.886   6.403  15.169  2.0676 -0.9566  1.0481
 6716TIP3   OH241638   5.557   0.791   5.136  0.4191 -0.3532 -0.3350
 6716TIP3    H141639   5.592   0.712   5.094 -1.8140 -0.3890 -2.2177
 6716TIP3    H241640   5.471   0.803   5.096 -0.9663  0.7716  2.8629
 6717TIP3   OH241641   0.784   1.117   5.591  0.4694  0.4207  0.4797
 6717TIP3    H141642   0.853   1.172   5.554 -0.9435  2.3008  0.5639
 6717TIP3    H241643   0.803   1.029   5.559  2.1140  1.1535 -0.6130
 6718TIP3   OH241644   3.009   2.374  13.932 -0.1450  0.5276 -0.1440
 6718TIP3    H141645   3.087   2.420  13.964  1.8822 -1.2076 -2.3863
 6718TIP3    H241646   3.009   2.291  13.980 -1.6061  1.1960  1.0634
 6719TIP3   OH241647   2.035   1.586   2.801  0.2454 -0.2860 -0.2009
 6719TIP3    H141648   2.121   1.578   2.760 -0.2824 -0.3869 -1.3230
 6719TIP3    H241649   1.982   1.632   2.735 -0.9376 -1.4810 -0.1076
 6720TIP3   OH241650   4.845   2.643  11.701 -0.3091  0.3208 -0.7142
 6720TIP3    H141651   4.795   2.698  11.762 -1.1614 -0.7381 -0.4351
 6720TIP3    H241652   4.852   2.696  11.621 -1.5860  0.6255 -0.6323
 6721TIP3   OH241653   3.343   0.775  13.531  0.3324 -0.2729 -0.6204
 6721TIP3    H141654   3.258   0.805  13.500 -0.2851 -1.6325 -0.2888
 6721TIP3    H241655   3.406   0.812  13.469 -0.3617  1.8350 -0.1177
 6722TIP3   OH241656   4.588   6.041  12.240  0.1854 -0.1499 -1.0287
 6722TIP3    H141657   4.570   6.054  12.334 -1.2328 -1.9619 -1.0202
 6722TIP3    H241658   4.643   5.963  12.237  2.0063  1.1240 -1.5926
 6723TIP3   OH241659   3.508   5.440  17.257 -0.0250  0.1494  0.2833
 6723TIP3    H141660   3.585   5.402  17.215 -0.3671 -1.0727  0.7239
 6723TIP3    H241661   3.543   5.484  17.334  0.2972  0.0421  0.2004
 6724TIP3   OH241662   6.181   1.695   2.374 -0.1186 -0.6419  0.4384
 6724TIP3    H141663   6.158   1.723   2.463 -0.4601  0.2844  0.0679
 6724TIP3    H241664   6.275   1.712   2.367 -0.3408  0.5343  0.1825
 6725TIP3   OH241665   5.901   3.467   4.684 -0.2453 -0.2052 -0.1652
 6725TIP3    H141666   5.867   3.431   4.766  2.6410 -1.3638  0.5961
 6725TIP3    H241667   5.985   3.507   4.708  1.5380 -2.1856 -2.8194
 6726TIP3   OH241668   6.606   6.698   3.289  0.0439 -0.1057  0.7233
 6726TIP3    H141669   6.515   6.722   3.301 -0.1879 -1.1454  1.0524
 6726TIP3    H241670   6.608   6.652   3.205 -0.0778 -1.7999  1.6273
 6727TIP3   OH241671   0.907   1.970  12.129  0.3593 -0.0484  0.1871
 6727TIP3    H141672   0.846   1.977  12.055 -0.1344 -0.3737  0.5596
 6727TIP3    H241673   0.952   1.887  12.116 -1.0157 -0.9756  1.2119
 6728TIP3   OH241674   1.220   5.818   6.015 -0.2349  0.0193 -0.2144
 6728TIP3    H141675   1.154   5.749   6.017  0.2259 -0.4000  1.0072
 6728TIP3    H241676   1.172   5.898   6.038 -0.9411  0.2685 -2.4778
 6729TIP3   OH241677   6.111   4.625   6.256  0.3966 -0.5094  0.4481
 6729TIP3    H141678   6.160   4.640   6.337  0.9232 -0.4172  0.1152
 6729TIP3    H241679   6.107   4.711   6.214  0.3090 -0.5996  0.2729
 6730TIP3   OH241680   5.103   3.618   5.401  0.0241  0.3017  0.2353
 6730TIP3    H141681   5.070   3.683   5.339 -1.2881 -0.5592  0.0013
 6730TIP3    H241682   5.159   3.668   5.461 -0.4659  1.5304 -0.3138
 6731TIP3   OH241683   0.656   1.253  16.342 -0.4570 -0.0316  0.3426
 6731TIP3    H141684   0.640   1.159  16.341  0.6315 -0.2216 -2.1918
 6731TIP3    H241685   0.751   1.262  16.335 -0.6868  1.2657 -1.4483
 6732TIP3   OH241686   5.323   6.022   1.654  0.3589 -0.6222  0.2443
 6732TIP3    H141687   5.331   6.117   1.652  0.9152 -0.6710  0.1585
 6732TIP3    H241688   5.359   5.992   1.570  2.1984 -1.0532  1.1558
 6733TIP3   OH241689   4.167   5.235  16.562  0.2062  0.1038  0.2257
 6733TIP3    H141690   4.243   5.260  16.616 -0.3297 -0.2879  1.1627
 6733TIP3    H241691   4.203   5.226  16.474  0.7737  2.4583  0.1688
 6734TIP3   OH241692   2.218   3.435  11.113 -0.0835 -0.2841 -0.5860
 6734TIP3    H141693   2.278   3.360  11.115 -1.0475 -1.0533  1.6843
 6734TIP3    H241694   2.264   3.504  11.161  0.7046  0.5206 -2.4699
 6735TIP3   OH241695   6.309   2.828  16.813 -0.2022  0.3868  0.2186
 6735TIP3    H141696   6.291   2.740  16.846 -0.4491 -0.1535 -1.3142
 6735TIP3    H241697   6.372   2.865  16.875 -0.7806 -0.5384  1.3613
 6736TIP3   OH241698   6.063   5.321   1.498  0.5298  0.5231  0.3099
 6736TIP3    H141699   6.099   5.374   1.569  0.2386  1.6897 -0.3912
 6736TIP3    H241700   5.986   5.370   1.468  0.6005  0.0022 -0.7464
 6737TIP3   OH241701   3.361   1.249  15.051 -0.4708  0.0791  0.6970
 6737TIP3    H141702   3.376   1.343  15.058  1.7639 -0.2818  1.1298
 6737TIP3    H241703   3.310   1.227  15.129 -0.9181  0.9158  0.6417
 6738TIP3   OH241704   4.970   6.316   4.452 -0.3327 -0.1838 -0.0292
 6738TIP3    H141705   4.908   6.354   4.389 -0.7431  0.8910  1.0091
 6738TIP3    H241706   4.939   6.345   4.537  1.4194  0.1001  0.5360
 6739TIP3   OH241707   4.474   0.075  10.483  0.2068 -0.0535  0.5266
 6739TIP3    H141708   4.512   0.025  10.556  1.4136 -0.8844 -0.6344
 6739TIP3    H241709   4.524   0.046  10.406 -1.0151  0.8348 -0.6244
 6740TIP3   OH241710   1.917   4.478  11.679  0.2947  0.3067 -0.0953
 6740TIP3    H141711   1.825   4.459  11.666 -0.3623  3.3630 -0.2314
 6740TIP3    H241712   1.961   4.393  11.671 -2.5881 -1.3489  1.0495
 6741TIP3   OH241713   6.626   0.541  16.680 -0.2351  0.4939  0.3032
 6741TIP3    H141714   6.692   0.608  16.698  0.3867  0.0930 -0.4927
 6741TIP3    H241715   6.675   0.466  16.646 -1.1400  0.3562 -0.7311
 6742TIP3   OH241716   2.805   3.361   1.573 -0.0933 -0.1756  0.3879
 6742TIP3    H141717   2.898   3.383   1.571 -0.1081 -0.1289  0.1766
 6742TIP3    H241718   2.786   3.330   1.484 -0.1100 -0.8908  0.6390
 6743TIP3   OH241719   1.217   4.807   2.750 -0.5289 -0.1799 -0.2504
 6743TIP3    H141720   1.288   4.769   2.698 -0.8823 -1.4623  0.1653
 6743TIP3    H241721   1.176   4.731   2.792 -1.0269  0.7161  0.9098
 6744TIP3   OH241722   2.962   1.127   4.487  0.2033  0.2017  0.8919
 6744TIP3    H141723   2.887   1.185   4.503  0.2855  0.7065 -0.4929
 6744TIP3    H241724   2.958   1.107   4.394  0.7257 -1.2810  1.1702
 6745TIP3   OH241725   3.688   0.593  11.770 -0.6211  0.1909  0.0916
 6745TIP3    H141726   3.593   0.590  11.758 -0.5610 -2.0501 -0.1733
 6745TIP3    H241727   3.716   0.670  11.722 -2.4310  1.5233  1.1075
 6746TIP3   OH241728   6.463   3.425  11.534 -0.0768 -0.0827 -0.2658
 6746TIP3    H141729   6.454   3.490  11.464 -1.4533  1.6988  1.4697
 6746TIP3    H241730   6.477   3.342  11.489  0.2018  1.1888 -2.6041
 6747TIP3   OH241731   0.327   0.171   1.334  0.1515 -0.5449  0.1707
 6747TIP3    H141732   0.271   0.248   1.321  2.4234  1.4469  1.8337
 6747TIP3    H241733   0.394   0.178   1.266  0.7219 -0.7088  0.7099
 6748TIP3   OH241734   0.176   2.123  15.583  0.0228  0.0038 -0.1561
 6748TIP3    H141735   0.118   2.049  15.561  0.0146 -0.3955  1.1717
 6748TIP3    H241736   0.145   2.153  15.668  1.3798  0.2008  0.2714
 6749TIP3   OH241737   2.476   6.576   5.273 -0.0956  0.1631  0.6069
 6749TIP3    H141738   2.498   6.495   5.321  0.8952 -0.3261 -0.6494
 6749TIP3    H241739   2.530   6.572   5.194 -0.4317  1.8151  0.2833
 6750TIP3   OH241740   5.794   3.009  15.559 -0.2861 -0.4482 -0.7432
 6750TIP3    H141741   5.755   2.965  15.483 -0.3183  3.9369 -3.4591
 6750TIP3    H241742   5.723   3.063  15.594  0.8328  0.5831 -0.0281
 6751TIP3   OH241743   3.351   4.860  16.197  0.4572  0.2023 -0.0360
 6751TIP3    H141744   3.424   4.828  16.251  0.4762 -0.8724 -0.6927
 6751TIP3    H241745   3.362   4.955  16.197  2.3134  0.0122 -0.7365
 6752TIP3   OH241746   0.079   1.464  15.815 -1.2811 -1.2037  0.7329
 6752TIP3    H141747   0.082   1.523  15.890 -0.8629 -1.7986  1.1967
 6752TIP3    H241748   0.000   1.488  15.768 -0.8514  0.0453  0.6544
 6753TIP3   OH241749   6.599   0.333   5.028  0.8404 -0.3078 -0.1627
 6753TIP3    H141750   6.580   0.245   5.060  1.5804  0.7730  3.5744
 6753TIP3    H241751   6.515   0.379   5.033  1.0538 -0.0062  0.7349
 6754TIP3   OH241752   3.280   5.486  11.839 -0.1841 -0.3760 -0.1552
 6754TIP3    H141753   3.217   5.498  11.910  0.3363 -0.9355  0.4052
 6754TIP3    H241754   3.282   5.392  11.824 -1.7960 -0.1117 -2.2930
 6755TIP3   OH241755   5.117   3.890  14.455  0.0483  0.1172  0.1546
 6755TIP3    H141756   5.050   3.862  14.518 -1.1832  0.6377 -0.9176
 6755TIP3    H241757   5.068   3.931  14.384  1.5784  1.4470 -0.1587
 6756TIP3   OH241758   5.327   2.718  16.615 -0.0614  0.0647 -0.1078
 6756TIP3    H141759   5.314   2.709  16.710  0.3261 -1.3824 -0.1803
 6756TIP3    H241760   5.423   2.720  16.605 -0.0725  3.0843 -0.2387
 6757TIP3   OH241761   5.120   3.740  13.878 -0.1967 -0.2793  0.5742
 6757TIP3    H141762   5.077   3.751  13.794 -3.2514 -3.2732  1.6535
 6757TIP3    H241763   5.201   3.692  13.858 -0.5652 -0.3647 -0.7190
 6758TIP3   OH241764   6.104   0.630  16.318 -0.0712  0.1484 -0.1822
 6758TIP3    H141765   6.155   0.698  16.363 -0.9826  0.3518  0.5526
 6758TIP3    H241766   6.163   0.554  16.316  0.6607  0.7143 -0.3057
 6759TIP3   OH241767   2.894   1.203   3.651 -0.4269  0.0420  0.8460
 6759TIP3    H141768   2.852   1.148   3.717  0.9913 -0.8063  1.0728
 6759TIP3    H241769   2.985   1.211   3.681  0.3916 -0.8746 -1.3055
 6760TIP3   OH241770   6.270   3.682  13.447 -0.4363 -0.0601  0.0633
 6760TIP3    H141771   6.219   3.750  13.492 -0.9662 -0.1476 -0.4007
 6760TIP3    H241772   6.275   3.610  13.511  1.0794  0.8351  0.9735
 6761TIP3   OH241773   6.025   1.146   1.882 -0.0786  0.4834  0.4095
 6761TIP3    H141774   6.002   1.174   1.793  0.5124  2.2331  0.7935
 6761TIP3    H241775   6.056   1.056   1.871  1.3358  1.1558 -1.3902
 6762TIP3   OH241776   4.166   4.395   5.101  0.4339  0.1946  0.0178
 6762TIP3    H141777   4.244   4.450   5.109  1.3084 -1.1523  0.8738
 6762TIP3    H241778   4.126   4.396   5.188  0.9116 -1.1913  0.2608
 6763TIP3   OH241779   6.063   0.809  15.469  0.3056 -0.2150  0.3202
 6763TIP3    H141780   6.061   0.904  15.479  0.0775 -0.2675  0.7680
 6763TIP3    H241781   6.058   0.775  15.558  0.8264 -0.6397  0.1892
 6764TIP3   OH241782   4.719   1.597   0.656  0.1626 -0.4423  0.0156
 6764TIP3    H141783   4.653   1.535   0.626 -0.6229 -0.0519  0.9159
 6764TIP3    H241784   4.677   1.683   0.649  0.2017 -0.2835  1.5785
 6765TIP3   OH241785   4.225   1.399   5.269 -0.4522  0.0223 -0.3206
 6765TIP3    H141786   4.224   1.305   5.284 -1.6645  0.4763  2.7883
 6765TIP3    H241787   4.163   1.435   5.333 -0.5090  2.8801 -1.8623
 6766TIP3   OH241788   6.342   0.708  17.034 -0.1043 -0.2522 -0.7381
 6766TIP3    H141789   6.307   0.797  17.041  0.3363 -0.1277 -0.0831
 6766TIP3    H241790   6.391   0.695  17.115  1.4023 -0.4039 -1.6389
 6767TIP3   OH241791   4.215   4.823  16.669 -0.4019 -0.5895 -0.6230
 6767TIP3    H141792   4.161   4.826  16.748  1.1516  1.7752  0.3989
 6767TIP3    H241793   4.163   4.867  16.602 -0.8147 -0.6803 -0.3651
 6768TIP3   OH241794   3.138   6.184  11.960  0.0378  0.0384 -0.1985
 6768TIP3    H141795   3.062   6.240  11.947 -0.5015 -0.3688  1.1422
 6768TIP3    H241796   3.208   6.226  11.910 -1.2244  0.0577 -1.9752
 6769TIP3   OH241797   0.716   0.523  16.597 -0.1585  0.1162  0.4764
 6769TIP3    H141798   0.678   0.512  16.509 -0.7825  0.0760  0.7461
 6769TIP3    H241799   0.783   0.589  16.586 -0.5052  0.3976  0.0418
 6770TIP3   OH241800   1.382   5.079   6.061 -0.2478 -0.2719 -0.4262
 6770TIP3    H141801   1.292   5.113   6.061 -0.0589  0.2204  0.4373
 6770TIP3    H241802   1.377   5.002   6.005 -0.9669  0.3935 -1.2951
 6771TIP3   OH241803   0.882   2.327   5.062  0.0844 -0.5032 -0.4202
 6771TIP3    H141804   0.808   2.367   5.107  0.9476  0.5777  0.0506
 6771TIP3    H241805   0.936   2.291   5.132  0.5348 -0.3670 -0.6991
 6772TIP3   OH241806   3.307   4.551  16.071 -0.1762  0.4385 -0.4178
 6772TIP3    H141807   3.299   4.462  16.039  2.5982  0.0314 -0.1118
 6772TIP3    H241808   3.290   4.606  15.995  0.4189 -0.4003 -1.1639
 6773TIP3   OH241809   5.804   5.964   3.843  0.3615  0.2591  0.7025
 6773TIP3    H141810   5.798   5.942   3.750  0.8085  0.0006  0.7346
 6773TIP3    H241811   5.888   6.008   3.853 -1.1420  3.3307  0.3839
 6774TIP3   OH241812   1.095   3.548   0.021  0.7741 -0.4624  0.1490
 6774TIP3    H141813   1.116   3.545  -0.073 -1.1407  1.6782 -0.3770
 6774TIP3    H241814   1.118   3.637   0.048  0.4085 -0.7748  1.5009
 6775TIP3   OH241815   0.103   6.769  13.569 -0.3691 -0.1052 -0.4010
 6775TIP3    H141816   0.028   6.727  13.526 -0.1879 -1.3300  0.4591
 6775TIP3    H241817   0.131   6.706  13.635  0.4040  1.0497  0.3869
 6776TIP3   OH241818   4.230   2.679  16.941  0.2915 -0.2425  0.0818
 6776TIP3    H141819   4.192   2.761  16.911 -1.8077 -0.8388  1.0680
 6776TIP3    H241820   4.307   2.667  16.885  0.1733  1.9812 -0.5975
 6777TIP3   OH241821   2.856   6.175  13.465  0.1721  0.7061 -0.4927
 6777TIP3    H141822   2.769   6.189  13.502  0.0992  1.3104 -0.8673
 6777TIP3    H241823   2.911   6.149  13.539 -0.1669  1.0406 -0.1253
 6778TIP3   OH241824   4.197   5.143  12.812  0.4619  0.3669 -0.3215
 6778TIP3    H141825   4.268   5.127  12.750  1.4233 -1.1023  1.1220
 6778TIP3    H241826   4.141   5.066  12.805  0.4890  0.2638  0.5086
 6779TIP3   OH241827   1.605   6.452   3.630  0.5265 -0.5847  0.3105
 6779TIP3    H141828   1.555   6.507   3.570 -0.6744 -0.8203  1.0789
 6779TIP3    H241829   1.562   6.465   3.715  2.0737 -0.4126  1.0748
 6780TIP3   OH241830   3.761   1.044  10.785  0.3516  0.1006  0.0861
 6780TIP3    H141831   3.835   0.994  10.820  0.7925 -0.1617 -1.1827
 6780TIP3    H241832   3.786   1.063  10.695 -0.4070  1.4702  0.1567
 6781TIP3   OH241833   0.238   6.645   0.762  0.1295 -0.2863  0.5232
 6781TIP3    H141834   0.270   6.556   0.750 -0.2787 -0.5388  1.3053
 6781TIP3    H241835   0.144   6.636   0.773 -0.4943  0.5829 -3.3487
 6782TIP3   OH241836   2.823   3.021  13.962  0.5421 -0.6495  0.0670
 6782TIP3    H141837   2.870   3.074  13.897 -0.3773 -0.6684 -0.6139
 6782TIP3    H241838   2.826   2.932  13.927 -0.6041 -0.5374 -0.3239
 6783TIP3   OH241839   1.010   4.184   0.086  0.6473  0.0375  0.0152
 6783TIP3    H141840   1.009   4.241   0.164 -4.1828 -0.6966  0.6271
 6783TIP3    H241841   1.016   4.095   0.122 -1.0915 -0.2744 -0.4410
 6784TIP3   OH241842   0.730   3.485   1.717 -0.1507  0.2513  0.1518
 6784TIP3    H141843   0.814   3.456   1.682 -0.6149 -0.2665 -0.5533
 6784TIP3    H241844   0.744   3.577   1.738  1.3405 -0.4658  2.4654
 6785TIP3   OH241845   5.460   6.479   2.244 -0.0681 -0.4504 -0.1493
 6785TIP3    H141846   5.414   6.415   2.298 -0.5604 -0.4917 -0.6185
 6785TIP3    H241847   5.413   6.480   2.161  0.6519 -0.3429 -0.5654
 6786TIP3   OH241848   6.518   2.271   1.815 -0.2599 -0.0900  0.3164
 6786TIP3    H141849   6.528   2.281   1.910 -1.9289  1.9335  0.3162
 6786TIP3    H241850   6.432   2.309   1.797  0.2343 -0.0766 -2.0795
 6787TIP3   OH241851   2.948   0.046   5.251 -0.1778 -0.0485 -0.2604
 6787TIP3    H141852   2.889   0.121   5.255 -0.5352 -0.3059 -0.7120
 6787TIP3    H241853   3.018   0.068   5.312 -0.5295  0.4391 -0.0259
 6788TIP3   OH241854   6.476   3.427   1.156  0.3723  0.0636 -0.2228
 6788TIP3    H141855   6.499   3.334   1.156  2.0163  0.4505  1.0006
 6788TIP3    H241856   6.402   3.433   1.095  0.7483 -1.9157 -0.9245
 6789TIP3   OH241857   2.655   5.253   1.292  0.3075 -0.4667 -0.1286
 6789TIP3    H141858   2.624   5.179   1.240  1.5439 -0.2448 -1.1778
 6789TIP3    H241859   2.746   5.233   1.311 -0.0327 -0.3958  1.7203
 6790TIP3   OH241860   3.708   1.341  13.645 -0.1104  1.2745  0.1842
 6790TIP3    H141861   3.665   1.419  13.609  0.4936  1.4189 -0.2450
 6790TIP3    H241862   3.670   1.268  13.597 -0.7242  1.3025  0.6300
 6791TIP3   OH241863   4.632   3.866  15.830 -0.5163 -0.0236 -0.0501
 6791TIP3    H141864   4.637   3.944  15.885 -0.6833  1.0385 -1.5001
 6791TIP3    H241865   4.720   3.827  15.836 -0.8970 -0.6144  1.9213
 6792TIP3   OH241866   0.815   4.040  11.004 -0.0725  0.3481  0.1544
 6792TIP3    H141867   0.909   4.028  10.993  0.3268  1.8703  1.7487
 6792TIP3    H241868   0.776   3.967  10.957  1.9135 -0.4575 -0.2816
 6793TIP3   OH241869   5.455   3.675  13.200  0.0305  0.2465 -0.2070
 6793TIP3    H141870   5.482   3.735  13.130 -2.1350  0.7613 -0.6460
 6793TIP3    H241871   5.410   3.731  13.263  0.3787 -0.5072  0.7192
 6794TIP3   OH241872   0.704   6.607   5.495 -0.1084  0.2645  0.0573
 6794TIP3    H141873   0.634   6.609   5.559  1.4122 -0.1906  1.7923
 6794TIP3    H241874   0.676   6.666   5.425 -1.2497  1.7077  1.7115
 6795TIP3   OH241875   3.797   1.027   4.901 -0.7256 -0.3872  0.8408
 6795TIP3    H141876   3.880   0.979   4.909  0.2644  1.2952  0.7553
 6795TIP3    H241877   3.795   1.085   4.976 -0.4835  1.6191 -0.6738
 6796TIP3   OH241878   3.382   5.116   3.391 -0.2657 -0.7978 -0.2332
 6796TIP3    H141879   3.466   5.073   3.377 -0.1305 -1.1144  1.4181
 6796TIP3    H241880   3.400   5.182   3.458 -1.2620 -0.6187 -0.1319
 6797TIP3   OH241881   5.813   4.203   3.674 -0.2424  0.1599 -0.5249
 6797TIP3    H141882   5.779   4.244   3.594  2.7371  1.7428 -1.0922
 6797TIP3    H241883   5.794   4.267   3.743 -0.1136  0.1913 -0.5177
 6798TIP3   OH241884   2.396   6.361  14.938 -0.4252  0.3221 -0.7723
 6798TIP3    H141885   2.408   6.352  14.844  0.6121  1.6814 -0.8002
 6798TIP3    H241886   2.355   6.280  14.966  1.2827 -1.0241 -2.0669
 6799TIP3   OH241887   4.182   1.558  12.109 -0.0334  0.6735 -0.1220
 6799TIP3    H141888   4.243   1.541  12.037  2.1440 -0.5084  1.9008
 6799TIP3    H241889   4.173   1.653  12.111  0.2161  0.7495 -1.6677
 6800TIP3   OH241890   6.338   0.177   5.874 -0.0365 -0.4904  0.3193
 6800TIP3    H141891   6.372   0.251   5.823 -1.1546 -0.1959 -0.0135
 6800TIP3    H241892   6.318   0.214   5.959 -1.0960 -0.2832 -0.0136
 6801TIP3   OH241893   3.279   3.745  14.485  0.1848 -0.0053 -0.4844
 6801TIP3    H141894   3.310   3.712  14.401  0.4604 -1.2251  0.0960
 6801TIP3    H241895   3.355   3.739  14.543  0.0577  1.0380 -0.1985
 6802TIP3   OH241896   5.736   3.640   2.957  0.0462  0.1854  0.0282
 6802TIP3    H141897   5.790   3.677   2.887  2.3508 -0.4132  1.4563
 6802TIP3    H241898   5.699   3.560   2.919  3.8744 -1.9125  0.4630
 6803TIP3   OH241899   1.157   3.872  14.091 -0.3862 -0.2938  0.2206
 6803TIP3    H141900   1.116   3.841  14.172  1.1961 -1.4163  0.6200
 6803TIP3    H241901   1.186   3.791  14.047 -2.3190  0.2010 -2.0825
 6804TIP3   OH241902   6.039   5.874  14.255  0.3776 -0.0630  0.0852
 6804TIP3    H141903   6.039   5.965  14.228 -2.7291 -0.3978 -1.2690
 6804TIP3    H241904   5.951   5.859  14.289  0.8882 -2.5065  0.4417
 6805TIP3   OH241905   2.639   4.412  12.834  0.6612  0.3704  0.2015
 6805TIP3    H141906   2.691   4.383  12.909 -0.3454  0.3237  0.8894
 6805TIP3    H241907   2.548   4.398  12.861  0.3015  0.0381 -1.1598
 6806TIP3   OH241908   0.762   1.284   0.942 -0.0873  0.4528 -0.2013
 6806TIP3    H141909   0.667   1.284   0.936 -0.1851 -0.0662  1.2903
 6806TIP3    H241910   0.788   1.370   0.909 -1.0679  0.6196 -0.5560
 6807TIP3   OH241911   5.900   2.592   3.854 -0.6207 -0.1960 -0.5012
 6807TIP3    H141912   5.953   2.557   3.782 -0.0785 -0.7525  0.1512
 6807TIP3    H241913   5.952   2.574   3.932 -2.7755 -2.8279  0.4134
 6808TIP3   OH241914   0.344   0.505   2.253  0.1145 -0.4558 -0.0350
 6808TIP3    H141915   0.351   0.472   2.164  0.0882  0.5086 -0.4018
 6808TIP3    H241916   0.427   0.481   2.294  0.8640  0.6387 -0.8559
 6809TIP3   OH241917   1.685   2.468   2.897 -0.9852 -0.0995  0.2196
 6809TIP3    H141918   1.723   2.381   2.882 -2.4816 -0.8009  0.4560
 6809TIP3    H241919   1.656   2.495   2.810 -0.2640  0.2940  0.0978
 6810TIP3   OH241920   4.449   4.127  12.287 -0.1089  0.2502 -0.0705
 6810TIP3    H141921   4.460   4.046  12.337  1.0948  1.3337  1.4804
 6810TIP3    H241922   4.538   4.156  12.269 -0.5349  0.8672 -1.2306
 6811TIP3   OH241923   6.775   3.716   6.764  0.1339 -0.2607 -0.3583
 6811TIP3    H141924   6.767   3.625   6.791 -0.5258 -0.1950 -0.3280
 6811TIP3    H241925   6.688   3.740   6.732  0.9158 -0.3384 -2.6203
 6812TIP3   OH241926   0.005   5.457  16.980 -0.0061  0.3030  0.1307
 6812TIP3    H141927   0.044   5.462  16.893  0.6868 -1.5291  0.3148
 6812TIP3    H241928   0.064   5.509  17.036  1.5723 -1.4546  0.1705
 6813TIP3   OH241929   2.675   2.531  14.256 -0.5651  1.4830  0.1649
 6813TIP3    H141930   2.683   2.616  14.300  0.6758  2.1494 -1.3000
 6813TIP3    H241931   2.700   2.548  14.165  0.7223 -0.6479  0.0752
 6814TIP3   OH241932   3.885   4.363   2.469  0.0055  0.0276  0.1913
 6814TIP3    H141933   3.913   4.290   2.524  2.7571  1.7421  1.1881
 6814TIP3    H241934   3.836   4.322   2.398  1.8227 -2.8576  0.4904
 6815TIP3   OH241935   2.396   2.030  14.216  0.5789  0.4405  0.0607
 6815TIP3    H141936   2.408   2.123  14.195  1.8260  0.4163  0.6413
 6815TIP3    H241937   2.418   1.984  14.135 -0.6096  0.6715 -0.4066
 6816TIP3   OH241938   6.414   2.009   0.569  0.6993  0.1319 -0.3028
 6816TIP3    H141939   6.430   1.915   0.567  0.2937  0.0144  1.5571
 6816TIP3    H241940   6.431   2.035   0.659 -0.5372  1.6064 -0.4731
 6817TIP3   OH241941   5.984   5.461  13.571  0.5973  0.2296  0.8880
 6817TIP3    H141942   5.960   5.549  13.599  1.7554  1.1433 -0.8991
 6817TIP3    H241943   5.923   5.441  13.500  1.4122  0.2901  0.1588
 6818TIP3   OH241944   3.866   1.544  14.058  0.9729  0.0381 -0.1679
 6818TIP3    H141945   3.800   1.613  14.056 -0.8623 -1.6101  0.9373
 6818TIP3    H241946   3.927   1.567  13.989 -1.2537  1.1621 -1.8280
 6819TIP3   OH241947   6.010   4.298  13.650 -0.5670  0.0423 -0.4871
 6819TIP3    H141948   5.950   4.299  13.575 -1.2723  0.9634  0.0799
 6819TIP3    H241949   5.963   4.347  13.718 -0.2843 -1.5082  0.8274
 6820TIP3   OH241950   4.165   4.467  14.631 -0.2794 -0.0623  0.8339
 6820TIP3    H141951   4.162   4.556  14.596 -0.5450 -1.4907 -3.0136
 6820TIP3    H241952   4.256   4.440  14.617 -0.2524 -0.4804  1.8020
 6821TIP3   OH241953   4.176   1.290  17.178  0.5861 -0.4230 -0.0225
 6821TIP3    H141954   4.266   1.322  17.172  0.8161 -1.0834 -0.1981
 6821TIP3    H241955   4.123   1.361  17.143  0.8062  0.9969  2.3954
 6822TIP3   OH241956   0.672   4.962   3.786 -0.3739 -0.4085 -0.1772
 6822TIP3    H141957   0.626   5.017   3.849  1.2798 -1.9083  2.4394
 6822TIP3    H241958   0.635   4.875   3.799  1.6344 -1.1997  0.4480
 6823TIP3   OH241959   6.011   0.301  15.698  0.7937  0.3438 -0.0029
 6823TIP3    H141960   6.031   0.274  15.787 -0.7295  0.3456  0.3536
 6823TIP3    H241961   5.923   0.339  15.704 -1.2296 -3.6354 -2.2682
 6824TIP3   OH241962   0.694   6.273   3.517 -0.1647  0.0578  0.5690
 6824TIP3    H141963   0.725   6.192   3.477  1.1848  0.8046  0.0734
 6824TIP3    H241964   0.601   6.257   3.534 -0.3483 -0.9228 -1.2116
 6825TIP3   OH241965   6.111   3.492  12.819 -0.2288 -0.5280 -0.2620
 6825TIP3    H141966   6.142   3.527  12.736  1.5061  0.3513  0.7410
 6825TIP3    H241967   6.183   3.438  12.852  0.2186  1.3233  1.9603
 6826TIP3   OH241968   4.293   5.028  11.536  0.0236  0.3261  0.4469
 6826TIP3    H141969   4.232   4.990  11.600 -1.1514  1.9537  0.3094
 6826TIP3    H241970   4.302   5.119  11.563  0.5172  0.6965 -0.9721
 6827TIP3   OH241971   1.259   6.386   2.615  0.1062  0.4702  0.0117
 6827TIP3    H141972   1.212   6.340   2.545  0.1018 -1.0598  0.9979
 6827TIP3    H241973   1.191   6.431   2.665 -0.1278 -0.2012  0.3064
 6828TIP3   OH241974   4.881   3.626   2.746 -0.2488 -0.6940 -0.0190
 6828TIP3    H141975   4.794   3.640   2.707  0.4703 -0.8823 -1.7255
 6828TIP3    H241976   4.914   3.547   2.702  0.6967 -0.7474  0.7897
 6829TIP3   OH241977   4.253   3.742   5.597  0.2757  0.7089 -0.1879
 6829TIP3    H141978   4.242   3.815   5.537 -1.4217  0.4929 -0.1574
 6829TIP3    H241979   4.230   3.779   5.683  2.5971  0.9952  0.3442
 6830TIP3   OH241980   3.462   6.488   4.511  0.1435  0.5240  0.0975
 6830TIP3    H141981   3.523   6.444   4.452 -0.2822 -0.2657  0.2340
 6830TIP3    H241982   3.516   6.550   4.560  0.7374  0.2080 -0.1571
 6831TIP3   OH241983   1.099   1.508  16.414  0.1394  0.3195 -0.0155
 6831TIP3    H141984   1.041   1.442  16.377  0.6088 -0.2875  0.3095
 6831TIP3    H241985   1.187   1.477  16.392  0.3640  0.7697  0.2526
 6832TIP3   OH241986   2.952   4.058   1.999  0.0747  0.1291 -0.5819
 6832TIP3    H141987   2.934   4.148   2.026  0.0675 -0.4823  1.4795
 6832TIP3    H241988   2.955   4.063   1.903 -0.9935  2.1182 -0.5529
 6833TIP3   OH241989   6.476   4.653   5.274  1.0875  0.0168  0.6541
 6833TIP3    H141990   6.405   4.591   5.285  0.5933  0.5349  0.4034
 6833TIP3    H241991   6.549   4.615   5.322  1.6001 -2.0703 -1.6689
 6834TIP3   OH241992   3.065   4.693   2.617  0.5604 -0.0314  0.2607
 6834TIP3    H141993   3.100   4.739   2.540  0.6502 -1.0741 -0.3302
 6834TIP3    H241994   3.120   4.723   2.689  1.3982 -0.1326 -0.3236
 6835TIP3   OH241995   6.798   4.624  12.488 -0.6157 -0.5686 -0.0107
 6835TIP3    H141996   6.782   4.535  12.520 -3.1399 -0.2231 -0.2835
 6835TIP3    H241997   6.786   4.680  12.565 -0.1969 -0.3327 -0.1113
 6836TIP3   OH241998   1.376   4.228   1.141 -0.2439  0.2709  0.2254
 6836TIP3    H141999   1.422   4.302   1.102  0.0260  0.8703  1.6458
 6836TIP3    H242000   1.370   4.250   1.234  0.2621 -1.7117  0.7447
 6837TIP3   OH242001   1.265   3.905   5.440 -0.3277 -0.0825  0.4780
 6837TIP3    H142002   1.341   3.861   5.477  0.2542  0.6610  0.1872
 6837TIP3    H242003   1.225   3.840   5.383  0.4481 -0.2860  0.1567
 6838TIP3   OH242004   3.718   3.800   1.351  0.2740 -0.3033 -0.0449
 6838TIP3    H142005   3.739   3.721   1.400 -2.4723  0.6322  2.7690
 6838TIP3    H242006   3.642   3.776   1.297  1.6807 -0.5702 -1.9795
 6839TIP3   OH242007   5.468   3.253   3.042 -0.0149  0.0438 -0.7415
 6839TIP3    H142008   5.401   3.208   3.092 -0.1434  1.6072  0.5336
 6839TIP3    H242009   5.510   3.184   2.990  0.3490 -1.6753  1.7558
 6840TIP3   OH242010   3.461   1.410   5.545 -0.1432  0.4306 -0.0902
 6840TIP3    H142011   3.444   1.466   5.621  0.0854  0.8496 -0.3461
 6840TIP3    H242012   3.430   1.324   5.572  2.4892 -0.0827  1.5083
 6841TIP3   OH242013   2.152   0.990   1.745 -0.3783 -0.2399 -0.0788
 6841TIP3    H142014   2.218   0.929   1.776  0.5318  0.7010 -0.1345
 6841TIP3    H242015   2.072   0.937   1.737  0.2678 -1.2973  0.3417
 6842TIP3   OH242016   3.918   1.898  13.252 -0.5810 -0.3176  0.1904
 6842TIP3    H142017   3.937   1.949  13.173 -2.3741 -1.3108 -0.9478
 6842TIP3    H242018   3.978   1.823  13.247 -0.8786 -0.5238 -0.4027
 6843TIP3   OH242019   2.966   3.675  13.607  0.2744  0.3314  0.2274
 6843TIP3    H142020   2.941   3.738  13.675 -0.2804 -0.8628  1.1683
 6843TIP3    H242021   3.045   3.711  13.568 -0.9667  2.4630 -0.4169
 6844TIP3   OH242022   6.230   0.581  12.884  0.1485  0.2944  0.3830
 6844TIP3    H142023   6.212   0.594  12.792  0.4786  1.5831  0.4967
 6844TIP3    H242024   6.323   0.602  12.894  0.5401 -1.4773  0.7047
 6845TIP3   OH242025   1.127   1.499  12.831 -0.2134 -0.0017  0.1069
 6845TIP3    H142026   1.070   1.457  12.766 -1.5462 -0.4010  1.5229
 6845TIP3    H242027   1.128   1.591  12.805 -1.4406 -0.0012  0.0049
 6846TIP3   OH242028   4.466   6.624  13.995  0.6478 -0.0718 -0.1356
 6846TIP3    H142029   4.525   6.691  13.961  1.7979 -0.0470  1.8176
 6846TIP3    H242030   4.379   6.653  13.969  1.1393  2.0705  0.5027
 6847TIP3   OH242031   4.413   2.437   6.499 -0.1707  0.1437  0.3408
 6847TIP3    H142032   4.344   2.497   6.527  0.6278  0.4969  1.5943
 6847TIP3    H242033   4.490   2.463   6.550  1.2558  0.6032 -1.9718
 6848TIP3   OH242034   5.061   6.004   3.313  0.2221  0.4807 -0.6591
 6848TIP3    H142035   5.021   5.926   3.274  0.4973 -1.3152  2.4076
 6848TIP3    H242036   4.998   6.030   3.381  1.0267  1.8130 -0.4187
 6849TIP3   OH242037   1.208   3.521  15.784 -0.0974 -0.2749  0.1502
 6849TIP3    H142038   1.177   3.436  15.754  2.7930 -1.5687  0.6252
 6849TIP3    H242039   1.167   3.533  15.870  0.0701 -1.5279  0.4048
 6850TIP3   OH242040   5.181   4.164  15.992 -0.1169 -0.1495  0.0826
 6850TIP3    H142041   5.120   4.107  15.946  0.2431  0.0402 -0.6429
 6850TIP3    H242042   5.224   4.214  15.922 -1.0613  1.6353  0.7633
 6851TIP3   OH242043   3.436   3.662  16.674  0.4758  0.5005  0.0590
 6851TIP3    H142044   3.525   3.652  16.642  0.4745 -1.3247  0.5560
 6851TIP3    H242045   3.386   3.692  16.598  1.2187  0.0558 -0.6153
 6852TIP3   OH242046   3.167   4.874  10.282 -0.0187 -0.2743 -0.3205
 6852TIP3    H142047   3.142   4.806  10.344  0.1529 -0.1186 -0.0766
 6852TIP3    H242048   3.133   4.845  10.198 -0.4733 -0.3625 -0.1037
 6853TIP3   OH242049   1.028   2.952   0.082 -1.1751 -0.5295 -0.2696
 6853TIP3    H142050   0.972   3.008   0.028 -0.2801  0.8998  0.2451
 6853TIP3    H242051   1.011   2.980   0.172  0.7629  0.3384 -0.1430
 6854TIP3   OH242052   5.316   4.001  15.638 -0.5008 -0.0047 -0.0669
 6854TIP3    H142053   5.355   3.942  15.573  1.1830 -0.0321  0.9495
 6854TIP3    H242054   5.251   3.947  15.683 -0.7707 -0.3508 -0.8653
 6855TIP3   OH242055   5.069   3.015  13.402  0.0282  0.2046  0.1696
 6855TIP3    H142056   5.008   3.051  13.339  0.1600  2.0953  1.0762
 6855TIP3    H242057   5.015   2.961  13.460 -0.3523 -0.1974 -0.5526
 6856TIP3   OH242058   2.961   6.659  14.046  0.0546 -0.3283  0.4858
 6856TIP3    H142059   2.961   6.674  14.140  0.3105  1.3074  0.2344
 6856TIP3    H242060   3.050   6.628  14.027  0.7604  1.6773  0.4389
 6857TIP3   OH242061   6.148   3.721   5.122 -0.6458  0.2618  0.2448
 6857TIP3    H142062   6.203   3.791   5.157 -0.1240  0.0631 -0.1730
 6857TIP3    H242063   6.134   3.744   5.030  0.0975 -0.5289 -0.0792
 6858TIP3   OH242064   6.295   5.682   1.472 -0.3276 -0.0791  0.2164
 6858TIP3    H142065   6.340   5.603   1.440 -1.0733  0.1106 -1.3684
 6858TIP3    H242066   6.235   5.650   1.539  3.0529 -0.1715  3.3391
 6859TIP3   OH242067   5.154   3.593   4.840 -0.3307 -0.1278  0.1904
 6859TIP3    H142068   5.180   3.665   4.897  0.6495  0.9499 -1.5499
 6859TIP3    H242069   5.078   3.628   4.792  0.4362 -0.0729 -0.9931
 6860TIP3   OH242070   4.563   0.064  11.697 -0.2743 -0.0010  0.1779
 6860TIP3    H142071   4.561   0.077  11.792 -1.0279 -0.4677  0.2297
 6860TIP3    H242072   4.493   0.000  11.680  2.6829 -3.3245 -0.1613
 6861TIP3   OH242073   4.428   0.755   0.477  0.9313  0.2799 -0.2219
 6861TIP3    H142074   4.363   0.802   0.426  0.2097 -0.6385 -0.1780
 6861TIP3    H242075   4.502   0.742   0.418 -0.1586 -1.3545 -1.2647
 6862TIP3   OH242076   3.454   6.696  10.623  0.3398 -0.4214 -0.1067
 6862TIP3    H142077   3.401   6.644  10.562  0.4974 -0.7294  0.0174
 6862TIP3    H242078   3.496   6.761  10.568 -2.8723  2.1031  0.2399
 6863TIP3   OH242079   5.609   3.688   2.484  0.3518 -0.1230 -0.5216
 6863TIP3    H142080   5.691   3.644   2.508  0.7205  0.5202 -0.5652
 6863TIP3    H242081   5.552   3.618   2.454  0.8476 -0.5976 -0.3748
 6864TIP3   OH242082   3.582   4.826  17.219  0.2065 -0.7158  0.1961
 6864TIP3    H142083   3.662   4.774  17.223 -0.1537 -1.1459  2.3049
 6864TIP3    H242084   3.515   4.771  17.260 -0.9397  0.0891 -0.5495
 6865TIP3   OH242085   2.142   3.908  10.457  0.0268  0.5542 -0.0415
 6865TIP3    H142086   2.225   3.946  10.427 -0.1579  1.3442  0.4327
 6865TIP3    H242087   2.086   3.983  10.475 -0.6475  0.0323  0.0660
 6866TIP3   OH242088   6.368   3.714  11.543  0.2447  0.1720 -0.1222
 6866TIP3    H142089   6.346   3.725  11.636 -0.2702 -1.3632 -0.0545
 6866TIP3    H242090   6.349   3.622  11.525 -0.3873  0.6479 -1.9454
 6867TIP3   OH242091   3.694   2.987  12.113 -0.3002  0.0086  0.1344
 6867TIP3    H142092   3.712   2.965  12.204  0.4997  0.8015  0.1764
 6867TIP3    H242093   3.727   2.912  12.063 -1.0758 -0.5905  0.5207
 6868TIP3   OH242094   5.795   2.200   2.646 -0.0613 -0.2935  0.4183
 6868TIP3    H142095   5.785   2.179   2.553  0.6067 -1.4911  0.6027
 6868TIP3    H242096   5.745   2.132   2.692  0.6379 -0.4425  0.9709
 6869TIP3   OH242097   3.333   2.251   5.638  0.7732  0.3622  0.4003
 6869TIP3    H142098   3.406   2.216   5.689  1.7499 -0.2092 -1.3615
 6869TIP3    H242099   3.270   2.179   5.633  0.7104  0.3943  0.7337
 6870TIP3   OH242100   1.982   3.414   5.563 -0.1969  0.5429  0.0162
 6870TIP3    H142101   1.941   3.436   5.647 -1.8016 -0.2045 -0.5496
 6870TIP3    H242102   2.021   3.496   5.533 -2.1990  1.5319  0.0787
 6871TIP3   OH242103   2.600   1.629  12.695  0.7471  0.2679  0.1598
 6871TIP3    H142104   2.693   1.650  12.702  0.4101  1.9550 -0.2973
 6871TIP3    H242105   2.558   1.683  12.762  0.1960 -1.2120  1.0242
 6872TIP3   OH242106   0.614   1.389  12.497  0.6502  0.8751  0.3583
 6872TIP3    H142107   0.543   1.347  12.448  1.7377 -0.1152 -0.4121
 6872TIP3    H242108   0.571   1.432  12.571 -0.6991 -0.0114  0.1002
 6873TIP3   OH242109   2.804   1.176   1.095  0.2175 -0.9498 -0.0094
 6873TIP3    H142110   2.847   1.097   1.127 -0.4224 -0.8698  1.0819
 6873TIP3    H242111   2.784   1.226   1.175 -0.0848 -0.0604 -0.6400
 6874TIP3   OH242112   2.265   0.808   3.619 -1.0175  0.3215 -0.3826
 6874TIP3    H142113   2.288   0.840   3.532  0.4385  1.5774  0.4561
 6874TIP3    H242114   2.175   0.838   3.633 -0.8101  1.2008 -0.9308
 6875TIP3   OH242115   4.933   6.770  14.756  0.5338  0.2571 -0.1127
 6875TIP3    H142116   4.989   6.812  14.691 -0.2894  1.9363  0.2233
 6875TIP3    H242117   4.980   6.779  14.838  1.0264 -0.8093 -0.2668
 6876TIP3   OH242118   0.160   2.614   2.262  0.3607  0.0894  0.2741
 6876TIP3    H142119   0.201   2.694   2.293 -1.9869  1.1337  0.7458
 6876TIP3    H242120   0.074   2.612   2.304 -0.9916 -0.9001 -2.4142
 6877TIP3   OH242121   1.049   6.413  14.699 -0.2251  0.8054 -0.2172
 6877TIP3    H142122   0.971   6.362  14.718 -1.1113  2.9293  2.2293
 6877TIP3    H242123   1.119   6.370  14.748  0.5305 -1.8869 -3.4670
 6878TIP3   OH242124   6.062   4.616  15.181 -0.0568 -0.2959 -0.6071
 6878TIP3    H142125   5.997   4.675  15.220 -0.0803 -0.8267  0.1785
 6878TIP3    H242126   6.010   4.548  15.138 -0.0526 -1.6577  1.4598
 6879TIP3   OH242127   3.994   5.009   4.595 -0.1647  0.1223 -0.8611
 6879TIP3    H142128   3.913   5.044   4.559 -2.0619 -2.3100  0.8909
 6879TIP3    H242129   3.978   4.915   4.603  1.6595  0.0256  2.4403
 6880TIP3   OH242130   2.645   4.031  16.943 -0.0744  0.3765 -0.6205
 6880TIP3    H142131   2.681   3.955  16.989  1.3031  1.1604 -0.3718
 6880TIP3    H242132   2.551   4.015  16.940  0.1243 -0.9752  0.1048
 6881TIP3   OH242133   0.823   6.786  11.925 -0.1258 -0.1198  0.4336
 6881TIP3    H142134   0.866   6.703  11.947 -0.9139 -0.3432  1.1684
 6881TIP3    H242135   0.846   6.802  11.834 -2.1299 -2.4944 -0.5303
 6882TIP3   OH242136   3.962   3.532   4.148  0.1629 -0.2758  0.3955
 6882TIP3    H142137   3.959   3.487   4.233 -2.4586  1.7884  1.4645
 6882TIP3    H242138   3.995   3.619   4.168 -1.9490  0.7347 -0.4545
 6883TIP3   OH242139   2.170   2.849  11.392  0.2707 -0.1013  0.4613
 6883TIP3    H142140   2.264   2.832  11.382 -0.1317 -2.2110 -0.0172
 6883TIP3    H242141   2.153   2.923  11.334  1.3742 -0.7355 -0.7171
 6884TIP3   OH242142   5.784   0.157  16.998 -0.0384  0.2778  0.0376
 6884TIP3    H142143   5.759   0.200  17.080 -0.2943  2.1719 -1.0035
 6884TIP3    H242144   5.705   0.162  16.943  0.8273  1.0743 -1.1495
 6885TIP3   OH242145   2.981   5.413   1.025 -0.6490  0.0497  0.2229
 6885TIP3    H142146   2.974   5.506   1.046 -1.2201 -0.0794  0.6223
 6885TIP3    H242147   2.991   5.370   1.110  1.0754 -0.1293 -0.0569
 6886TIP3   OH242148   1.038   3.186  10.852  0.1866 -0.0020  0.4677
 6886TIP3    H142149   1.000   3.098  10.847 -2.8517  1.3486 -1.6446
 6886TIP3    H242150   0.968   3.241  10.886  1.7759  1.7624  0.9732
 6887TIP3   OH242151   1.767   0.340  15.519 -0.0530  0.7390 -0.0674
 6887TIP3    H142152   1.749   0.252  15.486 -1.4982  0.9745  0.0249
 6887TIP3    H242153   1.768   0.329  15.615 -0.5891  0.8659 -0.0417
 6888TIP3   OH242154   6.490   0.489  14.423 -0.3075 -0.1431  0.8498
 6888TIP3    H142155   6.448   0.575  14.429 -1.5765 -0.7060  0.3425
 6888TIP3    H242156   6.578   0.507  14.392 -0.4130  1.0120  1.1964
 6889TIP3   OH242157   1.119   5.194   3.024  0.2567  0.5361 -0.2075
 6889TIP3    H142158   1.106   5.153   2.939  1.8238  0.2959 -0.3463
 6889TIP3    H242159   1.183   5.138   3.068  0.7472  1.6027  0.4497
 6890TIP3   OH242160   4.669   3.137  11.955 -0.2498 -0.2296 -0.8083
 6890TIP3    H142161   4.752   3.091  11.940  0.7676  1.1161  0.5424
 6890TIP3    H242162   4.638   3.160  11.868  0.5268 -1.1921 -1.3590
 6891TIP3   OH242163   3.421   1.325   4.826 -0.2705  0.8626  0.1259
 6891TIP3    H142164   3.355   1.334   4.895  0.0706  2.8867  0.2087
 6891TIP3    H242165   3.432   1.230   4.816 -3.6822  0.4457 -0.3661
 6892TIP3   OH242166   0.504   1.959  14.695  0.1201  0.2015  0.1840
 6892TIP3    H142167   0.451   1.999  14.626 -0.3624  1.4039  1.2417
 6892TIP3    H242168   0.510   1.867  14.670 -0.9061  0.4276 -0.9344
 6893TIP3   OH242169   5.642   6.478   5.473 -0.3139 -0.0512 -0.4097
 6893TIP3    H142170   5.715   6.510   5.420 -1.2285 -1.1038 -2.3544
 6893TIP3    H242171   5.564   6.519   5.434 -0.8536  0.5483  1.2392
 6894TIP3   OH242172   0.986   2.469  12.310 -0.5496  0.2721  0.2645
 6894TIP3    H142173   1.020   2.414  12.380 -1.2976  0.2186  0.5912
 6894TIP3    H242174   1.035   2.442  12.233  1.0473  1.0839  0.9731
 6895TIP3   OH242175   2.545   2.763  16.880  0.1539  0.1256 -0.4705
 6895TIP3    H142176   2.569   2.671  16.867 -0.5130 -0.1375  0.1238
 6895TIP3    H242177   2.627   2.806  16.905  0.1186 -0.6604  1.0031
 6896TIP3   OH242178   2.351   2.678   1.498  0.5618 -0.7902 -0.4038
 6896TIP3    H142179   2.363   2.701   1.406 -0.1808 -0.8510 -0.5193
 6896TIP3    H242180   2.256   2.679   1.511  0.6614 -0.7881  0.3602
 6897TIP3   OH242181   4.158   2.555   2.157 -0.1527  0.6842  0.0456
 6897TIP3    H142182   4.102   2.575   2.082  2.3554  0.5967 -1.9413
 6897TIP3    H242183   4.110   2.489   2.207 -1.1962 -0.4653 -2.3894
 6898TIP3   OH242184   6.219   2.991   3.000  0.1079  0.1650 -0.2880
 6898TIP3    H142185   6.205   3.066   2.943  0.8932  2.0239  1.8556
 6898TIP3    H242186   6.303   3.008   3.042  0.1811 -1.7963  0.4213
 6899TIP3   OH242187   0.464   6.718   2.587 -0.2446 -0.4263  0.2896
 6899TIP3    H142188   0.528   6.789   2.586  2.3795 -2.6809  0.2806
 6899TIP3    H242189   0.496   6.658   2.655 -1.6585 -2.1945 -0.5433
 6900TIP3   OH242190   2.469   5.435   0.471 -0.6409  0.2785 -0.2226
 6900TIP3    H142191   2.417   5.410   0.395  0.8789 -0.3430 -1.0863
 6900TIP3    H242192   2.519   5.511   0.442  0.1555 -0.1270  0.0530
 6901TIP3   OH242193   4.639   0.104   3.148  0.2298 -0.3527 -0.1829
 6901TIP3    H142194   4.658   0.028   3.093 -0.1350 -1.4979  1.2507
 6901TIP3    H242195   4.547   0.094   3.173 -0.1084  1.0796 -0.7740
 6902TIP3   OH242196   0.082   3.433  11.130 -0.0459  0.0462 -0.0824
 6902TIP3    H142197   0.030   3.513  11.135 -2.0644 -1.1309 -1.1240
 6902TIP3    H242198   0.104   3.413  11.221  0.5014  1.7713  0.1829
 6903TIP3   OH242199   2.528   5.677  13.957  0.2921 -0.0675  0.1963
 6903TIP3    H142200   2.499   5.768  13.956  2.9629  0.8060 -2.0018
 6903TIP3    H242201   2.449   5.627  13.934 -0.7137  1.8460 -0.6000
 6904TIP3   OH242202   2.566   3.040   2.409  0.2266 -0.4123  0.2919
 6904TIP3    H142203   2.632   2.971   2.413  2.2715  1.5401  0.8224
 6904TIP3    H242204   2.595   3.105   2.473 -1.8956  0.7718  0.1074
 6905TIP3   OH242205   5.083   6.628  15.779  0.2657 -0.3390  0.4635
 6905TIP3    H142206   5.129   6.606  15.859 -0.0664  1.7435  1.2473
 6905TIP3    H242207   4.990   6.612  15.798  0.1040  0.8829  0.7805
 6906TIP3   OH242208   2.593   3.712  17.011 -0.0822  0.1531 -0.3131
 6906TIP3    H142209   2.569   3.622  17.034  2.4129 -0.1535  1.2739
 6906TIP3    H242210   2.673   3.702  16.959  2.0077  1.5483  2.5089
 6907TIP3   OH242211   0.469   3.825  12.642 -0.3004  0.2192 -0.2110
 6907TIP3    H142212   0.516   3.775  12.708 -1.3112 -1.0469 -0.4261
 6907TIP3    H242213   0.378   3.824  12.672 -1.3395 -3.0325 -3.1652
 6908TIP3   OH242214   3.795   5.975   5.798 -0.3795  0.3499 -0.0547
 6908TIP3    H142215   3.788   5.959   5.892 -0.2458 -1.5640 -0.3588
 6908TIP3    H242216   3.716   6.025   5.776 -1.4121 -0.8944  0.7325
 6909TIP3   OH242217   5.433   5.842   0.938 -0.2961  0.4755 -0.3088
 6909TIP3    H142218   5.512   5.845   0.992 -0.8155 -0.4963  0.5230
 6909TIP3    H242219   5.406   5.750   0.941 -1.4436  0.7991 -0.6041
 6910TIP3   OH242220   0.454   5.054  11.955  0.1939 -0.5266 -0.3099
 6910TIP3    H142221   0.383   5.088  12.009  1.1810 -0.3803  0.8970
 6910TIP3    H242222   0.416   5.049  11.867 -1.5742 -1.2564  0.4683
 6911TIP3   OH242223   0.254   2.240   4.171 -0.1281 -0.1000  0.6449
 6911TIP3    H142224   0.338   2.251   4.126 -0.6512 -1.5304 -0.7468
 6911TIP3    H242225   0.193   2.293   4.120 -0.4462 -0.5675  0.5453
 6912TIP3   OH242226   4.579   1.851   4.386 -0.6539  0.3400  0.0663
 6912TIP3    H142227   4.646   1.786   4.409 -1.7578 -0.5917  0.6831
 6912TIP3    H242228   4.547   1.822   4.300  0.2454  1.2057 -0.5674
 6913TIP3   OH242229   4.254   0.425  13.900  0.3553 -0.7240 -0.3647
 6913TIP3    H142230   4.226   0.410  13.810  1.5649 -0.9177 -0.7158
 6913TIP3    H242231   4.178   0.466  13.942  0.0338  0.0348 -1.6528
 6914TIP3   OH242232   1.376   6.712   1.749 -0.0513  0.0712 -0.6038
 6914TIP3    H142233   1.301   6.666   1.786  0.1232  0.1197 -0.1910
 6914TIP3    H242234   1.364   6.803   1.775 -0.1253  0.1734 -0.9842
 6915TIP3   OH242235   0.012   1.920   6.699  0.1915 -0.1659 -0.5292
 6915TIP3    H142236   0.074   1.945   6.768 -1.3204  2.9732 -0.1965
 6915TIP3    H242237  -0.026   1.838   6.729 -1.6765  1.9626  3.3709
 6916TIP3   OH242238   0.707   0.388  12.650 -0.3233  0.4076 -0.6725
 6916TIP3    H142239   0.667   0.470  12.621 -0.8891  0.7211  0.9870
 6916TIP3    H242240   0.694   0.386  12.745  0.1784 -1.3395 -0.6182
 6917TIP3   OH242241   5.164   0.981   4.876 -0.4907 -0.0789  0.3378
 6917TIP3    H142242   5.093   0.918   4.861 -0.1397 -0.6473  1.0516
 6917TIP3    H242243   5.125   1.051   4.928 -1.4037  1.2991 -2.0899
 6918TIP3   OH242244   4.981   3.325  11.760  0.1461 -0.6534  0.0839
 6918TIP3    H142245   4.944   3.265  11.695  1.5798 -1.8783  0.3693
 6918TIP3    H242246   5.036   3.269  11.815  2.1866  1.0692 -0.1552
 6919TIP3   OH242247   2.491   4.737   2.705  0.2267 -0.2369 -0.3889
 6919TIP3    H142248   2.405   4.753   2.744 -0.5649 -0.3056 -2.0661
 6919TIP3    H242249   2.522   4.824   2.680  2.0217  0.1691  2.9277
 6920TIP3   OH242250   2.001   5.905  11.125  0.2538 -0.0846  0.0744
 6920TIP3    H142251   1.929   5.857  11.165 -0.2809  0.9320  0.3588
 6920TIP3    H242252   1.997   5.882  11.032  0.4546 -1.1415  0.3231
 6921TIP3   OH242253   5.707   5.887   1.964 -0.3395  0.6153  0.3841
 6921TIP3    H142254   5.619   5.914   1.990  0.7549  3.9024  0.8469
 6921TIP3    H242255   5.708   5.896   1.869  0.1666  2.8380  0.5713
 6922TIP3   OH242256   5.420   3.320  12.520 -0.5361 -0.0649  0.0046
 6922TIP3    H142257   5.413   3.234  12.562  0.2266  0.5713  1.4342
 6922TIP3    H242258   5.502   3.356  12.552 -0.6577  1.0471 -0.9071
 6923TIP3   OH242259   1.101   1.776  16.426  0.3637 -0.1194 -0.1412
 6923TIP3    H142260   1.103   1.681  16.421  0.3090 -0.1137 -0.2738
 6923TIP3    H242261   1.175   1.799  16.482  0.1197 -0.2630  0.2382
 6924TIP3   OH242262   5.877   6.486   0.758  0.0117  0.4595  0.5076
 6924TIP3    H142263   5.788   6.522   0.762 -0.0024  0.3088  1.4987
 6924TIP3    H242264   5.925   6.550   0.705 -0.3017  1.3581  1.2784
 6925TIP3   OH242265   3.694   6.294  11.774  0.5633 -0.2413  0.2949
 6925TIP3    H142266   3.629   6.301  11.844  1.2313  1.1933  0.7991
 6925TIP3    H242267   3.642   6.289  11.694 -0.1861 -0.2486  0.7721
 6926TIP3   OH242268   2.000   0.869   5.789 -0.2658 -0.1187 -0.2359
 6926TIP3    H142269   2.061   0.910   5.850  2.7817  1.9322 -4.3736
 6926TIP3    H242270   2.047   0.793   5.756 -1.3678 -0.5180 -0.9049
 6927TIP3   OH242271   2.914   2.674  12.949  0.0775  0.6759 -0.2803
 6927TIP3    H142272   2.983   2.633  13.001 -0.0334  2.0965  1.0239
 6927TIP3    H242273   2.959   2.708  12.872  0.3592 -0.8243 -0.7985
 6928TIP3   OH242274   4.240   4.909   5.976  0.1978 -0.0646 -0.2745
 6928TIP3    H142275   4.325   4.942   6.005  0.4588  0.6607 -1.7963
 6928TIP3    H242276   4.199   4.875   6.055  1.1233  1.3280  0.8293
 6929TIP3   OH242277   6.091   2.163   4.255 -0.1493  0.1907  0.4921
 6929TIP3    H142278   5.996   2.170   4.252 -0.0943  0.2723 -1.3476
 6929TIP3    H242279   6.109   2.070   4.243 -0.0403 -0.0580  2.4392
 6930TIP3   OH242280   4.036   6.003   4.718 -0.2674  0.3443  0.3876
 6930TIP3    H142281   4.076   5.923   4.684 -3.8910 -0.6295 -1.8758
 6930TIP3    H242282   4.014   5.982   4.808  1.0700 -0.2884  0.5889
 6931TIP3   OH242283   6.285   2.053  14.845  0.3791  0.3130  0.1344
 6931TIP3    H142284   6.208   2.102  14.814 -2.9281 -3.7100  1.4470
 6931TIP3    H242285   6.294   2.079  14.937  2.4349  2.8357 -0.6962
 6932TIP3   OH242286   1.492   1.374  11.664 -0.0079  0.0236  0.2954
 6932TIP3    H142287   1.421   1.425  11.624  0.7993  0.3249 -0.7748
 6932TIP3    H242288   1.567   1.435  11.665  0.9210 -1.0845 -0.8444
 6933TIP3   OH242289   5.986   6.003  17.126 -0.0750 -0.2531 -0.2349
 6933TIP3    H142290   5.974   5.976  17.217 -1.0896 -1.3174 -0.6762
 6933TIP3    H242291   6.060   6.063  17.129  0.5749 -1.0950  1.1429
 6934TIP3   OH242292   1.850   6.764  11.231 -0.8444 -0.0388 -0.2871
 6934TIP3    H142293   1.862   6.828  11.161  0.4022 -0.8225 -0.7893
 6934TIP3    H242294   1.775   6.798  11.281 -1.8420  0.4553 -2.0525
 6935TIP3   OH242295   3.528   1.960  16.007  0.3267  0.1172 -0.0731
 6935TIP3    H142296   3.560   1.947  16.096  0.2758  1.0961  0.0970
 6935TIP3    H242297   3.596   1.923  15.951 -0.8630 -2.9709  0.4101
 6936TIP3   OH242298   2.077   4.967  13.041 -0.2831  0.2427  0.3474
 6936TIP3    H142299   1.991   5.010  13.035  0.4074  1.6028 -0.0375
 6936TIP3    H242300   2.138   5.039  13.056  0.7378 -0.7723  1.1162
 6937TIP3   OH242301   3.860   0.005  10.442  0.3825 -0.2929 -0.1206
 6937TIP3    H142302   3.865  -0.004  10.347  1.1734  1.4318 -0.2677
 6937TIP3    H242303   3.920   0.077  10.462 -1.1428  0.5741  1.4861
 6938TIP3   OH242304   6.554   4.226  16.415 -0.8183  0.1014  0.4702
 6938TIP3    H142305   6.512   4.141  16.397  1.4361 -0.9432 -0.0503
 6938TIP3    H242306   6.493   4.270  16.474 -1.3486 -2.5046  1.9857
 6939TIP3   OH242307   5.839   5.200   1.937  0.6044  0.3284 -0.0016
 6939TIP3    H142308   5.838   5.184   1.842  1.7900  0.5348 -0.0556
 6939TIP3    H242309   5.815   5.116   1.975 -1.3960  0.6387 -0.5173
 6940TIP3   OH242310   1.500   6.727   5.194 -0.2684  0.1586 -0.2734
 6940TIP3    H142311   1.449   6.806   5.175  0.0705  0.5603  0.4488
 6940TIP3    H242312   1.578   6.735   5.140  0.7109  1.3132  1.2739
 6941TIP3   OH242313   1.137   3.802   3.026  0.1592  0.1489 -0.4302
 6941TIP3    H142314   1.116   3.772   2.938  1.1856  1.2904 -1.0855
 6941TIP3    H242315   1.106   3.892   3.029  2.1738  0.8717 -0.4220
 6942TIP3   OH242316   3.425   0.590   0.464 -0.0115 -0.0893 -0.0529
 6942TIP3    H142317   3.488   0.594   0.392 -0.1930 -0.0575 -0.2071
 6942TIP3    H242318   3.365   0.520   0.440 -0.5883  0.5015 -0.3454
 6943TIP3   OH242319   0.851   1.632  16.285 -0.0027  0.1184 -0.3665
 6943TIP3    H142320   0.801   1.582  16.350 -1.0883  0.1959 -1.1351
 6943TIP3    H242321   0.942   1.623  16.314 -0.3368 -0.9812  0.4059
 6944TIP3   OH242322   0.796   0.207  13.705  0.2153  0.0314  0.6569
 6944TIP3    H142323   0.730   0.198  13.773  0.9483 -1.9241  1.1356
 6944TIP3    H242324   0.874   0.236  13.751  0.7073 -1.2727  0.6736
 6945TIP3   OH242325   3.609   1.184  17.210  0.3150 -0.0462  0.0682
 6945TIP3    H142326   3.541   1.134  17.164  1.1250 -1.2556  0.1387
 6945TIP3    H242327   3.616   1.266  17.162  0.3179 -0.8038 -1.2730
 6946TIP3   OH242328   0.994   5.545  16.696  0.2512  0.4030  0.3213
 6946TIP3    H142329   0.960   5.519  16.782 -1.4722 -1.4734 -0.8971
 6946TIP3    H242330   1.035   5.465  16.662 -1.3543  0.4225 -1.6944
 6947TIP3   OH242331   0.539   1.657   1.718  0.0262 -0.2166  0.3601
 6947TIP3    H142332   0.464   1.715   1.732  1.5284  1.7236  0.6385
 6947TIP3    H242333   0.550   1.612   1.802 -0.7585 -0.4009  0.3599
 6948TIP3   OH242334   5.922   1.715  17.251  0.3101 -0.0248 -0.4229
 6948TIP3    H142335   5.902   1.786  17.190 -0.8347  0.7049  0.7743
 6948TIP3    H242336   5.837   1.677  17.272  0.7586 -0.6857  0.2289
 6949TIP3   OH242337   1.665   0.248  11.513 -0.1039 -0.5539 -0.2089
 6949TIP3    H142338   1.658   0.154  11.531 -2.2962 -0.3227  0.3454
 6949TIP3    H242339   1.629   0.259  11.425 -2.2246  0.0417  0.6825
 6950TIP3   OH242340   3.583   0.155  14.121  0.2077  0.0930 -0.3752
 6950TIP3    H142341   3.544   0.091  14.061 -0.9604 -0.6592  1.1499
 6950TIP3    H242342   3.521   0.228  14.122 -1.6102 -1.4301  2.6424
 6951TIP3   OH242343   5.474   0.693   0.881  0.1948 -0.1161  0.3620
 6951TIP3    H142344   5.457   0.607   0.920 -0.5474  0.1803  0.7016
 6951TIP3    H242345   5.522   0.674   0.801 -1.7671 -0.9927 -0.6498
 6952TIP3   OH242346   0.034   1.170   6.568  0.0971  0.7189 -0.2706
 6952TIP3    H142347   0.061   1.254   6.603  0.6435  0.4507 -0.0486
 6952TIP3    H242348   0.005   1.189   6.479  0.1374  1.1485 -0.1933
 6953TIP3   OH242349   4.242   5.814  13.255  0.3557 -0.3526  0.3677
 6953TIP3    H142350   4.207   5.902  13.265 -0.8281 -0.8694  0.7789
 6953TIP3    H242351   4.336   5.824  13.268  0.2936  0.9375 -0.1331
 6954TIP3   OH242352   0.586   2.840  12.329  0.1820 -0.4605 -0.0655
 6954TIP3    H142353   0.601   2.903  12.399 -0.8052 -2.2286  1.7866
 6954TIP3    H242354   0.674   2.809  12.306  0.5390  0.4018  0.1146
 6955TIP3   OH242355   4.037   6.289   5.311  0.3561  0.1289  0.4128
 6955TIP3    H142356   4.008   6.222   5.373  0.3559 -0.2054  0.0476
 6955TIP3    H242357   3.962   6.347   5.301 -0.3643 -1.0209 -0.9204
 6956TIP3   OH242358   3.959   4.870  11.440  0.0019  0.1126  0.6643
 6956TIP3    H142359   3.981   4.945  11.385 -2.1917 -0.6825 -1.4036
 6956TIP3    H242360   4.038   4.816  11.440 -0.0084  0.0122 -1.9686
 6957TIP3   OH242361   0.209   3.772   0.276 -0.0389  0.2326  0.2443
 6957TIP3    H142362   0.167   3.858   0.276 -0.1531  0.1774  0.2589
 6957TIP3    H242363   0.215   3.748   0.183 -0.9666 -0.2082  0.2945
 6958TIP3   OH242364   6.249   1.055   4.457  0.3621  0.0309 -0.4241
 6958TIP3    H142365   6.270   0.981   4.399  1.2559 -0.4219  0.4503
 6958TIP3    H242366   6.162   1.034   4.492  0.9220 -0.9894  0.3875
 6959TIP3   OH242367   1.882   3.162   0.533 -0.4213 -0.8077 -0.4156
 6959TIP3    H142368   1.876   3.248   0.574 -2.6536 -2.1268  2.1499
 6959TIP3    H242369   1.830   3.171   0.453 -1.2541  0.0230  0.1991
 6960TIP3   OH242370   2.818   3.758  10.691 -0.5253 -0.1675  0.0071
 6960TIP3    H142371   2.853   3.840  10.655 -2.4506  0.2886 -0.9497
 6960TIP3    H242372   2.731   3.782  10.723 -0.9982 -1.7859 -0.0231
 6961TIP3   OH242373   6.008   5.152   3.931  0.2179  0.2504  0.3531
 6961TIP3    H142374   6.048   5.158   3.844  0.2262  2.1115  0.4710
 6961TIP3    H242375   6.031   5.064   3.961  1.3969  0.0847 -0.9457
 6962TIP3   OH242376   2.579   0.073  10.360 -0.3091  0.7402 -0.5656
 6962TIP3    H142377   2.563   0.101  10.270  0.5574 -0.9762 -1.2777
 6962TIP3    H242378   2.569  -0.022  10.357  0.5220  0.5934  0.9705
 6963TIP3   OH242379   4.451   1.118  13.220 -0.0355 -0.1457 -0.1275
 6963TIP3    H142380   4.418   1.034  13.190 -0.2812 -0.3077  0.5813
 6963TIP3    H242381   4.492   1.100  13.304  1.8398  0.0667 -0.9652
 6964TIP3   OH242382   2.294   4.810   4.419  0.4403  0.3642 -0.2540
 6964TIP3    H142383   2.262   4.840   4.334 -1.9137 -0.0846  0.4143
 6964TIP3    H242384   2.302   4.715   4.409  2.2486  0.5405 -0.6069
 6965TIP3   OH242385   1.657   4.494  15.822  0.1692  0.4684  0.1758
 6965TIP3    H142386   1.618   4.483  15.909 -1.0668  1.0574 -0.2924
 6965TIP3    H242387   1.653   4.588  15.806  1.2215  0.4700 -0.1618
 6966TIP3   OH242388   0.400   2.949  16.778 -0.1570 -0.8710  0.5701
 6966TIP3    H142389   0.480   2.995  16.804 -0.2988 -1.1824  1.5906
 6966TIP3    H242390   0.349   2.943  16.859 -2.5699  2.0170 -0.6039
 6967TIP3   OH242391   2.019   0.631  15.593 -0.4066 -0.1437  0.7136
 6967TIP3    H142392   1.961   0.566  15.553  0.7429 -2.2778  2.4153
 6967TIP3    H242393   2.107   0.599  15.577  0.2656  1.8646  0.1740
 6968TIP3   OH242394   6.209   4.370  14.724 -0.3305 -0.3235 -0.0416
 6968TIP3    H142395   6.266   4.401  14.794  2.7605 -0.3183 -2.4526
 6968TIP3    H242396   6.195   4.277  14.744  1.4063 -0.5917  0.0724
 6969TIP3   OH242397   3.903   5.667   4.875 -0.1020  0.2247  0.3381
 6969TIP3    H142398   3.935   5.697   4.790  0.5057  0.2496  0.5768
 6969TIP3    H242399   3.962   5.707   4.939  0.5588 -1.2825  0.6791
 6970TIP3   OH242400   0.069   1.120  15.818  0.1383  0.6056  0.3707
 6970TIP3    H142401   0.025   1.096  15.736  0.1322 -1.2505  0.9084
 6970TIP3    H242402   0.065   1.041  15.872  2.9007  0.8633  0.9911
 6971TIP3   OH242403   2.889   3.313  11.450  0.1820  0.6022  0.5571
 6971TIP3    H142404   2.907   3.404  11.424  2.1464  0.6013  1.7626
 6971TIP3    H242405   2.903   3.263  11.369 -0.5458  1.3261 -0.0299
 6972TIP3   OH242406   0.384   6.812  13.787 -0.0291 -0.3532 -0.1445
 6972TIP3    H142407   0.290   6.816  13.804  0.1823  0.3360  0.9416
 6972TIP3    H242408   0.402   6.887  13.731  0.0069  0.0365  0.3800
 6973TIP3   OH242409   6.393   4.518  16.777 -0.2337 -0.0926  0.6438
 6973TIP3    H142410   6.473   4.475  16.808  0.1163 -0.1497 -0.3373
 6973TIP3    H242411   6.379   4.589  16.840  0.2771 -0.4283  1.1401
 6974TIP3   OH242412   6.735   6.187   0.553 -1.0814 -0.0155  0.5007
 6974TIP3    H142413   6.767   6.251   0.617  0.7975 -0.7308  0.2960
 6974TIP3    H242414   6.639   6.189   0.563 -0.9658  1.8750  1.3891
 6975TIP3   OH242415   3.686   2.050  17.234 -0.1104  0.0291  0.0461
 6975TIP3    H142416   3.685   1.978  17.171  0.9850  0.0723 -0.0321
 6975TIP3    H242417   3.657   2.011  17.317 -2.6426  0.2122 -0.7033
 6976TIP3   OH242418   5.100   6.327  14.747  0.0145 -0.0432 -0.2388
 6976TIP3    H142419   5.047   6.404  14.765  0.2769  0.2096 -0.5583
 6976TIP3    H242420   5.038   6.262  14.713 -0.3897 -0.3261  1.0043
 6977TIP3   OH242421   0.484   6.589  14.070 -0.5230  0.0364  0.2407
 6977TIP3    H142422   0.425   6.515  14.085 -1.0526  0.4523  0.1916
 6977TIP3    H242423   0.513   6.577  13.979 -2.0741  0.9381 -0.3752
 6978TIP3   OH242424   3.188   0.989  14.222 -0.3031  0.0181 -0.6621
 6978TIP3    H142425   3.244   1.026  14.291 -0.1589 -1.1296 -0.1586
 6978TIP3    H242426   3.249   0.945  14.163 -0.7549 -2.4458  0.6360
 6979TIP3   OH242427   5.451   3.904   3.128 -0.1520 -0.3085 -0.2985
 6979TIP3    H142428   5.483   3.992   3.111 -0.4785 -0.4660 -1.8096
 6979TIP3    H242429   5.509   3.869   3.195  1.7109  0.0474 -1.7014
 6980TIP3   OH242430   3.260   0.031  16.279 -0.0780 -0.1049 -0.3055
 6980TIP3    H142431   3.206  -0.044  16.303  1.1324 -0.6434  0.8140
 6980TIP3    H242432   3.210   0.108  16.305 -0.7826 -0.5652 -0.3059
 6981TIP3   OH242433   4.133   6.702   5.180 -0.6615  0.7308  0.2963
 6981TIP3    H142434   4.131   6.631   5.116 -0.3250  1.5966 -0.6949
 6981TIP3    H242435   4.179   6.666   5.255  0.5093  0.2451 -0.6340
 6982TIP3   OH242436   5.339   6.012   3.359 -0.1776  0.4676  0.5450
 6982TIP3    H142437   5.365   6.093   3.317  0.6227 -0.8675 -1.6140
 6982TIP3    H242438   5.243   6.012   3.353 -0.1102  0.6045 -0.7138
 6983TIP3   OH242439   6.445   4.954   0.684 -0.5004 -0.0760  0.0995
 6983TIP3    H142440   6.473   4.907   0.763 -0.5888 -1.1776 -0.5260
 6983TIP3    H242441   6.352   4.973   0.700 -0.4774 -0.1561  0.3306
 6984TIP3   OH242442   3.675   6.276   1.247 -0.1353 -0.2388  0.1137
 6984TIP3    H142443   3.723   6.222   1.310  0.2920 -0.6923 -0.5781
 6984TIP3    H242444   3.663   6.218   1.171 -1.9926 -0.1981  0.3602
 6985TIP3   OH242445   1.442   4.695   2.683 -0.1315 -0.5687 -0.0986
 6985TIP3    H142446   1.447   4.623   2.745 -1.6370  0.1532  0.8954
 6985TIP3    H242447   1.508   4.674   2.616 -0.4217 -2.7543  0.2623
 6986TIP3   OH242448   5.217   1.989   2.618  0.1196  0.0987 -0.5557
 6986TIP3    H142449   5.183   1.916   2.566 -0.0699 -0.7700  0.7776
 6986TIP3    H242450   5.252   1.949   2.697  0.1270  1.4407  0.1376
 6987TIP3   OH242451   6.213   1.846  11.180  0.5110  0.0753  0.3440
 6987TIP3    H142452   6.237   1.755  11.193  3.3424  0.7296 -0.0181
 6987TIP3    H242453   6.237   1.865  11.089 -0.2761  1.1097  0.3396
 6988TIP3   OH242454   3.655   4.837  12.727 -0.2148 -0.3260  0.0556
 6988TIP3    H142455   3.643   4.932  12.728 -2.1385 -0.4581 -2.8087
 6988TIP3    H242456   3.621   4.807  12.811  0.3104  1.5147  0.9284
 6989TIP3   OH242457   0.480   5.820  13.181 -0.0080 -0.1687  0.1876
 6989TIP3    H142458   0.418   5.893  13.179  0.3514  0.1427  0.4037
 6989TIP3    H242459   0.557   5.853  13.135  0.2268 -0.3464  0.4510
 6990TIP3   OH242460   0.287   2.680   3.555 -0.2827 -0.3188  0.0072
 6990TIP3    H142461   0.263   2.597   3.512 -2.1583  0.1999 -0.0214
 6990TIP3    H242462   0.214   2.697   3.615 -0.3690  1.7527 -0.6552
 6991TIP3   OH242463   6.112   3.493   3.873  0.4815 -1.0132 -0.2354
 6991TIP3    H142464   6.128   3.478   3.966  1.0106 -0.5019 -0.2474
 6991TIP3    H242465   6.195   3.525   3.839 -0.5111  1.5582 -0.3154
 6992TIP3   OH242466   4.046   3.391   4.456 -0.1697  0.0733  0.3258
 6992TIP3    H142467   4.084   3.361   4.539 -1.0821 -0.5569  0.5308
 6992TIP3    H242468   4.002   3.473   4.478 -0.1467  0.0661  0.4000
 6993TIP3   OH242469   0.189   0.863   0.933 -0.3227 -0.3231 -0.1041
 6993TIP3    H142470   0.150   0.779   0.909  0.8364 -0.6484 -0.8556
 6993TIP3    H242471   0.279   0.858   0.901 -0.1246  1.0431  0.2245
 6994TIP3   OH242472   1.639   5.809  11.982 -0.6304 -0.1316  0.2454
 6994TIP3    H142473   1.691   5.729  11.973 -0.8046 -0.2486  0.2698
 6994TIP3    H242474   1.696   5.869  12.029  0.4943  0.6482 -2.0148
 6995TIP3   OH242475   0.515   5.695  15.556 -0.4479  0.0417  0.1705
 6995TIP3    H142476   0.574   5.732  15.490 -0.1190 -0.8854 -0.0628
 6995TIP3    H242477   0.554   5.721  15.640 -0.3258  0.3868  0.0070
 6996TIP3   OH242478   2.071   6.359   0.864  0.1620 -0.7309  0.4784
 6996TIP3    H142479   2.151   6.398   0.900  0.3204  1.6937 -2.2792
 6996TIP3    H242480   2.097   6.327   0.777 -1.8031 -0.1567 -0.3437
 6997TIP3   OH242481   4.201   6.766  12.625 -0.9772 -0.6222  0.8744
 6997TIP3    H142482   4.280   6.798  12.581 -0.9058 -0.4697  1.1116
 6997TIP3    H242483   4.230   6.687  12.671 -0.5154  0.4713  2.5014
 6998TIP3   OH242484   0.969   6.570   1.182  0.1562 -0.1272 -0.1360
 6998TIP3    H142485   0.906   6.499   1.173 -0.5148  0.4804 -0.2112
 6998TIP3    H242486   0.928   6.645   1.139  1.8202 -0.2892 -2.1192
 6999TIP3   OH242487   3.878   6.177  13.335  0.1441 -0.6315 -0.1342
 6999TIP3    H142488   3.877   6.108  13.402 -0.5202 -1.2190 -0.7435
 6999TIP3    H242489   3.891   6.131  13.253  0.6647  0.0694 -0.4501
 7000TIP3   OH242490   2.623   2.396  15.996  0.1158  0.2403 -0.0949
 7000TIP3    H142491   2.633   2.361  15.908 -0.6108  0.5696 -0.3083
 7000TIP3    H242492   2.594   2.321  16.048  2.4769 -0.4344  0.2859
 7001TIP3   OH242493   2.828   1.507   5.181 -0.1654 -0.2323  0.0732
 7001TIP3    H142494   2.866   1.419   5.191 -0.3917 -0.3343  0.0548
 7001TIP3    H242495   2.776   1.519   5.261  1.8381  0.8928  1.2423
 7002TIP3   OH242496   6.356   5.256  13.250  0.1025 -0.2906  0.6705
 7002TIP3    H142497   6.314   5.233  13.332  0.6136 -1.7165  0.5590
 7002TIP3    H242498   6.438   5.206  13.251  0.0478 -0.4391 -0.7511
 7003TIP3   OH242499   6.697   0.121   1.871 -0.2240 -0.4359  0.2738
 7003TIP3    H142500   6.717   0.129   1.965  1.4586 -1.4145  0.0160
 7003TIP3    H242501   6.647   0.200   1.851  0.4502  0.3826  1.7216
 7004TIP3   OH242502   5.861   6.504   0.125 -0.1090  0.4504 -0.1771
 7004TIP3    H142503   5.778   6.525   0.082 -0.3846 -2.5863 -1.1974
 7004TIP3    H242504   5.839   6.437   0.189  1.2179  1.1328  1.0138
 7005TIP3   OH242505   3.401   6.717   2.534  0.1848  0.1043  0.0045
 7005TIP3    H142506   3.391   6.812   2.530  0.0367  0.0968  0.1667
 7005TIP3    H242507   3.424   6.699   2.625 -1.3840 -0.1561  0.3625
 7006TIP3   OH242508   4.503   0.295   2.489  0.4755 -0.4185  0.1564
 7006TIP3    H142509   4.560   0.218   2.486  1.3891  0.1865  1.7042
 7006TIP3    H242510   4.545   0.357   2.429 -0.2039 -1.0581 -1.0112
 7007TIP3   OH242511   0.714   0.613   5.323  0.0700  0.5824  0.2808
 7007TIP3    H142512   0.765   0.631   5.244 -0.0575  0.2515  0.1196
 7007TIP3    H242513   0.656   0.540   5.298  0.8417 -0.3016  1.0301
 7008TIP3   OH242514   4.702   1.942   2.613 -0.2152 -0.6310 -0.1612
 7008TIP3    H142515   4.788   1.960   2.576 -0.6282 -0.0984 -0.8615
 7008TIP3    H242516   4.676   2.023   2.656 -0.4290 -0.7493 -0.0648
 7009TIP3   OH242517   3.565   6.356  11.488  0.1739  0.5497  0.0156
 7009TIP3    H142518   3.610   6.400  11.415  0.0281  0.4582 -0.1297
 7009TIP3    H242519   3.585   6.263  11.475  0.2327  0.5442  0.1507
 7010TIP3   OH242520   1.745   2.046   2.111  0.6216 -0.4706 -0.0832
 7010TIP3    H142521   1.695   2.012   2.185 -0.9607  1.9727  0.0378
 7010TIP3    H242522   1.803   2.112   2.148 -0.4997  1.0939 -1.0305
 7011TIP3   OH242523   1.382   0.509  11.984 -0.2266 -0.6870  0.1203
 7011TIP3    H142524   1.311   0.462  11.941 -0.2256 -0.7936  0.2319
 7011TIP3    H242525   1.456   0.501  11.924 -0.1381 -1.0987  0.2811
 7012TIP3   OH242526   3.128   0.560   1.149  0.2854  0.4265 -0.3073
 7012TIP3    H142527   3.150   0.652   1.159  0.6190  0.4271 -1.0104
 7012TIP3    H242528   3.194   0.513   1.200  1.2924  0.4822 -1.5476
 7013TIP3   OH242529   2.637   5.520   3.692 -1.0009 -0.1230  0.3006
 7013TIP3    H142530   2.693   5.538   3.617 -0.3434  0.7662  1.0036
 7013TIP3    H242531   2.698   5.494   3.761 -1.6812 -2.1129  0.2082
 7014TIP3   OH242532   5.155   4.992  16.537 -0.4691 -0.1490 -0.1037
 7014TIP3    H142533   5.112   5.051  16.475  0.5724  0.3764 -0.3327
 7014TIP3    H242534   5.104   4.911  16.533 -0.8136  0.1145 -1.1323
 7015TIP3   OH242535   0.716   4.126   3.401  0.3808 -0.1739  0.0302
 7015TIP3    H142536   0.737   4.044   3.358 -1.5254 -0.3908 -0.5237
 7015TIP3    H242537   0.652   4.168   3.343  0.7077  1.3264  0.7158
 7016TIP3   OH242538   3.510   3.178  13.652 -0.4229 -0.1523 -0.1893
 7016TIP3    H142539   3.504   3.274  13.649  0.9584 -0.0597 -0.5157
 7016TIP3    H242540   3.489   3.156  13.742  0.4442  0.5621  0.1945
 7017TIP3   OH242541   2.634   5.660  15.778  0.2677 -0.0213 -0.2478
 7017TIP3    H142542   2.637   5.644  15.872  0.9333  2.7415  0.2575
 7017TIP3    H242543   2.717   5.626  15.744 -0.0871 -1.2517  0.1164
 7018TIP3   OH242544   5.540   3.082   0.415  0.0758 -0.2782  0.1396
 7018TIP3    H142545   5.616   3.140   0.421  1.4134 -1.8070 -1.2386
 7018TIP3    H242546   5.501   3.084   0.502  2.0210  0.1351  1.0398
 7019TIP3   OH242547   4.692   4.776   1.141  0.1339 -0.0136 -0.6410
 7019TIP3    H142548   4.736   4.723   1.073 -1.5010 -1.8336 -0.3093
 7019TIP3    H242549   4.755   4.779   1.213  0.7628 -0.4043 -1.1635
 7020TIP3   OH242550   3.421   6.374  11.902 -0.2856 -0.1595 -0.1868
 7020TIP3    H142551   3.340   6.400  11.945 -0.8873  1.3780 -2.1830
 7020TIP3    H242552   3.411   6.280  11.886 -1.8647  0.0954 -0.8038
 7021TIP3   OH242553   1.306   1.883  15.484 -0.0710 -0.2863 -0.2022
 7021TIP3    H142554   1.383   1.898  15.430 -0.4812  0.5903 -0.5530
 7021TIP3    H242555   1.335   1.820  15.551  0.7109 -0.5883 -0.8249
 7022TIP3   OH242556   6.600   3.449   3.720  0.0299 -0.3137 -0.2691
 7022TIP3    H142557   6.668   3.395   3.678  0.1196 -1.6617  1.5335
 7022TIP3    H242558   6.647   3.503   3.783 -0.2670  0.7159 -0.9165
 7023TIP3   OH242559   1.733   6.037   3.139 -0.8075  0.5018 -0.0162
 7023TIP3    H142560   1.679   6.046   3.060 -1.1264  0.9064  0.2475
 7023TIP3    H242561   1.817   6.076   3.115 -0.3778 -0.7847 -0.6675
 7024TIP3   OH242562   4.795   6.061  12.924  0.4392  0.0774 -0.1070
 7024TIP3    H142563   4.758   6.104  12.847  1.0561 -2.4642 -1.8620
 7024TIP3    H242564   4.719   6.027  12.971  0.1065  1.1214  0.1409
 7025TIP3   OH242565   6.463   1.783   2.280 -0.2973 -0.3506  0.1130
 7025TIP3    H142566   6.424   1.868   2.299  1.4617  0.3104  0.8471
 7025TIP3    H242567   6.412   1.750   2.206  0.0919  2.1106 -1.3323
 7026TIP3   OH242568   0.782   4.847  14.608  0.3265  0.9443 -0.0984
 7026TIP3    H142569   0.801   4.844  14.701 -1.7164  1.8634  0.3691
 7026TIP3    H242570   0.864   4.876  14.568  1.5879 -0.6484  1.2648
 7027TIP3   OH242571   3.181   1.717   3.820  0.3142  0.2533 -0.0600
 7027TIP3    H142572   3.124   1.747   3.890 -1.9778 -0.8397 -1.3935
 7027TIP3    H242573   3.145   1.633   3.794  2.0804 -0.0997 -1.4828
 7028TIP3   OH242574   1.820   5.475   2.605  0.4147 -0.6663  0.0508
 7028TIP3    H142575   1.881   5.530   2.655  1.3499 -1.7461  0.1191
 7028TIP3    H242576   1.802   5.400   2.662 -1.8154  0.1443  0.4591
 7029TIP3   OH242577   1.167   1.029  13.890 -0.0208  0.3906 -0.2107
 7029TIP3    H142578   1.254   1.008  13.924 -0.7781 -0.7918  1.0473
 7029TIP3    H242579   1.122   0.945  13.886 -0.6893  0.8230 -2.0694
 7030TIP3   OH242580   0.899   5.497  11.623  0.1446  0.3077 -0.3520
 7030TIP3    H142581   0.853   5.500  11.707  1.0179 -1.2436  0.1922
 7030TIP3    H242582   0.956   5.421  11.629 -1.0176 -0.8386 -3.0053
 7031TIP3   OH242583   3.227   4.156  12.405  0.7129  0.4122 -0.3346
 7031TIP3    H142584   3.246   4.232  12.460 -2.5372  0.1035  1.3586
 7031TIP3    H242585   3.190   4.192  12.325 -1.8455  0.6693  0.9005
 7032TIP3   OH242586   4.741   5.034   5.576  0.2460 -0.1271  0.6687
 7032TIP3    H142587   4.667   5.018   5.634  0.0899  1.3503  0.9170
 7032TIP3    H242588   4.707   5.015   5.488  0.3817 -2.0287  1.0228
 7033TIP3   OH242589   5.963   5.625   3.494 -0.1513 -0.3989  0.2070
 7033TIP3    H142590   5.985   5.631   3.401  0.3003 -1.0603  0.2695
 7033TIP3    H242591   5.868   5.621   3.496 -0.1784 -0.0145 -0.2062
 7034TIP3   OH242592   6.397   5.600  17.237 -0.2303 -0.3313  0.1363
 7034TIP3    H142593   6.308   5.627  17.213 -0.2966 -1.0506 -0.4330
 7034TIP3    H242594   6.454   5.661  17.191 -0.4427  0.7149  1.2369
 7035TIP3   OH242595   2.305   0.099  15.025 -0.1006  0.0179  0.6033
 7035TIP3    H142596   2.337   0.009  15.019 -0.3708 -0.0558  0.2497
 7035TIP3    H242597   2.363   0.141  15.089 -0.8917 -0.8087  1.8971
 7036TIP3   OH242598   2.340   4.110  10.506 -0.5398 -0.5152  0.0689
 7036TIP3    H142599   2.289   4.189  10.484  1.2050  0.9006  0.9607
 7036TIP3    H242600   2.421   4.120  10.456  0.2899 -1.0304  1.3066
 7037TIP3   OH242601   3.061   2.653  12.482  0.3502  0.3530  0.2262
 7037TIP3    H142602   2.984   2.689  12.437 -0.0077 -0.7989 -0.0949
 7037TIP3    H242603   3.129   2.652  12.415 -0.5057 -2.4532 -0.6542
 7038TIP3   OH242604   6.396   6.614  15.061 -0.1151 -0.4474  0.5057
 7038TIP3    H142605   6.482   6.617  15.102 -0.5057 -0.6037  1.3482
 7038TIP3    H242606   6.365   6.705  15.065  1.9024  0.5547 -3.9330
 7039TIP3   OH242607   3.994   5.409   3.962 -0.0329  0.4103  0.2522
 7039TIP3    H142608   4.012   5.437   3.873  0.3028 -0.8318 -0.0778
 7039TIP3    H242609   4.030   5.320   3.967  0.0060  0.4947  1.6365
 7040TIP3   OH242610   3.145   4.696  11.521  0.3412  1.0690  0.7166
 7040TIP3    H142611   3.141   4.601  11.514 -0.4700  1.2129 -1.1168
 7040TIP3    H242612   3.220   4.714  11.577  1.5967 -0.5959 -0.4008
 7041TIP3   OH242613   1.701   1.840  11.768 -0.6523  0.0661 -0.5420
 7041TIP3    H142614   1.721   1.829  11.675 -2.3960  1.2175 -1.0713
 7041TIP3    H242615   1.777   1.802  11.813  0.2669 -0.3988 -2.4222
 7042TIP3   OH242616   0.789   5.987   0.576  0.3789 -0.1119  0.2671
 7042TIP3    H142617   0.706   6.035   0.577 -0.2082 -1.1160  0.8497
 7042TIP3    H242618   0.842   6.032   0.512 -0.1306  1.3839  0.8864
 7043TIP3   OH242619   5.314   1.690  13.008 -0.4469 -0.3620  0.1337
 7043TIP3    H142620   5.403   1.695  13.041  0.1250  2.9453 -1.6982
 7043TIP3    H242621   5.259   1.694  13.086  0.9687 -0.9481  1.1669
 7044TIP3   OH242622   0.508   0.066   0.843  0.0448 -0.1686 -0.1433
 7044TIP3    H142623   0.578   0.131   0.847 -0.3624  0.3394 -1.1973
 7044TIP3    H242624   0.528   0.005   0.915  1.1261  0.4062  0.0544
 7045TIP3   OH242625   4.361   5.851  16.367  0.2880  0.3464 -0.1177
 7045TIP3    H142626   4.456   5.848  16.379  0.2507 -0.6992 -0.0772
 7045TIP3    H242627   4.349   5.848  16.272  0.2184 -2.1817 -0.0594
 7046TIP3   OH242628   3.638   0.515  15.758 -0.0653 -0.2232  0.3625
 7046TIP3    H142629   3.657   0.599  15.717  1.3433 -0.3606  0.6889
 7046TIP3    H242630   3.716   0.462  15.740 -0.4247 -1.0525  1.1922
 7047TIP3   OH242631   2.827   0.577   1.765  0.4972  0.3851 -0.2161
 7047TIP3    H142632   2.856   0.520   1.837 -1.5563 -1.1490 -0.5555
 7047TIP3    H242633   2.820   0.518   1.690 -2.5690  0.8420 -0.3410
 7048TIP3   OH242634   4.469   0.684   2.584  0.3652 -0.4423 -0.2297
 7048TIP3    H142635   4.420   0.613   2.543 -0.5127 -1.4621  2.4841
 7048TIP3    H242636   4.557   0.649   2.595 -0.0988 -1.2097  1.2249
 7049TIP3   OH242637   3.377   1.479   0.984 -0.1236  0.2005 -0.2036
 7049TIP3    H142638   3.429   1.453   1.060 -0.6833 -0.6918 -0.1124
 7049TIP3    H242639   3.297   1.517   1.021 -0.8267 -1.1185 -0.3296
 7050TIP3   OH242640   0.911   6.190  11.219  0.3957 -0.8092 -0.3064
 7050TIP3    H142641   0.831   6.139  11.232  0.5332 -0.5538  1.7470
 7050TIP3    H242642   0.881   6.278  11.198  0.1330 -0.9643 -0.5726
 7051TIP3   OH242643   3.061   2.241   2.825  0.8536  0.8165 -1.2090
 7051TIP3    H142644   3.078   2.276   2.913  0.2832  1.5194 -1.3758
 7051TIP3    H242645   3.148   2.230   2.786  1.1678 -0.3790 -0.2316
 7052TIP3   OH242646   4.365   4.615  16.509 -0.6024  0.3393 -0.0521
 7052TIP3    H142647   4.303   4.618  16.436 -1.6114  1.4412  0.8204
 7052TIP3    H242648   4.372   4.706  16.537 -1.9392 -0.3509  2.6426
 7053TIP3   OH242649   6.511   2.505   2.940  0.4338 -0.1693 -0.8225
 7053TIP3    H142650   6.462   2.542   3.014  0.2081 -1.7151 -0.1806
 7053TIP3    H242651   6.553   2.581   2.899 -0.0041  0.7993  0.4733
 7054TIP3   OH242652   5.633   6.585   4.987 -0.7434 -0.1855 -0.0957
 7054TIP3    H142653   5.607   6.658   5.042 -1.3291 -0.8875  0.5689
 7054TIP3    H242654   5.561   6.574   4.925 -0.2870  0.3169 -0.7229
 7055TIP3   OH242655   0.184   6.412   0.137  0.3211 -0.4017  0.4929
 7055TIP3    H142656   0.151   6.500   0.157  1.1869 -0.0997  0.6265
 7055TIP3    H242657   0.123   6.377   0.073 -0.7382 -0.1840  1.3794
 7056TIP3   OH242658   0.713   2.696   6.047 -0.1031 -0.5861  0.1336
 7056TIP3    H142659   0.717   2.611   6.092  0.9272 -0.3227  0.5803
 7056TIP3    H242660   0.634   2.692   5.994 -0.0873 -1.8151  0.1806
 7057TIP3   OH242661   0.539   1.191   5.771 -0.0703 -0.4722 -0.2007
 7057TIP3    H142662   0.494   1.269   5.802  0.4457  0.3498 -1.4698
 7057TIP3    H242663   0.470   1.134   5.738 -0.3782 -0.1497 -0.1155
 7058TIP3   OH242664   5.474   2.535   0.910  0.4775  0.5066  0.2701
 7058TIP3    H142665   5.439   2.450   0.885  1.2233  0.1116  0.5679
 7058TIP3    H242666   5.397   2.586   0.936 -0.0547  0.1797 -0.6250
 7059TIP3   OH242667   6.357   4.931  14.437 -0.3027  0.1824  0.2853
 7059TIP3    H142668   6.406   4.923  14.519 -0.5146 -1.8933  0.2625
 7059TIP3    H242669   6.424   4.940  14.369 -0.0392 -0.1681  0.4956
 7060TIP3   OH242670   4.925   4.256  15.124 -0.1973  0.5757  0.0771
 7060TIP3    H142671   4.893   4.165  15.125  0.2156  0.4142 -0.5509
 7060TIP3    H242672   4.885   4.297  15.200  1.4204 -0.7574  1.7051
 7061TIP3   OH242673   2.585   3.099   5.658  0.2191 -0.1313  0.2843
 7061TIP3    H142674   2.584   3.080   5.752  0.7638 -1.8560 -0.0424
 7061TIP3    H242675   2.516   3.044   5.621  1.4111 -1.0496 -0.6049
 7062TIP3   OH242676   6.816   5.874   1.791  0.3509 -0.2172  0.2451
 7062TIP3    H142677   6.784   5.924   1.715  0.7095 -0.0043  0.2365
 7062TIP3    H242678   6.740   5.866   1.848  0.1221 -0.2318 -0.0608
 7063TIP3   OH242679   6.642   4.034  12.650 -0.1721 -0.3474  0.3670
 7063TIP3    H142680   6.596   4.071  12.726 -0.7594 -1.3324  0.5005
 7063TIP3    H242681   6.730   4.071  12.655 -1.2463  2.4669 -0.5314
 7064TIP3   OH242682   1.217   5.304   2.196 -0.1674  0.2978 -0.5421
 7064TIP3    H142683   1.219   5.392   2.233  1.3735  0.1956 -0.3553
 7064TIP3    H242684   1.276   5.253   2.252 -0.0801 -0.5444 -1.3901
 7065TIP3   OH242685   2.284   4.285   4.802  0.7819 -0.0013  0.2441
 7065TIP3    H142686   2.209   4.252   4.753 -0.2437  1.0611  1.0812
 7065TIP3    H242687   2.278   4.243   4.888  1.7938 -0.7922 -0.0668
 7066TIP3   OH242688   5.044   3.067   0.773  0.0962 -0.1432 -0.0172
 7066TIP3    H142689   4.954   3.039   0.759 -0.4703  2.0807 -1.1485
 7066TIP3    H242690   5.087   3.053   0.688  0.7431 -0.9049  0.4275
 7067TIP3   OH242691   0.301   0.472  11.781 -0.3525  0.0208  1.1929
 7067TIP3    H142692   0.284   0.524  11.859 -0.8304  0.3672  0.8644
 7067TIP3    H242693   0.221   0.481  11.729 -0.8560 -1.8824  1.6041
 7068TIP3   OH242694   3.601   1.497  17.077 -0.3129  0.0126  0.8125
 7068TIP3    H142695   3.558   1.554  17.013 -0.7242 -1.1285  0.0430
 7068TIP3    H242696   3.607   1.549  17.156 -0.4150  1.2226  0.0334
 7069TIP3   OH242697   0.967   5.007  14.177  0.1601  0.1150 -0.1474
 7069TIP3    H142698   1.014   5.052  14.106  0.4469  1.6009  0.9356
 7069TIP3    H242699   1.017   4.927  14.192  0.4884  0.1214 -1.1534
 7070TIP3   OH242700   5.755   0.183  10.493  0.1275  0.2493  0.1284
 7070TIP3    H142701   5.799   0.260  10.458  0.1949  0.8472  1.5172
 7070TIP3    H242702   5.759   0.193  10.588 -1.4007 -0.5870  0.3087
 7071TIP3   OH242703   1.566   5.251  15.527  0.2447  0.5544 -0.3167
 7071TIP3    H142704   1.488   5.213  15.487  0.5716 -0.4458 -0.0044
 7071TIP3    H242705   1.589   5.324  15.468 -0.0998 -0.0252 -1.1806
 7072TIP3   OH242706   6.441   6.674   4.818 -0.1526  0.2540 -0.1684
 7072TIP3    H142707   6.530   6.700   4.793  0.9525 -1.0494  2.2369
 7072TIP3    H242708   6.412   6.617   4.747  1.8962 -1.2691  0.1672
 7073TIP3   OH242709   6.089   2.917   3.359 -0.0114 -0.3592  0.2241
 7073TIP3    H142710   6.028   2.928   3.286  0.4915 -0.2652 -0.1859
 7073TIP3    H242711   6.040   2.946   3.436 -0.2445  0.3909 -0.2041
 7074TIP3   OH242712   6.425   5.691  12.493  0.0941 -0.4184  0.3003
 7074TIP3    H142713   6.346   5.704  12.545  0.5319  1.8351  0.4242
 7074TIP3    H242714   6.402   5.726  12.406  1.9302  3.2287  1.1927
 7075TIP3   OH242715   1.084   5.829   4.958 -0.2934 -0.3765 -0.0901
 7075TIP3    H142716   1.142   5.897   4.992  1.6437 -2.8955  1.7954
 7075TIP3    H242717   1.119   5.810   4.871 -0.2207  0.2983 -0.2142
 7076TIP3   OH242718   4.864   6.765   1.209  0.4112  0.5010 -0.0870
 7076TIP3    H142719   4.810   6.809   1.143 -0.5118 -0.2897  0.1173
 7076TIP3    H242720   4.882   6.679   1.170 -0.9652 -0.3329  1.1101
 7077TIP3   OH242721   6.692   5.390  12.653  0.1694  1.0827 -0.2574
 7077TIP3    H142722   6.747   5.347  12.588 -0.4793 -1.7718  1.0184
 7077TIP3    H242723   6.615   5.419  12.604  1.4849  2.5726 -1.5014
 7078TIP3   OH242724   5.227   6.607  14.426  0.3786 -0.0883  0.0244
 7078TIP3    H142725   5.223   6.702  14.438  0.0496 -0.1794  0.6443
 7078TIP3    H242726   5.314   6.583  14.459  0.7628  0.0950 -0.8419
 7079TIP3   OH242727   3.616   3.107  15.543  0.2332  0.0618 -0.2234
 7079TIP3    H142728   3.609   3.051  15.621  2.2541 -0.9583 -0.7516
 7079TIP3    H242729   3.551   3.070  15.482  0.8677 -1.1336 -0.2001
 7080TIP3   OH242730   0.593   3.685   3.068  0.8873  0.4571  0.3959
 7080TIP3    H142731   0.610   3.648   3.154  1.2906  2.2046  1.0925
 7080TIP3    H242732   0.680   3.708   3.034  0.9573 -2.4107 -1.5125
 7081TIP3   OH242733   2.446   1.107  16.249 -0.1080 -0.4814  0.0722
 7081TIP3    H142734   2.454   1.038  16.183  0.6812 -0.0363 -0.3045
 7081TIP3    H242735   2.405   1.064  16.324 -0.9808 -1.0006 -0.6943
 7082TIP3   OH242736   2.392   3.350  15.707 -0.2945  0.6090 -0.4256
 7082TIP3    H142737   2.358   3.265  15.735 -1.5695  1.4172  0.5465
 7082TIP3    H242738   2.357   3.412  15.771  1.9668  1.6686 -0.1537
 7083TIP3   OH242739   0.163   0.683  15.487  0.0230 -0.3344 -0.2082
 7083TIP3    H142740   0.116   0.651  15.411 -0.2408  0.2515 -0.2893
 7083TIP3    H242741   0.149   0.616  15.554  0.5110 -0.9983 -0.7651
 7084TIP3   OH242742   2.370   5.393  15.525 -0.1330  0.2700 -0.0920
 7084TIP3    H142743   2.415   5.402  15.609  0.3185 -0.8391 -0.2056
 7084TIP3    H242744   2.287   5.350  15.547 -0.2462  0.4633 -0.1434
 7085TIP3   OH242745   3.041   2.500   2.145 -0.1427 -0.3343 -0.1346
 7085TIP3    H142746   2.987   2.514   2.067  2.1122 -0.8026 -1.8025
 7085TIP3    H242747   3.104   2.571   2.144  0.1459 -0.5566  1.0780
 7086TIP3   OH242748   4.192   3.344   1.070  0.0137  0.0636  0.2251
 7086TIP3    H142749   4.172   3.284   0.998  0.3339 -0.4185  0.5390
 7086TIP3    H242750   4.122   3.328   1.134  0.2446 -0.1615  0.4223
 7087TIP3   OH242751   1.293   1.020   2.119 -0.4192  0.1895 -0.2878
 7087TIP3    H142752   1.203   0.991   2.101 -0.3274  0.1806 -0.7466
 7087TIP3    H242753   1.316   0.978   2.202  0.0754 -1.8847 -1.4289
 7088TIP3   OH242754   1.795   3.913   0.245  0.4728  0.0375  0.2051
 7088TIP3    H142755   1.880   3.869   0.244  0.7392  0.5411 -2.6658
 7088TIP3    H242756   1.816   4.005   0.258  0.2705  0.0007  0.8038
 7089TIP3   OH242757   4.045   3.094  12.908 -0.0674  0.6713  0.3479
 7089TIP3    H142758   4.019   3.010  12.946 -0.3422  0.0968 -1.0692
 7089TIP3    H242759   4.042   3.156  12.981 -1.5084 -0.2123  1.0452
 7090TIP3   OH242760   0.969   0.195  14.423 -0.0422 -0.1813  0.0298
 7090TIP3    H142761   0.936   0.231  14.340  2.3932 -0.7064 -1.2245
 7090TIP3    H242762   1.003   0.109  14.399  3.1987  0.7550  0.9656
 7091TIP3   OH242763   4.040   2.384  15.174  0.1814  0.3366  0.0602
 7091TIP3    H142764   4.067   2.432  15.095  2.1632 -0.3663  0.2985
 7091TIP3    H242765   4.063   2.442  15.246  0.9471 -0.2313  0.2655
 7092TIP3   OH242766   3.640   4.157  13.669 -0.3598 -0.1526 -0.2601
 7092TIP3    H142767   3.676   4.069  13.681 -0.0936  0.3238  3.0877
 7092TIP3    H242768   3.550   4.142  13.642 -0.1561 -1.4545 -0.2583
 7093TIP3   OH242769   4.653   3.844   1.925  0.0308  0.6716  0.0502
 7093TIP3    H142770   4.659   3.837   1.829 -1.1996 -0.6476  0.0554
 7093TIP3    H242771   4.743   3.838   1.955  0.2317 -1.8176 -0.8761
 7094TIP3   OH242772   1.446   2.270  12.270 -0.2077 -0.5725  0.2186
 7094TIP3    H142773   1.499   2.267  12.191 -0.8930 -1.1618 -0.2284
 7094TIP3    H242774   1.423   2.362  12.282  0.9292 -0.3188  0.4266
 7095TIP3   OH242775   0.856   5.984   3.493  0.0172  0.0751  0.1972
 7095TIP3    H142776   0.929   5.984   3.431  0.3455  0.7233  0.5771
 7095TIP3    H242777   0.804   5.908   3.469  1.3926 -1.0038  0.5907
 7096TIP3   OH242778   0.664   4.828   5.926  0.6523  0.2338  0.1161
 7096TIP3    H142779   0.642   4.768   5.998  1.7268 -1.7270 -1.1216
 7096TIP3    H242780   0.759   4.822   5.919  0.7502  1.9626 -0.1874
 7097TIP3   OH242781   6.336   1.999   3.958 -0.0765 -0.3742  0.1925
 7097TIP3    H142782   6.426   2.024   3.982  0.4625 -1.2870 -0.8043
 7097TIP3    H242783   6.306   1.945   4.031  0.1591  0.0083  0.5709
 7098TIP3   OH242784   0.256   2.663   5.104  0.0632 -0.1147 -0.0729
 7098TIP3    H142785   0.211   2.641   5.185 -0.4530  0.3320 -0.2350
 7098TIP3    H242786   0.270   2.579   5.061 -1.6457 -0.1702 -0.5575
 7099TIP3   OH242787   1.845   6.454  10.498  0.1145  0.1878  0.4267
 7099TIP3    H142788   1.940   6.456  10.486  0.4127 -0.9238  2.3735
 7099TIP3    H242789   1.826   6.363  10.519 -1.5879  0.1090 -1.3007
 7100TIP3   OH242790   4.701   1.878  14.320  0.3890  0.9599 -0.7473
 7100TIP3    H142791   4.608   1.884  14.300  0.3675  0.1021 -0.9491
 7100TIP3    H242792   4.733   1.807  14.263  1.3393  1.8373 -1.3198
 7101TIP3   OH242793   5.858   2.963  13.359  0.0925 -0.2388  0.4914
 7101TIP3    H142794   5.935   2.968  13.415  0.0548  2.3808  0.3627
 7101TIP3    H242795   5.789   3.007  13.409 -0.3357  0.7321 -0.9191
 7102TIP3   OH242796   0.783   4.218   5.630 -0.0274  0.1600  0.6901
 7102TIP3    H142797   0.743   4.148   5.579  2.4874 -0.0942 -1.0580
 7102TIP3    H242798   0.819   4.175   5.708 -0.4302 -0.1178  0.7203
 7103TIP3   OH242799   1.954   3.436   3.299  0.2249  0.1142 -0.1800
 7103TIP3    H142800   1.880   3.471   3.349  0.0735 -1.6580  0.8699
 7103TIP3    H242801   1.915   3.400   3.220  0.1325  0.3758 -0.2542
 7104TIP3   OH242802   4.548   0.948  14.922  0.5763 -0.3368 -0.0180
 7104TIP3    H142803   4.486   0.982  14.858  0.1954 -0.5968  0.2140
 7104TIP3    H242804   4.568   0.859  14.892 -0.2081 -0.7424  0.6608
 7105TIP3   OH242805   3.782   6.373  14.142 -0.3968  0.3931  0.5004
 7105TIP3    H142806   3.698   6.389  14.099  0.1041  0.3470 -0.5179
 7105TIP3    H242807   3.831   6.320  14.079 -0.2284 -1.0231  1.7781
 7106TIP3   OH242808   1.437   2.747  15.788 -0.0909  0.1291  0.2035
 7106TIP3    H142809   1.354   2.742  15.739 -0.4834  1.4851  0.6955
 7106TIP3    H242810   1.415   2.716  15.876  0.2109 -0.6491  0.0107
 7107TIP3   OH242811   6.081   5.693   3.926 -0.0638 -0.0209  0.5692
 7107TIP3    H142812   6.059   5.681   4.019  0.9213 -0.6531  0.7286
 7107TIP3    H242813   6.001   5.669   3.879 -0.6328  0.4925  1.2638
 7108TIP3   OH242814   1.935   6.515  14.871 -0.2430  0.5699  0.0113
 7108TIP3    H142815   1.974   6.584  14.817  0.0256  1.0828  0.8495
 7108TIP3    H242816   1.937   6.437  14.815  1.3263  0.7569 -0.2219
 7109TIP3   OH242817   2.558   3.068  16.387  0.9035  1.1429  0.1566
 7109TIP3    H142818   2.638   3.074  16.439 -1.2147  1.6434  3.5339
 7109TIP3    H242819   2.535   3.159  16.367  0.7777  1.0361 -0.1981
 7110TIP3   OH242820   1.592   0.053  12.218 -0.3339 -0.3696  0.2913
 7110TIP3    H142821   1.522  -0.011  12.229  1.1139 -2.6407 -2.9666
 7110TIP3    H242822   1.664   0.003  12.179  1.5564  2.8394 -0.5126
 7111TIP3   OH242823   6.612   4.468  11.952 -0.2957 -0.5369  0.2056
 7111TIP3    H142824   6.606   4.541  12.013  0.1977  1.3883 -1.9900
 7111TIP3    H242825   6.599   4.390  12.007 -0.6129  1.1527  2.6169
 7112TIP3   OH242826   2.971   2.951   5.244  0.6546 -0.3384 -0.4041
 7112TIP3    H142827   2.954   2.863   5.211  0.6519 -0.3992 -0.2395
 7112TIP3    H242828   3.027   2.937   5.320  0.9718 -0.1754 -0.6050
 7113TIP3   OH242829   2.503   1.867  14.007 -0.3405  0.3363  0.0200
 7113TIP3    H142830   2.541   1.779  14.011 -0.0997  0.4306 -0.1645
 7113TIP3    H242831   2.442   1.864  13.934 -0.8413  0.1246  0.4455
 7114TIP3   OH242832   2.417   3.649  12.303 -0.7070 -0.7015 -0.2117
 7114TIP3    H142833   2.401   3.741  12.286  0.5812 -0.3529  0.3445
 7114TIP3    H242834   2.356   3.626  12.373 -1.2805 -0.3712 -0.5992
 7115TIP3   OH242835   1.579   4.939  15.275 -0.6013 -0.3055 -0.5212
 7115TIP3    H142836   1.634   4.980  15.341 -1.0440 -0.6093  0.0409
 7115TIP3    H242837   1.601   4.984  15.193 -0.0835  0.0955 -0.1587
 7116TIP3   OH242838   6.558   6.773   1.077  0.5197  0.0329  0.0078
 7116TIP3    H142839   6.625   6.833   1.045  0.9884 -0.8304 -0.6329
 7116TIP3    H242840   6.576   6.691   1.033 -1.2328 -0.0883 -0.4941
 7117TIP3   OH242841   0.148   1.730  16.628 -0.2615 -0.2769 -0.4424
 7117TIP3    H142842   0.137   1.810  16.576  0.8071 -0.4673 -0.9702
 7117TIP3    H242843   0.080   1.671  16.595 -0.0020 -0.1658 -1.1707
 7118TIP3   OH242844   4.166   0.495  13.143  0.0263  0.1527 -0.0663
 7118TIP3    H142845   4.219   0.484  13.064 -1.0969  1.0824 -0.9624
 7118TIP3    H242846   4.077   0.508  13.110 -0.4665  0.4523  1.3601
 7119TIP3   OH242847   5.169   1.319  12.831  0.6738 -0.2667 -0.0948
 7119TIP3    H142848   5.154   1.370  12.752 -0.4876 -1.4534 -0.6668
 7119TIP3    H242849   5.261   1.335  12.853  0.8706  0.4674 -1.3900
 7120TIP3   OH242850   6.267   4.419   6.541  0.8848  0.0235 -0.2741
 7120TIP3    H142851   6.262   4.495   6.484  0.7474 -1.8756 -2.8792
 7120TIP3    H242852   6.215   4.351   6.496  2.1601 -2.0351  1.2521
 7121TIP3   OH242853   1.264   6.470  13.890  0.0471  0.4695 -0.1266
 7121TIP3    H142854   1.340   6.451  13.945 -0.4145  0.2357  0.4391
 7121TIP3    H242855   1.259   6.396  13.830  0.7113  0.8557 -0.6666
 7122TIP3   OH242856   1.388   2.119   4.360  0.4388  0.6445 -0.0631
 7122TIP3    H142857   1.379   2.038   4.409 -0.9730  1.6262  1.3244
 7122TIP3    H242858   1.326   2.112   4.288 -0.0783  0.7286  0.3770
 7123TIP3   OH242859   5.149   0.539  12.653  0.2764 -0.4552 -0.0634
 7123TIP3    H142860   5.228   0.592  12.643  1.1533 -1.8789 -0.8199
 7123TIP3    H242861   5.091   0.592  12.708  1.6850  0.6782  0.3486
 7124TIP3   OH242862   2.169   0.873  12.754  0.3044  0.4784  0.0819
 7124TIP3    H142863   2.160   0.938  12.684  1.6103  0.6661  0.0723
 7124TIP3    H242864   2.232   0.810  12.719 -1.1648 -0.9642 -0.0233
 7125TIP3   OH242865   4.830   5.500   3.760  0.6842 -0.0001  0.7139
 7125TIP3    H142866   4.797   5.531   3.844  2.4243  1.2711  0.9767
 7125TIP3    H242867   4.882   5.574   3.726 -0.5738 -0.2110 -1.8142
 7126TIP3   OH242868   6.435   4.594  12.905  0.1673 -0.4760  0.2105
 7126TIP3    H142869   6.472   4.595  12.993 -0.4009 -1.5060  0.4611
 7126TIP3    H242870   6.503   4.553  12.850 -0.4958 -2.1689  0.6321
 7127TIP3   OH242871   6.001   3.722   4.250 -0.0925  0.1335 -1.1941
 7127TIP3    H142872   5.967   3.667   4.320  0.7172  1.6228  0.4287
 7127TIP3    H242873   5.923   3.758   4.208 -0.6290  2.1295  1.3542
 7128TIP3   OH242874   1.364   0.638   4.857 -0.0109 -0.1092 -0.1340
 7128TIP3    H142875   1.418   0.653   4.780 -0.8253  1.3929 -0.4377
 7128TIP3    H242876   1.305   0.713   4.860 -0.0364 -0.1773  1.9199
 7129TIP3   OH242877   5.675   0.492   6.176  0.3505  1.0358  0.1593
 7129TIP3    H142878   5.595   0.459   6.135  1.2415 -0.8238 -0.1509
 7129TIP3    H242879   5.645   0.538   6.254 -1.0681  0.8671 -0.2754
 7130TIP3   OH242880   1.964   3.033   6.485 -0.1323  0.9625  0.5904
 7130TIP3    H142881   2.026   3.078   6.427  0.0065  3.0625  2.3042
 7130TIP3    H242882   1.940   2.953   6.437  1.8574  1.4192 -1.2532
 7131TIP3   OH242883   5.952   0.719  12.801  0.7341  0.2958  0.6974
 7131TIP3    H142884   5.971   0.694  12.892  1.3885 -1.0686  0.2006
 7131TIP3    H242885   5.860   0.695  12.789  1.2071 -1.4528  0.3888
 7132TIP3   OH242886   3.241   3.040   2.320 -0.3705  0.6430 -0.3095
 7132TIP3    H142887   3.167   3.032   2.260 -1.9688 -3.9679  2.0185
 7132TIP3    H242888   3.202   3.037   2.407  2.3099  2.0123  1.0150
 7133TIP3   OH242889   0.395   2.164   4.440  0.2919 -0.1225 -0.1652
 7133TIP3    H142890   0.485   2.168   4.407 -0.1581 -2.9274 -1.8454
 7133TIP3    H242891   0.341   2.182   4.363 -0.6362 -0.1526  0.4784
 7134TIP3   OH242892   1.956   5.894   1.732 -0.3539  0.2900  0.4243
 7134TIP3    H142893   1.914   5.960   1.787 -0.0886  1.8096 -1.1534
 7134TIP3    H242894   2.050   5.914   1.740 -0.3198  0.5280 -0.5915
 7135TIP3   OH242895   3.640   5.849   4.658  0.3258  0.1713  0.3310
 7135TIP3    H142896   3.661   5.925   4.712  1.1029  1.0588 -1.1807
 7135TIP3    H242897   3.552   5.866   4.625  0.6958  0.6738 -0.4147
 7136TIP3   OH242898   5.605   0.823   0.241  0.0165  0.2758 -0.1951
 7136TIP3    H142899   5.514   0.817   0.211  0.6513  1.4728 -2.5103
 7136TIP3    H242900   5.639   0.901   0.197  3.2815 -2.3111 -2.4376
 7137TIP3   OH242901   4.886   1.928   3.663  0.2853  0.0596 -0.1050
 7137TIP3    H142902   4.960   1.984   3.636  1.2648 -0.7281  0.9180
 7137TIP3    H242903   4.921   1.875   3.734 -1.2098 -0.5106  0.2161
 7138TIP3   OH242904   5.856   2.463  14.900  0.3338  0.5063 -0.5332
 7138TIP3    H142905   5.805   2.505  14.969  0.9070  1.0962 -0.4563
 7138TIP3    H242906   5.835   2.513  14.821 -0.4709 -0.2895 -0.8320
 7139TIP3   OH242907   3.602   2.994  13.205 -0.0882  0.2677  0.6128
 7139TIP3    H142908   3.589   3.082  13.242  1.4019  1.0730 -0.7109
 7139TIP3    H242909   3.572   2.935  13.274  0.6758  1.7809  2.2941
 7140TIP3   OH242910   1.565   3.001  15.634  0.2302 -0.0847  0.3705
 7140TIP3    H142911   1.645   3.020  15.683 -0.8139  2.0451  1.2857
 7140TIP3    H242912   1.511   2.950  15.695  0.5888 -0.8991  0.0081
 7141TIP3   OH242913   0.486   1.156  14.920  0.3064  0.0694 -1.0922
 7141TIP3    H142914   0.514   1.108  14.998 -2.2889  0.1263 -0.0840
 7141TIP3    H242915   0.549   1.227  14.913  1.0277 -0.3685  0.5144
 7142TIP3   OH242916   6.213   0.096  16.719 -0.5237 -0.3562  0.0007
 7142TIP3    H142917   6.161   0.128  16.793 -0.9314  2.7686 -1.5714
 7142TIP3    H242918   6.152   0.044  16.667 -0.6421 -1.2547  1.0264
 7143TIP3   OH242919   2.093   5.199   0.630 -0.0196 -0.6187 -0.2804
 7143TIP3    H142920   2.129   5.256   0.698 -0.2130 -0.0532 -0.6442
 7143TIP3    H242921   2.109   5.247   0.549 -1.8129 -0.2346 -0.4232
 7144TIP3   OH242922   5.428   4.253  15.462  0.5473  0.1061 -0.1588
 7144TIP3    H142923   5.514   4.228  15.497 -0.2988 -1.9175  0.5448
 7144TIP3    H242924   5.395   4.318  15.524  1.5699  0.8692 -0.4137
 7145TIP3   OH242925   6.727   4.242  11.354 -0.5970 -0.7370 -0.4314
 7145TIP3    H142926   6.728   4.259  11.448 -0.1558 -0.0991 -0.5487
 7145TIP3    H242927   6.703   4.326  11.315  2.5918 -0.0290 -1.0689
 7146TIP3   OH242928   5.492   0.706   4.386  0.2092  0.1728 -0.1092
 7146TIP3    H142929   5.582   0.734   4.396  0.3466 -0.4763  0.5297
 7146TIP3    H242930   5.443   0.758   4.450  0.3492 -0.4868  0.5417
 7147TIP3   OH242931   1.946   4.557   5.804 -0.3878 -0.0395 -0.0149
 7147TIP3    H142932   1.970   4.617   5.734 -0.8822  0.7669  0.5108
 7147TIP3    H242933   2.022   4.498   5.811  0.4028  0.9614 -0.0391
 7148TIP3   OH242934   2.065   3.501   1.465 -0.4522  0.0353 -0.3577
 7148TIP3    H142935   2.116   3.579   1.487  2.6291 -2.2577  0.8941
 7148TIP3    H242936   2.026   3.473   1.548  0.3479 -1.0505 -0.3377
 7149TIP3   OH242937   5.839   2.837   1.446 -0.0982  0.2123 -0.1723
 7149TIP3    H142938   5.786   2.907   1.484  0.0317  0.3381 -0.2231
 7149TIP3    H242939   5.828   2.845   1.352  0.3783  0.5293 -0.2033
 7150TIP3   OH242940   6.576   1.429   5.096 -0.1194 -0.4240 -0.3989
 7150TIP3    H142941   6.670   1.422   5.113 -0.2174 -1.9593 -0.3995
 7150TIP3    H242942   6.570   1.442   5.001  0.0795 -0.7458 -0.4566
 7151TIP3   OH242943   1.310   4.138   5.280  0.0829  0.0720  0.0941
 7151TIP3    H142944   1.291   4.045   5.267 -0.5818  0.1596  0.4327
 7151TIP3    H242945   1.392   4.139   5.328  0.0438 -0.3460  0.1727
 7152TIP3   OH242946   5.042   1.094   1.030  0.9637  0.3035  0.4363
 7152TIP3    H142947   5.024   1.187   1.013 -0.3029 -0.0528 -0.2571
 7152TIP3    H242948   4.977   1.068   1.095 -2.5561 -1.4853 -3.5250
 7153TIP3   OH242949   3.384   2.657   5.341 -0.2011 -0.4126 -0.0906
 7153TIP3    H142950   3.440   2.580   5.346  0.4134  0.1314  2.0046
 7153TIP3    H242951   3.318   2.643   5.410  0.0626  1.0319  0.4745
 7154TIP3   OH242952   1.157   6.277   1.003  0.6113 -0.3914  0.2663
 7154TIP3    H142953   1.235   6.333   0.996  0.3728  0.0356  0.9947
 7154TIP3    H242954   1.131   6.262   0.912  1.2619 -0.1446  0.0312
 7155TIP3   OH242955   5.156   5.562  12.585  0.0691 -0.5115  0.0598
 7155TIP3    H142956   5.188   5.646  12.551  2.0040 -1.1582  0.1780
 7155TIP3    H242957   5.076   5.545  12.535 -0.6425  1.6408  0.4091
 7156TIP3   OH242958   5.732   6.165  15.351  0.0411  0.1086 -0.3805
 7156TIP3    H142959   5.790   6.090  15.364 -1.1288 -0.6582  0.5550
 7156TIP3    H242960   5.760   6.229  15.416 -0.2770 -0.3412  0.2079
 7157TIP3   OH242961   3.696   4.629   5.368 -0.0988  0.3293 -0.1076
 7157TIP3    H142962   3.623   4.637   5.307 -1.4062 -0.7220  1.2454
 7157TIP3    H242963   3.744   4.551   5.338 -1.0327 -0.4878  0.4684
 7158TIP3   OH242964   2.465   0.416  15.127 -0.3087  0.3321  0.6062
 7158TIP3    H142965   2.500   0.450  15.045 -1.6940  2.4494  0.8698
 7158TIP3    H242966   2.501   0.327  15.133  2.7509  1.4120 -0.4877
 7159TIP3   OH242967   2.177   0.626  15.027  0.6129  0.3095  0.0188
 7159TIP3    H142968   2.269   0.651  15.037  0.9611 -0.4188 -1.3366
 7159TIP3    H242969   2.131   0.708  15.010  1.3573  0.3890 -1.6671
 7160TIP3   OH242970   3.309   4.186   3.484 -0.5892 -0.4894  0.0141
 7160TIP3    H142971   3.261   4.150   3.410 -1.1716 -3.7966  1.9010
 7160TIP3    H242972   3.401   4.167   3.465 -0.7628 -1.5865  0.2556
 7161TIP3   OH242973   6.426   6.322   1.179 -0.0014  0.0265  0.2505
 7161TIP3    H142974   6.331   6.328   1.169 -0.0598  0.5239  1.1434
 7161TIP3    H242975   6.443   6.228   1.187 -0.3460 -0.1139 -0.6055
 7162TIP3   OH242976   2.397   6.804  17.207 -0.2155  0.1067  0.3138
 7162TIP3    H142977   2.368   6.727  17.257  1.5685 -0.9450 -0.2241
 7162TIP3    H242978   2.416   6.870  17.273  0.2141 -0.6045  0.8994
 7163TIP3   OH242979   1.663   0.407   4.489  0.3428  0.5812 -0.4931
 7163TIP3    H142980   1.756   0.429   4.492  0.6108 -0.4750 -0.8595
 7163TIP3    H242981   1.642   0.377   4.577  0.7851 -0.8749 -0.8674
 7164TIP3   OH242982   3.976   2.435  14.520  0.0146 -0.2775  0.0528
 7164TIP3    H142983   3.935   2.369  14.576 -0.1696  0.8269  1.2362
 7164TIP3    H242984   4.062   2.400  14.499 -0.0090 -0.8020  0.8361
 7165TIP3   OH242985   4.795   1.267   0.121  0.4090 -0.0912  0.4024
 7165TIP3    H142986   4.769   1.180   0.152  0.1926 -0.0415  0.3620
 7165TIP3    H242987   4.798   1.321   0.200 -1.0680  0.2695  0.2301
 7166TIP3   OH242988   4.544   5.912  14.657  0.0317  0.7508  0.0576
 7166TIP3    H142989   4.476   5.977  14.644 -2.3892 -1.9306 -1.1181
 7166TIP3    H242990   4.518   5.865  14.736  0.4004 -0.4739 -0.5443
 7167TIP3   OH242991   1.270   1.526  11.400 -0.6580  0.1551 -0.2701
 7167TIP3    H142992   1.200   1.582  11.365 -1.0580 -1.3340 -1.9275
 7167TIP3    H242993   1.349   1.553  11.353 -0.1907  1.4906  1.2399
 7168TIP3   OH242994   1.301   5.911  16.783 -0.7392 -0.7446 -0.4052
 7168TIP3    H142995   1.378   5.941  16.832 -0.8291 -0.3140 -0.5245
 7168TIP3    H242996   1.228   5.962  16.820 -0.6225  0.4581 -1.8131
 7169TIP3   OH242997   2.847   6.784   1.120 -0.0450 -0.3551  0.3158
 7169TIP3    H142998   2.913   6.853   1.114 -0.2538 -0.1819  0.0427
 7169TIP3    H242999   2.799   6.805   1.200 -0.3516  0.0293  0.0327
 7170TIP3   OH243000   3.947   2.300   4.345 -0.1363 -0.3275  0.0746
 7170TIP3    H143001   4.026   2.326   4.391  1.0235 -1.1695 -1.3933
 7170TIP3    H243002   3.895   2.380   4.340  0.4974  0.1679  1.2993
 7171TIP3   OH243003   0.967   1.950   1.095 -0.0832 -0.1090  0.7337
 7171TIP3    H143004   0.872   1.939   1.096  0.0833 -1.6049  2.2213
 7171TIP3    H243005   0.997   1.888   1.028 -0.1569  0.5351  0.0935
 7172TIP3   OH243006   4.781   1.737   5.101 -0.6129 -0.1198 -0.4258
 7172TIP3    H143007   4.867   1.717   5.138 -1.1552 -1.2711  0.2224
 7172TIP3    H243008   4.780   1.694   5.016  0.1057  1.3646 -1.2046
 7173TIP3   OH243009   1.643   3.251  16.688  0.1567  0.3460  0.1794
 7173TIP3    H143010   1.572   3.193  16.713  1.4381 -0.2859  2.5013
 7173TIP3    H243011   1.618   3.337  16.721 -0.1137  0.3928 -0.1459
 7174TIP3   OH243012   4.490   1.438  13.507  0.5416  0.0374  0.0142
 7174TIP3    H143013   4.407   1.404  13.539 -0.3893  1.4849 -0.7861
 7174TIP3    H243014   4.493   1.411  13.415  0.3076  1.1488 -0.3252
 7175TIP3   OH243015   0.666   6.527   4.076 -0.1613  0.4897 -0.3265
 7175TIP3    H143016   0.647   6.561   4.164  0.8798  1.5361 -0.4862
 7175TIP3    H243017   0.756   6.556   4.059  0.2895 -1.2560 -1.0101
 7176TIP3   OH243018   4.018   1.819   0.040 -0.0115 -0.3734  0.2689
 7176TIP3    H143019   4.052   1.809  -0.049  1.1531  0.0487  0.6559
 7176TIP3    H243020   4.096   1.827   0.094 -0.7475  2.3454  0.9815
 7177TIP3   OH243021   2.963   4.623  11.824  0.4352 -0.0321  0.5004
 7177TIP3    H143022   2.969   4.581  11.739  0.1838 -0.8220  0.8645
 7177TIP3    H243023   3.039   4.591  11.872 -0.0593 -0.5203  0.9714
 7178TIP3   OH243024   5.454   3.102  17.011  0.0178 -0.2916  0.0018
 7178TIP3    H143025   5.399   3.051  16.952 -0.0549 -1.0549  0.7232
 7178TIP3    H243026   5.499   3.037  17.064  0.9797  0.3581 -0.0097
 7179TIP3   OH243027   5.504   3.468   2.390 -0.1809  0.2134  0.0146
 7179TIP3    H143028   5.548   3.425   2.317  0.7013  1.6493 -0.3244
 7179TIP3    H243029   5.467   3.397   2.441  1.7091 -0.9983 -0.2333
 7180TIP3   OH243030   3.461   3.396   3.840  0.3437 -0.2564 -0.1758
 7180TIP3    H143031   3.473   3.302   3.856  2.0396  0.0698  0.5180
 7180TIP3    H243032   3.504   3.411   3.755 -5.1626 -1.2186 -3.3487
 7181TIP3   OH243033   3.178   4.460   0.826  0.0978  0.1701 -0.6467
 7181TIP3    H143034   3.165   4.434   0.735 -0.0093  1.0576 -0.8899
 7181TIP3    H243035   3.092   4.447   0.867  0.9172 -3.1936  0.0951
 7182TIP3   OH243036   6.408   3.541   4.778  0.2812  0.0073 -0.1049
 7182TIP3    H143037   6.455   3.594   4.713 -0.0495  0.3878 -0.0372
 7182TIP3    H243038   6.475   3.516   4.841  0.4819  0.1768 -0.2491
 7183TIP3   OH243039   0.681   1.551  12.083  0.2740  0.2808 -0.4208
 7183TIP3    H143040   0.711   1.498  12.010 -1.0726  0.0183 -0.7958
 7183TIP3    H243041   0.665   1.638  12.045 -1.7066 -0.2000 -0.7482
 7184TIP3   OH243042   5.761   0.624   4.184  0.4933  0.6568 -0.1910
 7184TIP3    H143043   5.702   0.549   4.174 -0.6890  1.8529 -2.6092
 7184TIP3    H243044   5.834   0.591   4.237 -0.7841 -1.7436  0.1106
 7185TIP3   OH243045   6.230   6.453  13.001 -0.5652 -0.0128  0.8656
 7185TIP3    H143046   6.165   6.431  13.068  0.5702 -1.0371  1.6468
 7185TIP3    H243047   6.263   6.369  12.970 -2.8688  0.3201 -2.8507
 7186TIP3   OH243048   3.051   1.945  16.079  0.3490  0.5241 -0.4997
 7186TIP3    H143049   3.110   1.991  16.139 -0.1807  0.4552  0.0825
 7186TIP3    H243050   3.097   1.864  16.058  0.6855  0.7004 -0.4507
 7187TIP3   OH243051   2.253   2.900  13.612  0.2278  0.6703 -0.3791
 7187TIP3    H143052   2.180   2.848  13.577 -0.8407  1.5464  0.4952
 7187TIP3    H243053   2.278   2.854  13.692 -1.1980  1.8452  0.7854
 7188TIP3   OH243054   3.107   6.224   5.566 -0.4754 -0.1073  0.0794
 7188TIP3    H143055   3.022   6.200   5.602 -1.5862  1.4925 -1.3430
 7188TIP3    H243056   3.085   6.275   5.488  1.8109 -1.1884 -1.3109
 7189TIP3   OH243057   6.534   5.658   4.072  0.3172 -0.0277  0.0152
 7189TIP3    H143058   6.502   5.582   4.023 -0.5031 -0.9211  1.8868
 7189TIP3    H243059   6.465   5.724   4.062 -1.3391 -1.3048  2.5103
 7190TIP3   OH243060   5.267   4.966  14.229 -0.4092 -0.0527  0.0311
 7190TIP3    H143061   5.234   4.940  14.143 -0.3107 -1.6875  0.4746
 7190TIP3    H243062   5.330   4.898  14.252  0.4595  1.0313  0.8733
 7191TIP3   OH243063   5.907   6.319  12.513 -0.0514  0.0800  0.0609
 7191TIP3    H143064   5.988   6.271  12.498 -0.2182  0.5904 -2.7088
 7191TIP3    H243065   5.855   6.262  12.570  0.8193 -1.8401 -1.0264
 7192TIP3   OH243066   4.554   2.735   4.756  0.2880  0.1022 -0.1297
 7192TIP3    H143067   4.614   2.797   4.798  0.6004 -1.1579  1.2887
 7192TIP3    H243068   4.503   2.789   4.696 -0.4309  2.0113  2.1227
 7193TIP3   OH243069   3.134   5.533   4.680  0.3192  0.0623  0.3244
 7193TIP3    H143070   3.054   5.575   4.650  0.2418  0.1830  0.6990
 7193TIP3    H243071   3.136   5.549   4.774  0.6819 -0.1100  0.3477
 7194TIP3   OH243072   0.855   1.920   5.116 -0.3174  0.2313 -0.3282
 7194TIP3    H143073   0.798   1.845   5.098 -1.0439  0.7743 -0.2914
 7194TIP3    H243074   0.872   1.958   5.030 -1.0724  0.8498 -0.1962
 7195TIP3   OH243075   5.626   1.383   2.133  0.1704  0.0770  0.5431
 7195TIP3    H143076   5.568   1.459   2.127 -2.5563 -1.8485  1.3698
 7195TIP3    H243077   5.679   1.399   2.212  0.7873  1.8550 -0.2098
 7196TIP3   OH243078   2.451   4.630   5.875  0.4595 -0.6398  0.5028
 7196TIP3    H143079   2.447   4.619   5.780  1.2733 -0.7779  0.4782
 7196TIP3    H243080   2.398   4.559   5.910  0.1927 -0.6142  0.1473
 7197TIP3   OH243081   6.404   3.055   1.403  0.0188  0.0800  0.4465
 7197TIP3    H143082   6.349   3.134   1.401  0.6866  0.5689  1.1202
 7197TIP3    H243083   6.343   2.984   1.424 -0.3603  0.6179  1.1938
 7198TIP3   OH243084   1.730   0.411  16.739  0.2676 -0.3136  0.8593
 7198TIP3    H143085   1.665   0.341  16.734  0.0556 -0.0634 -0.0432
 7198TIP3    H243086   1.678   0.489  16.760  0.0817  0.1373 -1.1785
 7199TIP3   OH243087   6.038   2.188  16.607 -0.0746 -0.1185 -0.0538
 7199TIP3    H143088   6.009   2.272  16.641  1.2039 -0.9935  3.4609
 7199TIP3    H243089   6.045   2.201  16.512 -4.2952  2.3295 -0.1578
 7200TIP3   OH243090   5.091   2.999   4.011  0.2435 -0.2389 -0.2660
 7200TIP3    H143091   5.005   3.021   3.976  0.3697  1.5137  0.4542
 7200TIP3    H243092   5.140   2.966   3.936 -1.0300 -1.2218 -0.6838
 7201TIP3   OH243093   5.074   6.669   3.487  0.0820 -0.1657  0.1616
 7201TIP3    H143094   5.114   6.666   3.400  1.3836 -0.4428  0.7536
 7201TIP3    H243095   5.126   6.734   3.535 -1.0824  0.5155  0.5094
 7202TIP3   OH243096   4.351   3.188   5.512  0.1503 -0.2952  0.6686
 7202TIP3    H143097   4.315   3.134   5.582  1.2428  1.1079  2.3520
 7202TIP3    H243098   4.294   3.171   5.437 -0.8765 -2.0323  1.7986
 7203TIP3   OH243099   2.761   4.325  13.316 -0.2381  0.0546  0.0991
 7203TIP3    H143100   2.674   4.294  13.342 -0.5952  0.6834 -0.3180
 7203TIP3    H243101   2.755   4.335  13.221  0.2563  0.2060  0.0822
 7204TIP3   OH243102   5.916   2.374   3.171  0.2638  0.3258  0.0844
 7204TIP3    H143103   5.930   2.432   3.246  0.1112 -1.2948  1.4006
 7204TIP3    H243104   5.955   2.421   3.097  1.9160  1.2248  1.4735
 7205TIP3   OH243105   6.262   1.481  16.490 -0.6283 -0.2222 -0.4931
 7205TIP3    H143106   6.216   1.410  16.445 -1.2593  1.4455 -2.5757
 7205TIP3    H243107   6.283   1.544  16.421  2.7948  0.1461  0.7836
 7206TIP3   OH243108   6.693   6.727  15.766 -0.0807  0.5110  0.2863
 7206TIP3    H143109   6.699   6.762  15.677  0.4431  0.7930  0.4339
 7206TIP3    H243110   6.691   6.632  15.754  0.6489  0.5282  0.0061
 7207TIP3   OH243111   1.114   0.493  17.104 -0.4172  0.3971  0.2117
 7207TIP3    H143112   1.172   0.490  17.180  1.4866  0.6613 -1.1848
 7207TIP3    H243113   1.095   0.586  17.091  1.2921  0.5725 -1.1145
 7208TIP3   OH243114   3.525   0.747   2.091 -0.4256  0.2306  0.1884
 7208TIP3    H143115   3.616   0.719   2.092 -0.4946 -0.0261 -0.4761
 7208TIP3    H243116   3.522   0.818   2.026 -0.8502 -0.2929 -0.3683
 7209TIP3   OH243117   5.121   2.240   6.771 -0.3492 -0.3115  0.2534
 7209TIP3    H143118   5.045   2.183   6.784 -0.4107 -0.6307 -1.4618
 7209TIP3    H243119   5.187   2.184   6.731  0.5550  0.1423  1.1076
 7210TIP3   OH243120   0.753   0.529   5.061  0.4143  0.7566  0.2199
 7210TIP3    H143121   0.842   0.500   5.038  0.5010  1.6073 -0.5685
 7210TIP3    H243122   0.755   0.624   5.050 -0.2285  0.9287  1.5048
 7211TIP3   OH243123   0.295   0.558   2.714  0.2825  0.1920  0.5103
 7211TIP3    H143124   0.280   0.488   2.777 -1.6785 -0.2118 -0.3480
 7211TIP3    H243125   0.262   0.637   2.757  1.5429  0.4088  1.0792
 7212TIP3   OH243126   2.978   6.021  16.526  0.2427 -0.1084 -0.1558
 7212TIP3    H143127   3.048   6.080  16.554  0.8325 -0.6072 -0.5747
 7212TIP3    H243128   3.023   5.951  16.479 -0.6875  0.5798 -2.1446
 7213TIP3   OH243129   4.811   2.372  12.704 -0.2765  0.0332 -0.5134
 7213TIP3    H143130   4.835   2.314  12.632  0.4287  0.7269 -0.8482
 7213TIP3    H243131   4.776   2.450  12.662  1.9853  1.2667 -0.2028
 7214TIP3   OH243132   3.483   2.590   5.783 -0.6292 -0.1852 -0.6362
 7214TIP3    H143133   3.572   2.554   5.774  0.1247  1.7055 -0.9683
 7214TIP3    H243134   3.490   2.679   5.750 -2.4703  0.2653  0.1485
 7215TIP3   OH243135   1.038   3.465   2.951 -0.1154 -0.3195 -0.0247
 7215TIP3    H143136   1.118   3.518   2.947 -1.3362  1.5619  0.3750
 7215TIP3    H243137   1.012   3.455   2.859  1.3473 -2.1943 -0.2884
 7216TIP3   OH243138   5.607   3.065  12.229 -0.3582 -0.6967 -0.0433
 7216TIP3    H143139   5.542   3.130  12.255 -0.1719  0.7272 -2.8933
 7216TIP3    H243140   5.691   3.103  12.255 -0.3623 -0.5176 -0.2906
 7217TIP3   OH243141   2.443   1.036   4.405  0.1202 -0.3091 -0.2884
 7217TIP3    H143142   2.528   1.011   4.441 -0.4738 -1.7983  0.1428
 7217TIP3    H243143   2.454   1.024   4.310 -0.0818 -2.0834 -0.1106
 7218TIP3   OH243144   6.646   0.946  15.009  0.2526  0.1032  0.1288
 7218TIP3    H143145   6.644   0.892  15.088 -0.0933  1.0846  0.8013
 7218TIP3    H243146   6.601   1.027  15.033 -0.8636 -0.0258 -1.4081
 7219TIP3   OH243147   0.774   6.370   1.215 -0.2771 -0.7537 -0.5066
 7219TIP3    H143148   0.809   6.281   1.213 -1.1792 -1.1068 -1.2046
 7219TIP3    H243149   0.750   6.384   1.307  1.1488 -0.7060 -0.1273
 7220TIP3   OH243150   5.409   0.287   4.771 -0.3771  0.5160 -0.3055
 7220TIP3    H143151   5.473   0.219   4.790 -0.3890  0.7307  0.5553
 7220TIP3    H243152   5.439   0.362   4.823 -2.4613 -0.0263  1.7948
 7221TIP3   OH243153   0.827   4.691   5.096  0.2194  0.2933 -0.1614
 7221TIP3    H143154   0.828   4.738   5.013  0.4687 -0.9712 -0.8727
 7221TIP3    H243155   0.870   4.751   5.158  0.3992  1.0575 -1.0152
 7222TIP3   OH243156   4.336   0.741  11.423  0.4565  0.4264  0.3175
 7222TIP3    H143157   4.398   0.671  11.445 -0.2085 -0.2979 -0.0682
 7222TIP3    H243158   4.274   0.742  11.495  1.0350  1.2997  0.8088
 7223TIP3   OH243159   1.656   1.379   4.233 -0.6984 -0.6887  0.1253
 7223TIP3    H143160   1.647   1.366   4.327  0.5743 -2.1347  0.0694
 7223TIP3    H243161   1.740   1.425   4.223 -0.7626 -0.6617 -0.3170
 7224TIP3   OH243162   4.602   1.721  10.871  0.7106 -0.1618  0.3302
 7224TIP3    H143163   4.578   1.814  10.876 -0.0116 -0.3062 -0.4044
 7224TIP3    H243164   4.640   1.702  10.957  1.3321  0.9394  0.3222
 7225TIP3   OH243165   0.986   2.999   5.282  0.1884  0.3756  0.2352
 7225TIP3    H143166   1.003   2.951   5.201  0.2741  0.9635 -0.0968
 7225TIP3    H243167   0.929   2.941   5.333  0.7037 -0.2981  0.0564
 7226TIP3   OH243168   3.980   2.354   2.222  0.1354 -0.3765 -0.3998
 7226TIP3    H143169   4.045   2.284   2.218 -0.9959 -1.4462 -0.3179
 7226TIP3    H243170   3.923   2.329   2.295 -1.4963 -0.4483 -1.6749
 7227TIP3   OH243171   0.702   4.784   4.460  0.0982 -0.1411 -0.0436
 7227TIP3    H143172   0.646   4.788   4.537  1.9369 -1.0265  1.4010
 7227TIP3    H243173   0.745   4.870   4.457  0.7847 -0.4540  0.5422
 7228TIP3   OH243174   5.703   1.345   6.184 -0.7047  0.1491  0.0144
 7228TIP3    H143175   5.706   1.424   6.238  1.3512 -0.1399  0.3446
 7228TIP3    H243176   5.648   1.284   6.234  1.1534 -0.1154  1.8032
 7229TIP3   OH243177   5.952   0.212  13.185 -0.1825  0.0806 -0.3977
 7229TIP3    H143178   6.014   0.268  13.138  0.3568  0.6831  0.9980
 7229TIP3    H243179   5.946   0.133  13.132  2.4383 -0.3382 -0.1439
 7230TIP3   OH243180   3.079   0.303   3.442  0.3282  0.2050 -0.4902
 7230TIP3    H143181   3.163   0.293   3.488  1.7394  0.7535 -2.8578
 7230TIP3    H243182   3.061   0.397   3.445  0.9269  0.3735 -1.8797
 7231TIP3   OH243183   5.610   0.383   4.138  0.8731  0.2158 -0.1494
 7231TIP3    H143184   5.656   0.305   4.169 -0.5156 -0.4082  0.3783
 7231TIP3    H243185   5.640   0.395   4.048  0.5994 -1.3168 -0.4565
 7232TIP3   OH243186   4.460   4.329  11.676  0.1741  0.1837 -0.3680
 7232TIP3    H143187   4.504   4.293  11.753 -0.5923  1.1874  0.5549
 7232TIP3    H243188   4.404   4.259  11.645  0.6751 -0.3071 -0.1684
 7233TIP3   OH243189   1.641   3.632  12.069  0.3578 -0.0293  0.1160
 7233TIP3    H143190   1.677   3.687  12.138 -2.3139  0.6926  1.0059
 7233TIP3    H243191   1.654   3.682  11.989  0.6638  0.5343  0.5180
 7234TIP3   OH243192   5.881   0.453  11.234 -0.3482 -0.1251  0.5440
 7234TIP3    H143193   5.935   0.523  11.271 -0.2912 -0.7931  1.7652
 7234TIP3    H243194   5.812   0.439  11.300 -0.6736 -0.8328  0.0547
 7235TIP3   OH243195   0.093   5.285   3.965 -0.7721  0.6069 -0.3709
 7235TIP3    H143196   0.180   5.291   3.926  1.3195 -2.1476  3.4138
 7235TIP3    H243197   0.063   5.197   3.943 -1.5040  0.6633  0.3791
 7236TIP3   OH243198   2.773   4.527   2.290 -0.3255 -0.5257  0.1290
 7236TIP3    H143199   2.706   4.459   2.290 -0.2291 -0.6231 -0.9660
 7236TIP3    H243200   2.832   4.503   2.361 -1.1139 -0.7694  0.7058
 7237TIP3   OH243201   6.057   5.965   3.965  0.6960 -0.0632 -0.2238
 7237TIP3    H143202   6.055   5.870   3.956  1.7972 -0.0950 -0.1553
 7237TIP3    H243203   6.014   5.982   4.049  1.3013 -0.5619  0.1951
 7238TIP3   OH243204   4.443   3.771  10.946 -0.4030 -0.6398 -0.4785
 7238TIP3    H143205   4.396   3.854  10.953  0.1647 -0.2784 -0.9245
 7238TIP3    H243206   4.506   3.785  10.875  0.5758 -1.0197  0.3009
 7239TIP3   OH243207   2.585   5.949  13.340  0.1633  0.0283  0.1819
 7239TIP3    H143208   2.511   5.918  13.288  2.9374 -2.0436 -2.6816
 7239TIP3    H243209   2.596   6.040  13.313 -0.0423 -0.2659 -0.9214
 7240TIP3   OH243210   5.667   5.231  16.611  0.0674 -0.0798  0.3003
 7240TIP3    H143211   5.711   5.305  16.654  1.6369 -0.1831 -1.0372
 7240TIP3    H243212   5.692   5.155  16.663 -1.5215  0.3189  1.6625
 7241TIP3   OH243213   6.402   5.411   1.811 -0.1818  0.2230 -0.3705
 7241TIP3    H143214   6.382   5.425   1.904  2.3945  0.9878  0.1048
 7241TIP3    H243215   6.375   5.320   1.795  1.3304 -0.6477  1.7030
 7242TIP3   OH243216   5.573   6.104   4.809 -0.1025  0.4432 -0.5596
 7242TIP3    H143217   5.538   6.051   4.881  0.6972 -2.1316 -2.0025
 7242TIP3    H243218   5.551   6.194   4.833 -1.3145 -0.4963  2.0806
 7243TIP3   OH243219   1.645   6.375  14.759 -0.0140 -0.1971 -0.4430
 7243TIP3    H143220   1.664   6.335  14.674 -1.1005  0.5852 -1.0531
 7243TIP3    H243221   1.710   6.335  14.818 -1.4628 -3.3840 -0.8874
 7244TIP3   OH243222   0.181   3.754   1.225 -0.4719 -0.3689 -0.6791
 7244TIP3    H143223   0.275   3.749   1.210 -0.4603  1.2303 -1.1318
 7244TIP3    H243224   0.150   3.820   1.164 -2.0813 -1.7201 -1.3773
 7245TIP3   OH243225   0.230   4.099   1.554  0.7634  0.4340  1.0012
 7245TIP3    H143226   0.281   4.034   1.602  3.3960  1.0771 -0.8352
 7245TIP3    H243227   0.180   4.049   1.490  2.0928  0.1102  0.1994
 7246TIP3   OH243228   5.704   5.862   3.196  0.2438 -0.2506 -0.0030
 7246TIP3    H143229   5.799   5.873   3.185  0.1600 -1.8325 -2.9047
 7246TIP3    H243230   5.684   5.910   3.277  3.3705  0.7980  0.2556
 7247TIP3   OH243231   0.160   2.360   5.122 -0.0624  0.5723 -0.0284
 7247TIP3    H143232   0.079   2.408   5.104  0.5288  0.9357 -1.9061
 7247TIP3    H243233   0.149   2.277   5.075  0.3936  0.3642  0.2302
 7248TIP3   OH243234   1.078   3.087   1.598 -0.4675 -0.5439  0.0276
 7248TIP3    H143235   1.095   3.063   1.507 -0.2933 -2.0015  0.4297
 7248TIP3    H243236   1.137   3.031   1.649  1.6763  2.4198  0.9268
 7249TIP3   OH243237   1.095   0.080  15.370 -0.1491  0.4157  0.3678
 7249TIP3    H143238   1.183   0.087  15.409  1.0840 -0.0816 -2.1840
 7249TIP3    H243239   1.042   0.037  15.437  1.7827 -0.0583  1.6292
 7250TIP3   OH243240   0.335   2.862   3.312  0.5245 -0.2698  0.0168
 7250TIP3    H143241   0.274   2.799   3.273  1.1763 -0.8033 -0.1474
 7250TIP3    H243242   0.355   2.923   3.240 -0.2167  0.2179  0.2149
 7251TIP3   OH243243   4.604   6.338  16.924  0.3619  0.1313  0.3783
 7251TIP3    H143244   4.653   6.315  16.845  1.3327  3.1022  0.0412
 7251TIP3    H243245   4.544   6.407  16.896  0.9859  1.4875  2.2590
 7252TIP3   OH243246   4.625   5.740   5.795  0.4153  0.2114  0.1750
 7252TIP3    H143247   4.614   5.762   5.703  1.0147  1.3512  0.3665
 7252TIP3    H243248   4.657   5.821   5.836  1.1069 -0.5598  1.2000
 7253TIP3   OH243249   1.807   6.115   2.285  0.3453 -0.0008  0.3893
 7253TIP3    H143250   1.750   6.173   2.336  0.5167  0.8773 -0.4203
 7253TIP3    H243251   1.766   6.109   2.199  1.7590  1.0975 -0.3838
 7254TIP3   OH243252   0.511   0.263  11.903 -0.0618 -0.5263  0.0588
 7254TIP3    H143253   0.579   0.277  11.837  0.1965 -2.6408 -0.1549
 7254TIP3    H243254   0.431   0.300  11.863  0.8896  1.9184  0.2940
 7255TIP3   OH243255   3.631   4.953   3.891  0.3453 -0.0693  0.3407
 7255TIP3    H143256   3.545   4.993   3.893 -0.5524 -1.9362  0.1865
 7255TIP3    H243257   3.684   5.007   3.950 -0.6139  1.7518 -0.4290
 7256TIP3   OH243258   2.495   4.747  13.869 -0.3035 -0.1718  0.1902
 7256TIP3    H143259   2.535   4.766  13.954  1.5150  0.9160 -0.8799
 7256TIP3    H243260   2.426   4.813  13.860 -0.5593 -0.3373  0.8275
 7257TIP3   OH243261   4.736   0.186  16.098  0.2272  0.3786  0.0137
 7257TIP3    H143262   4.757   0.249  16.029 -0.4561  2.6145  1.7995
 7257TIP3    H243263   4.746   0.235  16.180  0.0547 -1.9483  1.4811
 7258TIP3   OH243264   0.684   4.342   4.533  0.2447 -0.0746  0.4843
 7258TIP3    H143265   0.598   4.372   4.504  0.2976  0.0131  0.4185
 7258TIP3    H243266   0.732   4.423   4.552  0.0907 -0.1364  1.1681
 7259TIP3   OH243267   3.218   0.684  10.829  0.0472 -0.6352 -0.3244
 7259TIP3    H143268   3.273   0.661  10.754 -1.3742  0.8555 -1.8758
 7259TIP3    H243269   3.270   0.745  10.880  1.5097 -2.6068  0.6137
 7260TIP3   OH243270   3.730   3.248  12.384 -0.4665  1.0980  0.2487
 7260TIP3    H143271   3.756   3.157  12.371  0.3150  1.2932  0.3905
 7260TIP3    H243272   3.642   3.243  12.422  0.5204  0.3336  2.5138
 7261TIP3   OH243273   3.210   3.026  12.643  0.3165 -0.4866 -0.3757
 7261TIP3    H143274   3.233   3.113  12.677  1.3742 -0.4160 -1.2527
 7261TIP3    H243275   3.234   3.030  12.550 -0.5266 -1.4028 -0.6349
 7262TIP3   OH243276   5.302   0.140   5.195  0.1957  0.4446 -0.3479
 7262TIP3    H143277   5.356   0.212   5.163  2.7924 -0.8163  1.0629
 7262TIP3    H243278   5.346   0.110   5.274 -0.5765 -3.0102 -1.1563
 7263TIP3   OH243279   0.675   2.404   0.397 -0.1195 -0.0564 -0.5862
 7263TIP3    H143280   0.694   2.425   0.306  1.3469 -0.8529 -0.4901
 7263TIP3    H243281   0.599   2.458   0.420  0.3099  1.1109 -1.8799
 7264TIP3   OH243282   4.674   4.899   4.168  0.3222  0.1363 -0.0227
 7264TIP3    H143283   4.622   4.927   4.093 -0.3354 -2.2255 -0.4826
 7264TIP3    H243284   4.659   4.967   4.234 -1.8970  0.4322 -0.7868
 7265TIP3   OH243285   0.168   1.804  12.823  0.5049 -0.2835 -0.2940
 7265TIP3    H143286   0.136   1.718  12.851 -0.2625  0.1163  0.0663
 7265TIP3    H243287   0.127   1.818  12.738  0.1599 -0.0161 -0.0853
 7266TIP3   OH243288   4.870   5.295   0.113  0.4311  0.1621  0.1167
 7266TIP3    H143289   4.922   5.218   0.135  0.9751 -0.5160 -3.2371
 7266TIP3    H243290   4.934   5.364   0.098  0.2975 -0.1837 -2.1834
 7267TIP3   OH243291   6.488   2.143  15.966 -0.3119 -0.2658 -0.4484
 7267TIP3    H143292   6.506   2.226  15.921 -0.2223  0.0523  0.1656
 7267TIP3    H243293   6.513   2.160  16.057 -2.7060 -0.1438  0.2153
 7268TIP3   OH243294   1.391   6.061   3.781  0.2744 -0.3480 -0.2365
 7268TIP3    H143295   1.469   6.111   3.754  0.6431 -0.4110  0.7000
 7268TIP3    H243296   1.335   6.126   3.824 -0.1115 -0.3433 -0.7449
 7269TIP3   OH243297   5.156   2.125   1.152 -0.1331 -0.6422 -0.5029
 7269TIP3    H143298   5.248   2.121   1.179 -0.3519 -1.8497  0.0950
 7269TIP3    H243299   5.121   2.039   1.175 -2.2945  0.9768  2.4813
 7270TIP3   OH243300   3.410   3.576  11.059 -0.1001 -0.2584 -0.2866
 7270TIP3    H143301   3.486   3.634  11.059 -0.8470  0.7749  1.3800
 7270TIP3    H243302   3.447   3.488  11.057  1.1691  0.2279  0.7961
 7271TIP3   OH243303   5.101   1.211  12.514  0.3976  0.3615 -0.4158
 7271TIP3    H143304   5.079   1.118  12.502 -0.1023  0.4973 -0.5669
 7271TIP3    H243305   5.194   1.216  12.493  0.1053  0.1421 -1.7893
 7272TIP3   OH243306   4.600   3.965  15.291 -0.3217 -0.1161 -0.4000
 7272TIP3    H143307   4.521   3.937  15.244  0.0556 -2.6336  0.4223
 7272TIP3    H243308   4.659   3.889  15.287  0.6066  0.4269  2.1960
 7273TIP3   OH243309   1.432   4.850  15.496 -0.0943  0.2037  0.0936
 7273TIP3    H143310   1.350   4.897  15.512 -2.4238 -3.2884 -0.9725
 7273TIP3    H243311   1.470   4.892  15.419 -0.4778  2.3615  1.0646
 7274TIP3   OH243312   6.344   3.984  13.470  0.3610  0.2825  0.2124
 7274TIP3    H143313   6.339   4.024  13.557  0.6016 -0.2458  0.4706
 7274TIP3    H243314   6.328   4.057  13.409 -1.3742  0.3786  0.7333
 7275TIP3   OH243315   5.734   3.170   2.537  0.1505  0.0430  0.1613
 7275TIP3    H143316   5.805   3.190   2.598 -0.0842 -0.8634  0.7414
 7275TIP3    H243317   5.669   3.123   2.590 -0.2356 -0.4012 -0.6936
 7276TIP3   OH243318   3.061   4.926   1.563  0.5148  0.0789 -0.1603
 7276TIP3    H143319   2.999   4.882   1.622 -3.6366 -0.5871 -4.6903
 7276TIP3    H243320   3.129   4.861   1.547 -1.2338 -1.7701 -0.3411
 7277TIP3   OH243321   5.757   2.843   6.331 -0.3131 -0.1834  0.5558
 7277TIP3    H143322   5.836   2.895   6.346 -1.0473  1.4169 -1.0124
 7277TIP3    H243323   5.691   2.882   6.388 -0.4083 -0.5040  0.6667
 7278TIP3   OH243324   2.664   4.902   3.772  0.7562  0.4655  0.4674
 7278TIP3    H143325   2.706   4.832   3.721 -0.0170  0.8050 -0.6468
 7278TIP3    H243326   2.723   4.976   3.762  0.6616  0.4995  0.1571
 7279TIP3   OH243327   5.570   3.565  15.367 -0.3157  0.6056  0.1065
 7279TIP3    H143328   5.495   3.539  15.313 -0.2176  1.7371 -0.5923
 7279TIP3    H243329   5.543   3.648  15.407 -0.4254 -0.2585  1.9023
 7280TIP3   OH243330   2.126   4.626  15.439  0.2662  1.0004 -0.4144
 7280TIP3    H143331   2.050   4.650  15.386  0.6575 -1.1543 -1.9964
 7280TIP3    H243332   2.197   4.616  15.376  1.3226  0.7408  0.7922
 7281TIP3   OH243333   0.769   4.403  15.954 -0.2693 -0.3711 -0.3167
 7281TIP3    H143334   0.742   4.347  15.880 -0.4345  1.0607 -1.3580
 7281TIP3    H243335   0.787   4.488  15.914  1.2130 -0.0203  1.0694
 7282TIP3   OH243336   1.470   3.049  16.967 -0.4608  0.9561  0.5056
 7282TIP3    H143337   1.512   3.012  16.890 -1.7613  0.2207  0.1160
 7282TIP3    H243338   1.536   3.105  17.007  1.5947 -1.8067  1.1089
 7283TIP3   OH243339   4.158   2.111  15.917 -0.4837  0.0334 -0.0363
 7283TIP3    H143340   4.240   2.089  15.871  0.3730  0.0968  1.4264
 7283TIP3    H243341   4.105   2.156  15.851  0.8467  0.3824 -0.8904
 7284TIP3   OH243342   0.181   6.119  12.328  0.6304 -0.3607  0.4102
 7284TIP3    H143343   0.113   6.162  12.380 -0.9702 -1.6528 -0.5714
 7284TIP3    H243344   0.233   6.071  12.393 -1.4960 -2.1633  0.8494
 7285TIP3   OH243345   0.974   2.235  12.125  0.3707  0.8304 -0.1290
 7285TIP3    H143346   1.030   2.191  12.188 -1.9266  1.4479  2.4383
 7285TIP3    H243347   0.913   2.166  12.095  0.3028  0.9609 -0.2930
 7286TIP3   OH243348   4.053   4.242  16.314 -0.2796  0.1011  0.5968
 7286TIP3    H143349   4.031   4.262  16.405 -1.2832 -0.1143  0.4173
 7286TIP3    H243350   3.978   4.276  16.264  0.2079  0.1096 -0.1333
 7287TIP3   OH243351   5.150   4.854   3.310 -0.5132 -0.0744  0.0643
 7287TIP3    H143352   5.165   4.794   3.383  0.1491  1.3735  1.1533
 7287TIP3    H243353   5.055   4.855   3.299 -0.5980 -0.5498  0.7079
 7288TIP3   OH243354   0.134   3.181  14.021  0.4595  0.2063  0.1425
 7288TIP3    H143355   0.128   3.097  14.067  0.3341  0.3123  0.3194
 7288TIP3    H243356   0.207   3.170  13.960  1.5816  0.5827  1.4121
 7289TIP3   OH243357   0.819   3.276  14.553 -0.3415 -0.3183  0.5345
 7289TIP3    H143358   0.841   3.191  14.591  0.0417 -0.0576  0.8997
 7289TIP3    H243359   0.879   3.338  14.595 -0.4296  0.0914  0.0642
 7290TIP3   OH243360   1.964   5.769  13.241 -0.2132  0.0259  0.7648
 7290TIP3    H143361   2.035   5.831  13.257 -0.2946  0.3287 -0.0512
 7290TIP3    H243362   1.976   5.702  13.308  0.0319  0.7803  1.4912
 7291TIP3   OH243363   3.871   1.189   2.738 -0.3950 -0.2018 -0.1540
 7291TIP3    H143364   3.956   1.201   2.781 -0.6768 -1.6054  0.8242
 7291TIP3    H243365   3.828   1.119   2.788 -1.4990 -0.5670 -1.5759
 7292TIP3   OH243366   4.172   6.144   2.778  0.6601  0.5588 -0.2140
 7292TIP3    H143367   4.127   6.191   2.708  0.1476 -1.2064 -1.0783
 7292TIP3    H243368   4.102   6.105   2.830  1.1108 -0.5662 -0.4320
 7293TIP3   OH243369   4.859   1.948   0.334  0.0033  0.0686  0.4222
 7293TIP3    H143370   4.767   1.970   0.344  0.0291  0.3161  0.1298
 7293TIP3    H243371   4.902   2.032   0.317  0.4257  0.0960  1.5582
 7294TIP3   OH243372   6.338   2.815   4.134 -0.2900  0.2994 -0.4070
 7294TIP3    H143373   6.267   2.861   4.180  0.0319  0.4780 -0.0836
 7294TIP3    H243374   6.343   2.857   4.049  0.0693  0.9363 -0.0763
 7295TIP3   OH243375   0.149   3.363  15.555  0.3313 -0.0947 -0.6554
 7295TIP3    H143376   0.165   3.284  15.502 -1.4512 -0.1801 -1.0874
 7295TIP3    H243377   0.060   3.390  15.532  0.3238  1.1043  0.7188
 7296TIP3   OH243378   1.282   3.961   1.369 -0.0520  0.6491 -0.5799
 7296TIP3    H143379   1.202   3.937   1.323 -1.9225  1.3864  2.1657
 7296TIP3    H243380   1.289   4.056   1.357  0.5032  0.5711 -0.9092
 7297TIP3   OH243381   5.244   5.850   0.210 -0.0966  0.3619  0.3794
 7297TIP3    H143382   5.210   5.816   0.293  1.5637 -1.4169  0.3687
 7297TIP3    H243383   5.169   5.850   0.151 -0.5067 -1.7049  0.8802
 7298TIP3   OH243384   1.696   0.481   5.160 -0.3957  0.0480 -0.2080
 7298TIP3    H143385   1.625   0.430   5.199 -0.3234 -0.7877 -1.1267
 7298TIP3    H243386   1.652   0.546   5.106 -0.4912  1.0344  1.0572
 7299TIP3   OH243387   1.688   6.587   1.078  0.0396 -0.5827  0.0704
 7299TIP3    H143388   1.602   6.570   1.117 -0.2820 -0.0560 -0.4044
 7299TIP3    H243389   1.673   6.583   0.983  0.3279  0.4709 -0.0336
 7300TIP3   OH243390   5.422   2.097  14.057  0.8132  0.2430  0.1817
 7300TIP3    H143391   5.470   2.015  14.045 -1.0626 -1.1490  1.9517
 7300TIP3    H243392   5.357   2.096  13.986 -0.1534 -0.5222  1.0629
 7301TIP3   OH243393   1.450   1.858   1.382  0.0481 -0.1002  0.6656
 7301TIP3    H143394   1.509   1.811   1.442  0.4259  1.6816  1.7262
 7301TIP3    H243395   1.363   1.823   1.403  0.7510 -3.4283 -1.5547
 7302TIP3   OH243396   3.231   1.363   5.032 -0.7861  0.6536  0.1024
 7302TIP3    H143397   3.230   1.267   5.041 -3.0180  0.5984 -0.3408
 7302TIP3    H243398   3.299   1.392   5.093  0.1447 -1.2260  0.0061
 7303TIP3   OH243399   4.967   3.201   1.927 -0.1333 -0.0970  0.2629
 7303TIP3    H143400   4.985   3.221   1.835  0.0845  1.5375  0.6478
 7303TIP3    H243401   5.024   3.127   1.947  0.1922 -0.1325 -0.7701
 7304TIP3   OH243402   0.152   1.237  13.155 -0.1710 -0.3196 -0.0817
 7304TIP3    H143403   0.184   1.276  13.074 -0.1852 -0.0954  0.0225
 7304TIP3    H243404   0.225   1.184  13.187  1.1060  2.3970  1.6435
 7305TIP3   OH243405   0.497   6.461  17.255 -0.0440  0.6255 -0.2538
 7305TIP3    H143406   0.555   6.472  17.330  0.9911 -1.0236 -0.7906
 7305TIP3    H243407   0.554   6.462  17.179 -0.3042 -3.4550 -0.6528
 7306TIP3   OH243408   4.634   5.444  14.738  0.3908 -0.3403 -0.2831
 7306TIP3    H143409   4.644   5.366  14.793  0.1448  0.9597  1.6206
 7306TIP3    H243410   4.553   5.484  14.767 -1.2872 -1.1404 -3.5556
 7307TIP3   OH243411   3.360   5.282   2.399 -0.0789 -0.2419  0.5607
 7307TIP3    H143412   3.399   5.334   2.469 -0.3802 -0.2107  0.7077
 7307TIP3    H243413   3.307   5.216   2.444  1.4828 -1.6266  0.4130
 7308TIP3   OH243414   4.687   3.098  15.789 -0.1152  0.6547 -0.1979
 7308TIP3    H143415   4.716   3.188  15.804  1.5482  0.4705 -2.1083
 7308TIP3    H243416   4.767   3.046  15.791 -0.6877 -0.3451 -2.1104
 7309TIP3   OH243417   1.204   3.933   0.840 -0.1748 -0.0639  0.1597
 7309TIP3    H143418   1.150   4.001   0.880  1.2202  0.6921  0.7825
 7309TIP3    H243419   1.263   3.905   0.909 -0.7223 -1.9252 -0.0981
 7310TIP3   OH243420   5.124   2.939   3.071 -0.1886  0.0650 -0.0093
 7310TIP3    H143421   5.142   3.024   3.029 -0.6340  0.1854  0.0328
 7310TIP3    H243422   5.047   2.906   3.025  0.0073 -0.3339 -0.0476
 7311TIP3   OH243423   2.172   2.772   6.181  0.3140  0.5957  0.4960
 7311TIP3    H143424   2.198   2.681   6.197 -0.2250  0.5064  0.8839
 7311TIP3    H243425   2.253   2.822   6.187  0.3995  0.3169  1.6574
 7312TIP3   OH243426   0.750   5.614  11.387 -0.3725  0.2678 -0.0779
 7312TIP3    H143427   0.739   5.644  11.297 -1.8106 -1.2216 -0.4348
 7312TIP3    H243428   0.683   5.661  11.436 -0.9439 -0.4282 -0.1761
 7313TIP3   OH243429   5.151   5.972  15.861  0.4860  0.0207 -0.3811
 7313TIP3    H143430   5.240   6.006  15.869  0.2297  1.2650 -2.4171
 7313TIP3    H243431   5.163   5.880  15.837  1.2190 -0.1473  0.6139
 7314TIP3   OH243432   2.461   3.051  14.888 -0.1141  0.3822 -0.1491
 7314TIP3    H143433   2.471   3.143  14.862 -0.5379  0.7711  1.0493
 7314TIP3    H243434   2.422   3.009  14.811 -0.2796  1.2882 -0.5691
 7315TIP3   OH243435   3.343   1.793  13.479  0.0534 -0.2176  0.2820
 7315TIP3    H143436   3.286   1.758  13.547 -0.9610  1.0359  0.1078
 7315TIP3    H243437   3.323   1.740  13.402  0.9639 -1.4190  0.8592
 7316TIP3   OH243438   6.731   6.611  12.634  0.1065 -0.1872 -0.1075
 7316TIP3    H143439   6.643   6.643  12.655 -0.0641 -1.3613  1.0638
 7316TIP3    H243440   6.726   6.581  12.544 -0.5547  0.2459 -0.2118
 7317TIP3   OH243441   0.571   3.449   0.797  0.2005  0.0530 -0.2117
 7317TIP3    H143442   0.638   3.450   0.866 -0.6366 -2.2117  0.6853
 7317TIP3    H243443   0.526   3.533   0.805  3.1681  1.7939 -1.0905
 7318TIP3   OH243444   1.246   4.711  12.879 -0.2204  0.3242  0.3604
 7318TIP3    H143445   1.329   4.754  12.858 -0.8879  0.2471 -2.6304
 7318TIP3    H243446   1.271   4.628  12.918  1.1649 -0.4878 -2.1595
 7319TIP3   OH243447   2.199   5.083   0.218 -0.6372  0.1939  0.1843
 7319TIP3    H143448   2.123   5.060   0.271  0.0908 -1.4220  0.5628
 7319TIP3    H243449   2.237   4.999   0.193  2.5570  0.9360  2.2317
 7320TIP3   OH243450   3.653   3.422  14.636 -0.3914  0.4400 -0.2995
 7320TIP3    H143451   3.731   3.437  14.689  1.0427 -1.7257 -1.7132
 7320TIP3    H243452   3.670   3.469  14.555 -2.0299  2.6944  0.6215
 7321TIP3   OH243453   6.724   4.579   5.056 -0.2154 -0.2063 -0.0975
 7321TIP3    H143454   6.645   4.534   5.087  0.2204 -0.1093  1.1950
 7321TIP3    H243455   6.757   4.524   4.985 -0.8828 -0.7797  0.0312
 7322TIP3   OH243456   2.975   0.431  14.027  0.2100 -0.5625 -0.3604
 7322TIP3    H143457   2.891   0.447  13.983 -0.0792 -1.3280 -0.0837
 7322TIP3    H243458   3.000   0.516  14.063 -0.2700 -0.2539 -0.7552
 7323TIP3   OH243459   4.369   4.728   4.601  0.4262  0.2091 -0.3279
 7323TIP3    H143460   4.375   4.636   4.629  1.6591  0.9136  1.8684
 7323TIP3    H243461   4.418   4.731   4.519 -0.1005 -1.2028 -0.7072
 7324TIP3   OH243462   2.701   6.232  16.585 -0.3326 -0.3384 -0.1322
 7324TIP3    H143463   2.641   6.292  16.539 -0.5042 -2.0464 -2.2033
 7324TIP3    H243464   2.774   6.222  16.525  0.2041 -1.3663  0.6948
 7325TIP3   OH243465   1.975   3.383  11.644  0.0820 -0.3226  0.2225
 7325TIP3    H143466   2.041   3.318  11.669 -0.2021 -0.3241  0.9964
 7325TIP3    H243467   2.024   3.463  11.629  0.4205 -0.6803 -0.6141
 7326TIP3   OH243468   3.296   3.289   4.621 -0.3065 -0.5546  0.8844
 7326TIP3    H143469   3.337   3.221   4.568  1.1885 -1.2260  2.8598
 7326TIP3    H243470   3.278   3.360   4.559 -2.1006 -2.7852 -1.2613
 7327TIP3   OH243471   2.180   4.548  17.118  0.0037  0.8593 -0.0729
 7327TIP3    H143472   2.206   4.622  17.173  1.5825  1.2277 -1.2792
 7327TIP3    H243473   2.195   4.578  17.028  0.0951 -0.6956 -0.5963
 7328TIP3   OH243474   6.204   0.381  15.205  0.0354  0.0427  0.4935
 7328TIP3    H143475   6.139   0.449  15.191  1.6335  1.8006  1.3183
 7328TIP3    H243476   6.178   0.338  15.286  1.0396  2.1293  1.9458
 7329TIP3   OH243477   3.525   4.323   2.059  0.1199 -0.6014 -0.1766
 7329TIP3    H143478   3.482   4.389   2.114  2.2982  0.1860  0.6338
 7329TIP3    H243479   3.511   4.353   1.970 -2.8564 -1.5169 -0.0725
 7330TIP3   OH243480   2.262   0.777  11.665 -0.1227  0.3813 -0.2853
 7330TIP3    H143481   2.214   0.695  11.656 -1.5695  1.0800  0.9441
 7330TIP3    H243482   2.266   0.793  11.759  0.0054  1.8043 -0.5154
 7331TIP3   OH243483   2.049   1.142  14.290 -0.3139  0.0709  0.4343
 7331TIP3    H143484   1.989   1.131  14.216 -0.9826  2.5216  0.5844
 7331TIP3    H243485   2.120   1.081  14.272 -1.5733 -1.0109 -1.0696
 7332TIP3   OH243486   1.712   3.015   4.330  0.0048  0.3380  0.1294
 7332TIP3    H143487   1.769   3.066   4.272  0.1217 -0.1105 -0.1530
 7332TIP3    H243488   1.752   3.024   4.417  1.0727 -0.8003 -0.2400
 7333TIP3   OH243489   5.505   1.899  14.446  0.1325  0.1075 -0.1550
 7333TIP3    H143490   5.598   1.880  14.434  0.2578  1.1726 -0.9335
 7333TIP3    H243491   5.483   1.859  14.530  1.2667 -0.2492 -0.0212
 7334TIP3   OH243492   1.421   4.434  11.537 -0.1903  0.0531  0.3717
 7334TIP3    H143493   1.365   4.393  11.603  0.6750 -1.4793  0.1575
 7334TIP3    H243494   1.510   4.411  11.562  0.1322 -1.0466 -1.6396
 7335TIP3   OH243495   3.010   1.075   0.185 -0.4139  0.0765 -0.3248
 7335TIP3    H143496   3.075   1.034   0.127  0.9885  0.8765  0.6416
 7335TIP3    H243497   3.054   1.154   0.218 -1.4343 -0.0056  1.2898
 7336TIP3   OH243498   0.790   5.247  14.311  0.2422 -0.1772 -0.9898
 7336TIP3    H143499   0.804   5.160  14.274 -0.6037 -0.7311 -0.0488
 7336TIP3    H243500   0.781   5.231  14.405  1.0206  1.0376 -0.7066
 7337TIP3   OH243501   4.333   3.503   5.721 -0.3656 -0.0917  0.4342
 7337TIP3    H143502   4.425   3.494   5.696 -0.7716 -1.0547 -0.7800
 7337TIP3    H243503   4.302   3.577   5.668 -0.2989  0.2067  0.8130
 7338TIP3   OH243504   3.380   1.101  12.807  0.1847  0.0025  0.4093
 7338TIP3    H143505   3.338   1.187  12.813  1.2221  0.5176  0.3130
 7338TIP3    H243506   3.323   1.051  12.748  1.0458  1.5343 -1.8018
 7339TIP3   OH243507   2.488   0.941  12.209  0.3004  0.4332 -0.2310
 7339TIP3    H143508   2.484   0.846  12.214  2.6974  0.1423 -2.3569
 7339TIP3    H243509   2.582   0.961  12.218  0.0520  2.4202 -1.7468
 7340TIP3   OH243510   1.276   3.637   6.554 -0.0309  0.1860 -0.0175
 7340TIP3    H143511   1.262   3.731   6.565  1.9285  0.4751  0.1465
 7340TIP3    H243512   1.188   3.599   6.558 -0.7824  1.9374  0.5592
 7341TIP3   OH243513   2.758   1.312  16.602 -0.1078 -0.0837  0.9132
 7341TIP3    H143514   2.751   1.232  16.654  0.7288 -0.4391  0.5012
 7341TIP3    H243515   2.692   1.301  16.533  1.3454 -1.3537 -0.3265
 7342TIP3   OH243516   4.143   0.498   5.196 -0.6544  0.2867  0.1569
 7342TIP3    H143517   4.115   0.505   5.288  2.2339  0.1367  1.0800
 7342TIP3    H243518   4.086   0.430   5.159 -1.3866 -0.1413  2.0102
 7343TIP3   OH243519   4.503   0.168   4.445 -0.1351 -0.2766  0.2560
 7343TIP3    H143520   4.598   0.156   4.446 -0.3600 -2.1914  1.0570
 7343TIP3    H243521   4.469   0.096   4.498 -2.0172  0.6030  0.2867
 7344TIP3   OH243522   1.092   2.353   4.721 -0.7978  0.3620  0.4992
 7344TIP3    H143523   1.030   2.421   4.747 -1.0887  0.9026 -1.5470
 7344TIP3    H243524   1.093   2.356   4.626  1.3005 -0.6194  0.4645
 7345TIP3   OH243525   6.073   0.537  13.386  0.5167 -0.6812 -0.2849
 7345TIP3    H143526   6.115   0.452  13.394  0.1116 -0.9566 -1.0538
 7345TIP3    H243527   5.983   0.517  13.359  0.0357 -0.0751  0.8286
 7346TIP3   OH243528   0.343   1.006   5.714 -0.1887 -0.2259 -0.4700
 7346TIP3    H143529   0.320   0.919   5.682  0.1837 -0.3215 -0.4798
 7346TIP3    H243530   0.312   1.008   5.804  0.0787 -0.4774 -0.3736
 7347TIP3   OH243531   2.130   6.164  16.428 -0.3124  0.1947 -0.2396
 7347TIP3    H143532   2.067   6.141  16.496 -0.0236 -0.4970 -0.2051
 7347TIP3    H243533   2.215   6.139  16.464 -0.2448 -1.0039 -1.2109
 7348TIP3   OH243534   1.170   2.498  12.115 -0.3185 -0.2956 -0.3292
 7348TIP3    H143535   1.258   2.503  12.151 -0.5632  2.1797  0.0081
 7348TIP3    H243536   1.178   2.532  12.026 -0.8570 -0.5574 -0.4844
 7349TIP3   OH243537   2.587   0.253  15.844 -0.1092 -0.3382 -0.2541
 7349TIP3    H143538   2.652   0.201  15.796  2.7070  1.2147  1.7526
 7349TIP3    H243539   2.573   0.205  15.926 -0.4116  0.0972 -0.0498
 7350TIP3   OH243540   5.254   0.509  14.450  0.4811 -0.9308 -0.1525
 7350TIP3    H143541   5.296   0.582  14.405  0.5807 -1.9185 -1.6949
 7350TIP3    H243542   5.173   0.494  14.402  1.0502 -2.6139 -0.6263
 7351TIP3   OH243543   1.119   3.018  14.507  0.0379 -0.6331  0.1834
 7351TIP3    H143544   1.029   3.013  14.537  0.0037 -2.7023 -0.1389
 7351TIP3    H243545   1.165   2.950  14.557  1.4630  0.5165  0.4800
 7352TIP3   OH243546   3.568   5.968  12.476 -0.1064  0.0461 -1.0337
 7352TIP3    H143547   3.494   5.908  12.482 -0.5346  0.5075 -1.7013
 7352TIP3    H243548   3.615   5.957  12.559 -2.0232  1.1949  0.2470
 7353TIP3   OH243549   4.729   5.192   3.206  0.0335 -0.4450 -0.2557
 7353TIP3    H143550   4.662   5.230   3.263  1.0708  0.4411  0.3948
 7353TIP3    H243551   4.800   5.256   3.206  0.9165 -1.4003 -0.8742
 7354TIP3   OH243552   0.073   5.300   4.989 -0.6293  0.3027 -0.7117
 7354TIP3    H143553   0.024   5.245   5.049 -2.8328  1.4172 -1.4525
 7354TIP3    H243554   0.092   5.379   5.039  0.1918 -0.0086 -0.5199
 7355TIP3   OH243555   3.086   0.098   0.264  0.0130 -0.1213 -0.1689
 7355TIP3    H143556   3.068   0.017   0.311  1.4722 -1.1125 -1.2622
 7355TIP3    H243557   3.066   0.077   0.172  0.4180  0.7571 -0.4646
 7356TIP3   OH243558   2.807   1.814  11.197 -0.2913 -0.0825  0.5114
 7356TIP3    H143559   2.749   1.850  11.130  1.1443  0.2541 -0.5744
 7356TIP3    H243560   2.756   1.743  11.237 -2.0728  1.2944  0.7383
 7357TIP3   OH243561   3.155   6.155  14.661 -0.0288  1.0106 -0.3741
 7357TIP3    H143562   3.130   6.167  14.752 -1.0979 -2.3802 -0.1659
 7357TIP3    H243563   3.247   6.128  14.665  0.0875  1.4162 -0.3306
 7358TIP3   OH243564   0.239   3.261   4.345 -0.6052 -0.0077 -0.3530
 7358TIP3    H143565   0.240   3.169   4.372 -6.4206 -0.5698 -1.5384
 7358TIP3    H243566   0.226   3.310   4.427 -1.3663 -0.5251 -0.1617
 7359TIP3   OH243567   3.838   0.649  16.428 -0.4979  0.8258 -0.3023
 7359TIP3    H143568   3.842   0.571  16.371 -0.9684  0.6608 -0.1113
 7359TIP3    H243569   3.828   0.722  16.367 -2.0542  0.5538 -0.3876
 7360TIP3   OH243570   4.962   2.029  12.060 -0.4763 -0.0718  0.1697
 7360TIP3    H143571   5.017   2.107  12.060 -1.0625  0.3384  1.4733
 7360TIP3    H243572   4.939   2.016  11.968  0.5451  0.6302 -0.1961
 7361TIP3   OH243573   4.035   2.157  16.559  0.9251  0.1271  0.1114
 7361TIP3    H143574   4.116   2.199  16.586  1.2820 -2.0008  2.5804
 7361TIP3    H243575   3.966   2.201  16.609  0.7736  0.7355 -0.6355
 7362TIP3   OH243576   3.617   1.913   5.362 -0.0167 -0.1547 -0.1604
 7362TIP3    H143577   3.672   1.835   5.354  2.7563  1.5914  0.9800
 7362TIP3    H243578   3.531   1.880   5.389  0.3185 -3.0061 -2.3808
 7363TIP3   OH243579   0.488   6.433   0.727  0.0431 -0.3576 -0.5526
 7363TIP3    H143580   0.561   6.401   0.779  0.3817 -0.4407 -1.0784
 7363TIP3    H243581   0.439   6.354   0.703 -0.2945 -0.2904 -0.0887
 7364TIP3   OH243582   3.357   2.226  14.271 -0.4940 -0.1462  0.4049
 7364TIP3    H143583   3.379   2.206  14.361 -2.3892  0.9178  1.1334
 7364TIP3    H243584   3.352   2.321  14.267 -0.7421 -0.1928 -0.7415
 7365TIP3   OH243585   4.997   1.368  15.935 -0.3420  0.1135  0.0095
 7365TIP3    H143586   4.973   1.293  15.880  1.4580 -0.2722 -0.3115
 7365TIP3    H243587   5.062   1.415  15.883  0.9265  0.1012  1.5484
 7366TIP3   OH243588   6.804   6.231   5.875  0.1204 -0.2033  0.4826
 7366TIP3    H143589   6.894   6.205   5.892  0.4413 -1.3966 -2.6837
 7366TIP3    H243590   6.754   6.198   5.950  2.2997  0.6834  2.3746
 7367TIP3   OH243591   2.373   1.050   0.763  0.0043 -0.5358 -0.2979
 7367TIP3    H143592   2.368   0.955   0.759  3.5374 -0.7422 -2.2090
 7367TIP3    H243593   2.446   1.068   0.822 -0.1350  0.9800 -0.5508
 7368TIP3   OH243594   4.124   0.596   2.868  0.1155  0.3011  0.3376
 7368TIP3    H143595   4.178   0.656   2.919 -0.0482 -0.5331  1.5125
 7368TIP3    H243596   4.174   0.515   2.864  0.4710  0.6004 -1.5096
 7369TIP3   OH243597   0.232   1.163   3.800  0.3386  0.0731 -0.5816
 7369TIP3    H143598   0.312   1.175   3.852  0.1717 -0.5161 -0.1834
 7369TIP3    H243599   0.161   1.183   3.861  0.1496 -0.2916 -0.6862
 7370TIP3   OH243600   2.954   1.421   4.747 -0.1884  0.0735  0.0947
 7370TIP3    H143601   2.967   1.471   4.828  1.1979  2.0643 -1.2970
 7370TIP3    H243602   2.860   1.409   4.741 -0.2749 -0.6663  2.3165
 7371TIP3   OH243603   0.975   1.345  11.876  0.3740 -0.0124  0.2089
 7371TIP3    H143604   0.887   1.359  11.911  0.0515  1.4157 -1.1407
 7371TIP3    H243605   1.024   1.423  11.901  0.3015  0.7550 -1.9442
 7372TIP3   OH243606   4.762   4.436   2.825  0.0860 -0.1442  0.2303
 7372TIP3    H143607   4.855   4.453   2.835 -0.0732 -0.0630  1.5960
 7372TIP3    H243608   4.757   4.373   2.753  1.0225  1.7190 -1.5487
 7373TIP3   OH243609   6.308   6.003   0.913  0.0943  0.3430 -0.1773
 7373TIP3    H143610   6.397   6.038   0.917  0.8060 -1.4106 -0.2619
 7373TIP3    H243611   6.288   5.997   0.820  0.8173 -1.5007 -0.2363
 7374TIP3   OH243612   6.287   6.188  13.924 -0.2452 -0.0555  0.2273
 7374TIP3    H143613   6.236   6.210  13.846 -2.2119  1.6950  1.9453
 7374TIP3    H243614   6.338   6.112  13.898  1.5268  2.3036 -3.7565
 7375TIP3   OH243615   1.105   6.171  14.318 -0.0443  0.7420  0.3031
 7375TIP3    H143616   1.150   6.250  14.286 -0.9325  1.2120  0.2093
 7375TIP3    H243617   1.065   6.133  14.240 -2.8028  2.2726  0.9203
 7376TIP3   OH243618   0.963   3.951   4.575 -0.0323 -0.2594 -0.2055
 7376TIP3    H143619   0.881   3.998   4.588  0.5263  1.0285 -1.2241
 7376TIP3    H243620   0.974   3.948   4.480  1.5956  0.4626 -0.0606
 7377TIP3   OH243621   4.201   3.047  13.144  0.0433  0.0950  0.7655
 7377TIP3    H143622   4.132   3.114  13.144  0.6455  0.7479 -0.8867
 7377TIP3    H243623   4.279   3.093  13.115  0.8197 -1.0018  1.0855
 7378TIP3   OH243624   6.798   6.325  17.253 -0.2129  0.0374 -0.1858
 7378TIP3    H143625   6.863   6.280  17.198 -0.5245 -0.5958 -0.0397
 7378TIP3    H243626   6.714   6.303  17.214 -0.3591  0.6514 -0.2180
 7379TIP3   OH243627   2.639   3.227  15.582  0.0703 -0.4318  0.5429
 7379TIP3    H143628   2.548   3.213  15.554  0.6688 -2.5509 -0.4063
 7379TIP3    H243629   2.687   3.152  15.547  1.9764  0.0381  2.0746
 7380TIP3   OH243630   6.456   0.317  15.614  0.2110  0.4006 -0.2493
 7380TIP3    H143631   6.522   0.383  15.636  0.0155  0.2330  0.9077
 7380TIP3    H243632   6.374   0.366  15.608  0.0462  0.2527  0.7296
 7381TIP3   OH243633   5.841   4.363   6.522 -0.0112  0.6438  0.0818
 7381TIP3    H143634   5.758   4.327   6.553  0.6412 -0.8519  0.1423
 7381TIP3    H243635   5.885   4.393   6.602 -0.8107  2.1766 -0.0299
 7382TIP3   OH243636   4.065   2.001   5.986 -0.1174  0.0485 -0.3095
 7382TIP3    H143637   4.095   2.069   5.926  0.6625  0.1295  0.1807
 7382TIP3    H243638   3.976   1.980   5.955 -0.0569  0.7175 -0.9456
 7383TIP3   OH243639   3.156   6.579  11.151 -0.0288 -0.3326  0.0520
 7383TIP3    H143640   3.171   6.656  11.096 -2.2283 -0.7622 -1.2115
 7383TIP3    H243641   3.137   6.509  11.089 -0.1573 -1.4031  1.2889
 7384TIP3   OH243642   3.734   4.472  15.762  0.2891  0.4710  0.9087
 7384TIP3    H143643   3.807   4.531  15.780  1.7075 -0.7249 -0.8287
 7384TIP3    H243644   3.698   4.503  15.679  0.2504 -0.3271  0.6240
 7385TIP3   OH243645   5.428   0.922   4.610  0.0970 -0.2453  0.4891
 7385TIP3    H143646   5.510   0.948   4.653  0.2201 -1.4402  0.9707
 7385TIP3    H243647   5.360   0.969   4.659  0.4134  0.0437  0.6579
 7386TIP3   OH243648   5.594   6.802   5.150  0.0278  0.0746  0.4308
 7386TIP3    H143649   5.523   6.787   5.212 -0.0243  0.9361  0.5921
 7386TIP3    H243650   5.664   6.841   5.204  0.2078  0.2525  0.0701
 7387TIP3   OH243651   6.369   1.759   1.233  0.0207  0.2877  0.5531
 7387TIP3    H143652   6.338   1.686   1.287  1.4423  0.9765  2.3578
 7387TIP3    H243653   6.459   1.736   1.211 -1.0026 -0.7536 -2.9754
 7388TIP3   OH243654   4.996   5.053  16.034  0.1482  1.0643 -0.4591
 7388TIP3    H143655   5.004   4.972  16.085 -1.7497  0.7813 -0.5871
 7388TIP3    H243656   5.070   5.050  15.974  0.5648 -0.1836  0.0867
 7389TIP3   OH243657   5.493   5.593   2.996 -0.4134  0.2957 -0.1503
 7389TIP3    H143658   5.567   5.534   2.989  0.3547  1.1887  0.3082
 7389TIP3    H243659   5.493   5.621   3.087 -1.0714  0.6013 -0.2399
 7390TIP3   OH243660   1.867   2.019   0.370 -0.7890 -0.1126  0.0951
 7390TIP3    H143661   1.897   1.928   0.362  2.3024  0.8593  0.2945
 7390TIP3    H243662   1.833   2.026   0.459  1.1976 -0.4373  0.8862
 7391TIP3   OH243663   1.522   5.823   2.176  0.2943 -0.0822 -0.2619
 7391TIP3    H143664   1.439   5.792   2.139 -0.8315  2.0055  0.3644
 7391TIP3    H243665   1.549   5.755   2.236 -0.9107 -0.8707 -0.5930
 7392TIP3   OH243666   3.222   4.071  15.825 -0.0449  0.3916  0.3505
 7392TIP3    H143667   3.174   3.989  15.820  0.4297  0.1641 -0.4452
 7392TIP3    H243668   3.291   4.063  15.760 -0.0167  1.4320  0.2389
 7393TIP3   OH243669   4.725   6.631   6.061  0.2285  0.3065  0.0783
 7393TIP3    H143670   4.773   6.596   6.136  0.6907 -0.8600 -0.7449
 7393TIP3    H243671   4.756   6.721   6.053 -0.9955  0.9672  2.2361
 7394TIP3   OH243672   3.245   1.254  14.084  0.1649  0.1261 -0.2324
 7394TIP3    H143673   3.238   1.202  14.164  0.3031  0.5782  0.0749
 7394TIP3    H243674   3.155   1.279  14.064 -0.2980 -2.6515 -2.0107
 7395TIP3   OH243675   4.509   6.426  11.945  0.1604  0.2656  0.2548
 7395TIP3    H143676   4.565   6.499  11.970  1.1903 -0.5349  0.3411
 7395TIP3    H243677   4.489   6.440  11.853  0.5425  0.5330  0.2151
 7396TIP3   OH243678   0.751   5.816  15.468  0.0113 -1.0891  0.0279
 7396TIP3    H143679   0.796   5.814  15.384  0.7807  1.0107  0.3551
 7396TIP3    H243680   0.817   5.786  15.531  0.8345  1.4092  0.4241
 7397TIP3   OH243681   5.663   5.738  13.186  0.5569  0.0895 -0.3255
 7397TIP3    H143682   5.601   5.737  13.259  1.2881  2.0399  0.3519
 7397TIP3    H243683   5.610   5.719  13.109 -0.3841 -1.0468  0.5846
 7398TIP3   OH243684   6.032   2.776   0.797 -0.4047 -0.7593  0.2684
 7398TIP3    H143685   6.123   2.747   0.786 -0.2600 -0.1179 -0.2879
 7398TIP3    H243686   5.994   2.713   0.857  0.6001 -0.6451  1.0360
 7399TIP3   OH243687   3.850   1.412   5.607  0.2904 -0.0457 -0.0997
 7399TIP3    H143688   3.896   1.372   5.681  0.0282 -0.0965  0.0341
 7399TIP3    H243689   3.783   1.349   5.583  0.2391  0.0644 -0.2502
 7400TIP3   OH243690   2.713   4.704  14.860 -0.4817 -0.1335 -0.0371
 7400TIP3    H143691   2.772   4.631  14.841  1.8594  1.2498  1.7019
 7400TIP3    H243692   2.636   4.664  14.900  1.0032 -1.6047  1.3861
 7401TIP3   OH243693   2.209   3.239   5.626 -0.2462 -0.4426  0.2507
 7401TIP3    H143694   2.180   3.299   5.557 -0.9410 -0.8132  0.2121
 7401TIP3    H243695   2.211   3.153   5.583  0.3021 -0.5165  0.4236
 7402TIP3   OH243696   3.072   2.374   5.160 -0.1490 -0.2204 -0.0118
 7402TIP3    H143697   3.165   2.396   5.160 -0.1020 -0.4097  0.6736
 7402TIP3    H243698   3.068   2.286   5.196 -0.5826 -0.2683 -0.1742
 7403TIP3   OH243699   5.393   2.572   5.956  0.0032 -0.1488  0.1608
 7403TIP3    H143700   5.413   2.655   5.998 -0.4488 -0.1428  0.3573
 7403TIP3    H243701   5.307   2.547   5.989 -0.9938  0.5467 -1.8451
 7404TIP3   OH243702   5.387   1.096  12.692 -0.2088 -0.3593  0.0174
 7404TIP3    H143703   5.315   1.081  12.631 -0.6729  0.1490  0.4437
 7404TIP3    H243704   5.409   1.188  12.680 -1.7236  0.2935  2.1828
 7405TIP3   OH243705   5.263   3.885  12.039  0.1322 -0.0184  0.3319
 7405TIP3    H143706   5.298   3.955  11.984  0.0607  0.0373  0.3566
 7405TIP3    H243707   5.339   3.833  12.063  0.0745 -0.4507 -0.4053
 7406TIP3   OH243708   3.670   0.992   5.202  0.1069 -0.2139  0.0773
 7406TIP3    H143709   3.636   1.062   5.146  1.1598 -1.1300 -1.7631
 7406TIP3    H243710   3.623   0.914   5.174 -0.2625 -0.4599  1.3544
 7407TIP3   OH243711   4.044   3.453   5.096 -0.0895  0.5200 -0.1856
 7407TIP3    H143712   3.993   3.410   5.164 -1.2812 -0.4992 -1.6879
 7407TIP3    H243713   4.054   3.543   5.127 -1.8487  0.4471  0.6579
 7408TIP3   OH243714   1.755   5.817   5.006  0.3819 -0.0973  0.2061
 7408TIP3    H143715   1.787   5.844   4.920  0.5583 -0.3499  0.1931
 7408TIP3    H243716   1.707   5.737   4.990  0.0821  0.0674  0.2868
 7409TIP3   OH243717   2.430   3.424   0.449 -0.7628 -0.1616 -0.3189
 7409TIP3    H143718   2.462   3.353   0.394  0.5164 -0.6783  1.0570
 7409TIP3    H243719   2.336   3.405   0.459 -0.8459 -0.5044 -1.6247
 7410TIP3   OH243720   3.639   1.907  16.227  0.0169 -0.5110  0.2813
 7410TIP3    H143721   3.700   1.834  16.223  0.7739  0.1361 -0.0636
 7410TIP3    H243722   3.598   1.900  16.313  2.3776  0.4827  1.5302
 7411TIP3   OH243723   2.401   1.094   1.349  0.3862  0.5158 -0.0217
 7411TIP3    H143724   2.455   1.025   1.310  0.4149  0.6515 -0.2225
 7411TIP3    H243725   2.403   1.165   1.285 -0.9588  0.0983 -0.5461
 7412TIP3   OH243726   2.792   4.433  14.811  0.6435 -0.0677  0.4838
 7412TIP3    H143727   2.829   4.443  14.723 -1.2830  2.6684 -0.0601
 7412TIP3    H243728   2.740   4.352  14.805 -0.3623  0.6610 -1.2590
 7413TIP3   OH243729   0.204   3.718   6.355 -0.2132  0.0369  0.1560
 7413TIP3    H143730   0.227   3.799   6.401 -1.1286  0.1961  0.3519
 7413TIP3    H243731   0.157   3.666   6.419 -1.7414  0.3799 -0.6597
 7414TIP3   OH243732   5.732   2.869   4.734 -0.2860 -0.1141  0.0922
 7414TIP3    H143733   5.667   2.811   4.694 -0.6682  0.4988 -0.1797
 7414TIP3    H243734   5.749   2.830   4.820  0.2074 -1.1920 -0.4812
 7415TIP3   OH243735   4.979   2.514   0.526  0.5708 -0.3239  0.3676
 7415TIP3    H143736   4.909   2.449   0.533 -1.2322  1.1952 -2.3730
 7415TIP3    H243737   4.947   2.588   0.577 -0.3837  0.7787 -1.7668
 7416TIP3   OH243738   3.554   1.973  12.672  0.1690 -0.2614 -0.6598
 7416TIP3    H143739   3.587   2.021  12.748 -1.9386  1.5709 -0.8571
 7416TIP3    H243740   3.577   1.882  12.690  1.1885  0.3588  1.3729
 7417TIP3   OH243741   1.831   0.690  13.169  0.6321 -0.8716  0.5158
 7417TIP3    H143742   1.888   0.763  13.191 -0.4359  0.1636 -0.0982
 7417TIP3    H243743   1.744   0.716  13.200 -0.0319 -1.2589 -0.9282
 7418TIP3   OH243744   1.118   3.389   5.964  0.6746  0.2166  0.3958
 7418TIP3    H143745   1.186   3.456   5.970  1.6787 -0.8992  1.9626
 7418TIP3    H243746   1.049   3.419   6.023  1.0285  0.0037  0.9274
 7419TIP3   OH243747   2.391   1.509   5.683 -0.4010  0.4560  0.4520
 7419TIP3    H143748   2.426   1.552   5.762  0.4003  0.5272  0.0621
 7419TIP3    H243749   2.314   1.461   5.714  0.7649 -0.7426  1.5691
 7420TIP3   OH243750   5.652   3.913  13.168 -0.2126 -0.6910 -0.2822
 7420TIP3    H143751   5.743   3.921  13.195 -0.6604  0.0255  1.0391
 7420TIP3    H243752   5.617   4.002  13.176 -1.4380 -1.2599  0.6964
 7421TIP3   OH243753   3.794   4.987  16.290 -0.3460  0.0259  0.1635
 7421TIP3    H143754   3.755   5.047  16.227  0.8904  0.6993  0.0312
 7421TIP3    H243755   3.855   4.935  16.239  0.0394  0.0013  0.6529
 7422TIP3   OH243756   2.254   5.819  15.000  0.4415  0.3170  0.3626
 7422TIP3    H143757   2.223   5.781  15.083  1.4855  0.0045  0.6158
 7422TIP3    H243758   2.197   5.779  14.934  0.4740 -0.4636  0.7929
 7423TIP3   OH243759   2.175   1.477   6.117  0.4888  0.3691 -0.1549
 7423TIP3    H143760   2.082   1.501   6.118  0.1814 -0.7499 -0.6074
 7423TIP3    H243761   2.199   1.470   6.209 -0.0309  0.1193 -0.0357
 7424TIP3   OH243762   6.271   3.611  11.803  0.5525  0.0389 -0.1907
 7424TIP3    H143763   6.341   3.663  11.842  0.3304 -0.2202  0.5434
 7424TIP3    H243764   6.273   3.528  11.850 -0.8441  0.3521  0.4465
 7425TIP3   OH243765   5.389   6.206   2.440  0.3976 -0.3303  0.1873
 7425TIP3    H143766   5.364   6.145   2.510 -1.3452  0.5354  0.3436
 7425TIP3    H243767   5.450   6.157   2.385  1.3702 -1.2029  2.0131
 7426TIP3   OH243768   0.057   0.921  16.019  0.0331  0.3807  0.3640
 7426TIP3    H143769   0.050   0.969  16.101  2.6812 -1.2954  1.6488
 7426TIP3    H243770   0.013   0.837  16.037  1.2742 -0.2832  0.3221
 7427TIP3   OH243771   5.867   4.378  13.421 -0.0267 -0.3395 -0.3501
 7427TIP3    H143772   5.787   4.405  13.464 -1.7463  0.3650 -3.7817
 7427TIP3    H243773   5.914   4.459  13.403  0.6341 -0.6107  0.1327
 7428TIP3   OH243774   0.313   2.341   0.564 -0.0997 -0.3782 -0.3471
 7428TIP3    H143775   0.286   2.265   0.616  0.3535 -0.9070 -0.8606
 7428TIP3    H243776   0.231   2.378   0.531 -0.3044 -0.8472 -0.3679
 7429TIP3   OH243777   1.720   1.839  17.006 -0.0397  0.7592 -0.0469
 7429TIP3    H143778   1.696   1.787  17.083 -0.6497  3.0157  1.3322
 7429TIP3    H243779   1.711   1.778  16.932 -0.4537 -1.1525  1.5370
 7430TIP3   OH243780   6.681   3.101   4.363  0.8887  0.8138 -0.0058
 7430TIP3    H143781   6.651   3.047   4.437  0.3571  0.0570 -0.7722
 7430TIP3    H243782   6.771   3.073   4.349  0.6149  0.1047 -0.4028
 7431TIP3   OH243783   2.959   4.830  12.183 -0.3750  0.2157  0.2244
 7431TIP3    H143784   3.002   4.799  12.263  0.7955 -1.1827 -0.8967
 7431TIP3    H243785   3.012   4.793  12.112 -2.7671 -0.5762 -1.2130
 7432TIP3   OH243786   0.026   0.865   3.530  0.1155  0.9734  0.3138
 7432TIP3    H143787   0.041   0.903   3.617  2.2545 -0.4535  0.6224
 7432TIP3    H243788   0.013   0.772   3.547  0.2023  0.7456 -0.8538
 7433TIP3   OH243789   2.804   5.322  15.824  0.2279 -0.3139 -0.1115
 7433TIP3    H143790   2.855   5.402  15.839 -0.9326  0.5021 -0.4644
 7433TIP3    H243791   2.716   5.353  15.801 -0.3033 -1.6968 -0.0030
 7434TIP3   OH243792   6.551   3.413  16.759 -0.1421 -0.4648  0.2458
 7434TIP3    H143793   6.503   3.420  16.676 -1.3785  2.3895  1.1626
 7434TIP3    H243794   6.520   3.487  16.811  1.8273 -1.2902  2.6527
 7435TIP3   OH243795   1.742   1.276   3.096  0.8054 -0.2357 -0.6706
 7435TIP3    H143796   1.691   1.252   3.018 -0.0084 -1.0333  0.0991
 7435TIP3    H243797   1.762   1.192   3.139 -0.4151  0.3204  1.0164
 7436TIP3   OH243798   3.308   3.770  11.280 -0.3524 -0.4506  0.7053
 7436TIP3    H143799   3.293   3.836  11.212  0.2912 -1.4705 -0.4491
 7436TIP3    H243800   3.301   3.686  11.234 -0.2935 -1.1636  1.9750
 7437TIP3   OH243801   4.262   4.160  13.582 -0.5196  0.3467  0.5178
 7437TIP3    H143802   4.234   4.142  13.491 -1.9485  1.9130  0.6268
 7437TIP3    H243803   4.181   4.153  13.633 -0.0525  1.3611  1.4006
 7438TIP3   OH243804   5.439   1.655  13.363  0.2947 -0.1370 -0.7211
 7438TIP3    H143805   5.346   1.656  13.340  0.6749  0.3874 -2.2330
 7438TIP3    H243806   5.458   1.563  13.382 -0.3265 -0.3669 -1.2164
 7439TIP3   OH243807   4.895   6.095  17.239 -0.6008 -0.4092  0.2715
 7439TIP3    H143808   4.837   6.030  17.200 -0.2807 -1.1611  1.0343
 7439TIP3    H243809   4.963   6.109  17.173 -0.3724 -1.2515  0.3293
 7440TIP3   OH243810   6.711   6.409  14.657 -0.0378  0.1278  0.0827
 7440TIP3    H143811   6.747   6.496  14.640  0.1096 -0.1712 -1.1953
 7440TIP3    H243812   6.706   6.403  14.752 -0.0825  1.5497  0.1791
 7441TIP3   OH243813   6.667   1.290   4.725 -0.8386 -0.3949  0.4199
 7441TIP3    H143814   6.694   1.226   4.791  1.4201  0.0592 -0.0137
 7441TIP3    H243815   6.683   1.375   4.767  3.1029 -0.0537 -1.5643
 7442TIP3   OH243816   1.511   0.034   4.560 -0.4582  0.5397 -0.1202
 7442TIP3    H143817   1.496   0.055   4.652 -0.6541  0.2844 -0.0922
 7442TIP3    H243818   1.606   0.034   4.550 -0.3927 -0.8053  0.4090
 7443TIP3   OH243819   5.529   5.503   2.536 -0.4350 -0.1813  0.0259
 7443TIP3    H143820   5.604   5.458   2.575 -0.8847 -0.0516  1.0717
 7443TIP3    H243821   5.466   5.511   2.608 -1.1578  0.3554 -0.6543
 7444TIP3   OH243822   2.551   5.633  16.311 -0.3852 -0.1229  0.0256
 7444TIP3    H143823   2.510   5.711  16.348  0.9606  0.0979  1.0783
 7444TIP3    H243824   2.642   5.638  16.338  0.0130 -1.4008 -0.9959
 7445TIP3   OH243825   3.125   6.067   3.836 -0.0502 -0.3068 -1.0175
 7445TIP3    H143826   3.119   6.163   3.838 -2.1917 -0.4437  0.4311
 7445TIP3    H243827   3.201   6.047   3.892 -1.2739  0.4470  0.9802
 7446TIP3   OH243828   0.972   2.489  11.776  0.5465  0.4187  0.8480
 7446TIP3    H143829   0.888   2.495  11.821 -0.7369  2.9160 -1.7392
 7446TIP3    H243830   1.023   2.562  11.812  0.3715  0.9654 -0.0089
 7447TIP3   OH243831   5.795   4.785   3.661 -0.7259 -0.4413 -0.0560
 7447TIP3    H143832   5.870   4.844   3.670 -1.6861  0.4614  2.5481
 7447TIP3    H243833   5.744   4.821   3.588 -0.7477  1.3312  0.8231
 7448TIP3   OH243834   6.132   3.484   4.151  0.4657 -0.0608 -0.0196
 7448TIP3    H143835   6.226   3.489   4.168  0.0571  0.0879  2.4316
 7448TIP3    H243836   6.098   3.570   4.175 -0.7651 -1.2141  2.5947
 7449TIP3   OH243837   6.072   0.150  13.936  0.5502  0.2799  0.0362
 7449TIP3    H143838   5.977   0.142  13.946  0.6590 -1.1527  0.0613
 7449TIP3    H243839   6.084   0.225  13.879 -0.6592 -0.1888 -0.8618
 7450TIP3   OH243840   1.892   6.447  17.273  0.2803 -0.0833 -0.5211
 7450TIP3    H143841   1.966   6.466  17.216  0.2664  0.9747 -0.2073
 7450TIP3    H243842   1.817   6.486  17.228  0.2392  0.5920  0.1139
 7451TIP3   OH243843   1.317   4.143  15.508 -0.1374 -0.2940  0.1184
 7451TIP3    H143844   1.371   4.155  15.586 -2.6268  1.2384  1.6473
 7451TIP3    H243845   1.367   4.185  15.438  0.1643  2.0603  1.7197
 7452TIP3   OH243846   3.920   0.927   3.664  0.7651  0.3714  0.6575
 7452TIP3    H143847   3.997   0.871   3.674  0.0706 -0.6314  0.4213
 7452TIP3    H243848   3.866   0.909   3.741  0.8532  1.2274  0.9288
 7453TIP3   OH243849   0.494   4.131   1.406 -0.9369  0.5166 -0.0899
 7453TIP3    H143850   0.427   4.117   1.473 -0.2250 -1.6199  0.1885
 7453TIP3    H243851   0.576   4.130   1.454 -0.4843 -0.1023 -0.8733
 7454TIP3   OH243852   5.217   6.423  13.003  0.3190 -0.2490  0.4268
 7454TIP3    H143853   5.309   6.450  13.002  0.5835 -1.1881 -0.7176
 7454TIP3    H243854   5.186   6.448  13.091  2.1902 -1.7119  1.5317
 7455TIP3   OH243855   5.540   5.470   0.043  0.0609 -0.7773  0.0600
 7455TIP3    H143856   5.510   5.557   0.067  2.1703 -0.7088  2.8149
 7455TIP3    H243857   5.496   5.411   0.104  1.2794 -1.2353  0.5287
 7456TIP3   OH243858   0.129   3.500   5.856 -0.3833 -0.1298 -0.1431
 7456TIP3    H143859   0.100   3.589   5.835 -1.7873 -0.4673  0.3244
 7456TIP3    H243860   0.211   3.489   5.808 -0.0426  1.5303  0.0503
 7457TIP3   OH243861   5.924   5.099   6.071  0.2900  0.0625  0.0582
 7457TIP3    H143862   5.840   5.055   6.086  0.7459 -0.3018  1.6912
 7457TIP3    H243863   5.967   5.046   6.004  0.4319 -1.4744  1.3296
 7458TIP3   OH243864   0.888   0.553  10.268  0.2429  1.0389 -0.1154
 7458TIP3    H143865   0.825   0.613  10.308 -0.4721  0.5632 -0.5035
 7458TIP3    H243866   0.903   0.589  10.180  0.0086  0.7898 -0.2578
 7459TIP3   OH243867   1.510   4.352   3.614 -0.7117 -0.9447  0.0810
 7459TIP3    H143868   1.451   4.279   3.631 -0.3987 -0.9064  1.3776
 7459TIP3    H243869   1.537   4.382   3.701  0.8619 -0.6731 -0.4805
 7460TIP3   OH243870   6.147   1.982  10.506  0.0928 -0.1777  0.1667
 7460TIP3    H143871   6.185   2.006  10.590 -0.4206  2.9993 -0.4349
 7460TIP3    H243872   6.060   2.023  10.507 -0.9361 -2.3004 -0.8649
 7461TIP3   OH243873   0.203   1.583  11.862 -0.3078  0.6284  0.2148
 7461TIP3    H143874   0.260   1.638  11.916  1.1078 -0.1937 -0.3975
 7461TIP3    H243875   0.195   1.501  11.912 -1.1436  0.8332  0.4096
 7462TIP3   OH243876   6.758   3.294  11.325  0.4337 -0.6259 -0.0992
 7462TIP3    H143877   6.822   3.312  11.393 -0.5840  0.4168  0.6136
 7462TIP3    H243878   6.708   3.219  11.357 -1.1808  0.9292  1.1666
 7463TIP3   OH243879   5.240   5.472   4.093  0.0715 -0.1088  0.4347
 7463TIP3    H143880   5.323   5.468   4.139 -1.1542 -0.9897  2.6388
 7463TIP3    H243881   5.185   5.406   4.135 -2.1244  1.2627 -0.1768
 7464TIP3   OH243882   3.662   6.189   4.633 -0.4723  0.3826  0.1544
 7464TIP3    H143883   3.752   6.182   4.601 -0.7616  0.0951 -0.6160
 7464TIP3    H243884   3.664   6.146   4.719  0.1780  0.5946  0.2456
 7465TIP3   OH243885   5.517   5.034  10.805 -0.0019  0.4094 -0.0112
 7465TIP3    H143886   5.554   5.106  10.857 -1.1883  1.0513 -0.0433
 7465TIP3    H243887   5.552   5.048  10.717  1.2426 -0.1253  0.3874
 7466TIP3   OH243888   3.536   0.768   4.278 -0.2493  0.1053 -0.2285
 7466TIP3    H143889   3.448   0.780   4.315  0.9496  1.0513  2.4880
 7466TIP3    H243890   3.550   0.847   4.226 -1.3980 -0.5540 -1.5802
 7467TIP3   OH243891   6.723   5.326   5.311 -0.2891  0.4162  0.1640
 7467TIP3    H143892   6.715   5.252   5.251 -0.7162  0.7871 -0.2420
 7467TIP3    H243893   6.705   5.403   5.257  1.3740  0.9219  0.2963
 7468TIP3   OH243894   4.512   4.204  11.167  0.8207  0.1873  0.1333
 7468TIP3    H143895   4.482   4.243  11.249  1.6178  0.3486  0.3551
 7468TIP3    H243896   4.474   4.260  11.099  0.0561 -0.0218  0.3856
 7469TIP3   OH243897   1.904   0.101  11.018 -0.0303 -0.3365 -0.1959
 7469TIP3    H143898   1.945   0.186  11.033  2.7704 -1.4770 -1.1026
 7469TIP3    H243899   1.888   0.099  10.924  2.9062 -2.0935 -0.6826
 7470TIP3   OH243900   0.746   6.748  14.507  0.6519  0.0066 -0.4273
 7470TIP3    H143901   0.714   6.661  14.483 -0.6335  0.4833 -0.4802
 7470TIP3    H243902   0.793   6.734  14.589 -0.0538 -0.6558 -0.1243
 7471TIP3   OH243903   5.257   4.926  16.026 -0.1290 -0.1777  0.0864
 7471TIP3    H143904   5.248   4.847  15.973  1.1305 -2.3327  2.9604
 7471TIP3    H243905   5.286   4.894  16.111  3.0938  3.6184  0.5262
 7472TIP3   OH243906   4.122   3.615   3.217  0.3562  0.2131 -0.1945
 7472TIP3    H143907   4.191   3.643   3.157 -0.2694  0.3520 -0.8535
 7472TIP3    H243908   4.140   3.522   3.232 -1.0973 -0.5192 -2.7908
 7473TIP3   OH243909   3.477   5.493  15.072 -0.1925 -0.3246 -0.0486
 7473TIP3    H143910   3.405   5.526  15.126 -0.9894  1.6457 -2.2455
 7473TIP3    H243911   3.534   5.569  15.060 -0.2389 -0.6368 -2.2988
 7474TIP3   OH243912   3.132   0.208  14.003  0.3175  0.5844 -0.4224
 7474TIP3    H143913   3.120   0.177  14.093 -0.0467 -0.0911 -0.7047
 7474TIP3    H243914   3.085   0.291  14.000 -0.3068  0.2427 -0.1931
 7475TIP3   OH243915   3.705   3.018   0.117 -0.1792 -0.1911  0.3063
 7475TIP3    H143916   3.763   3.087   0.149 -0.7620  0.3768  0.1485
 7475TIP3    H243917   3.747   2.985   0.038  0.1744 -0.1259  0.4649
 7476TIP3   OH243918   2.772   2.071  11.673 -0.5464 -1.1437 -0.0550
 7476TIP3    H143919   2.837   2.093  11.740  1.7877 -0.2098 -2.5687
 7476TIP3    H243920   2.706   2.020  11.720  0.2358  0.7800  3.2716
 7477TIP3   OH243921   2.501   6.680   2.322  0.1260 -0.1517 -0.6072
 7477TIP3    H143922   2.410   6.653   2.328  0.4247 -1.0263  0.0669
 7477TIP3    H243923   2.507   6.761   2.374  0.3369 -1.6463  1.7551
 7478TIP3   OH243924   2.464   3.643  14.406 -0.2216  0.1288  0.3540
 7478TIP3    H143925   2.550   3.678  14.429 -0.4457  0.7857  0.2086
 7478TIP3    H243926   2.482   3.575  14.342  0.1226  0.9753 -0.4661
 7479TIP3   OH243927   4.841   1.258   1.332  0.0877  0.2443 -0.6764
 7479TIP3    H143928   4.785   1.185   1.307  0.1393 -0.5750  1.5325
 7479TIP3    H243929   4.784   1.314   1.386  1.0402  0.0091  0.5890
 7480TIP3   OH243930   4.693   5.195  12.844 -0.4415  0.0195  0.3368
 7480TIP3    H143931   4.693   5.103  12.815 -3.2930  0.7861 -2.3379
 7480TIP3    H243932   4.620   5.200  12.907  0.4012  0.2234  1.3051
 7481TIP3   OH243933   4.839   5.743   1.796  0.5149  0.5353 -0.1188
 7481TIP3    H143934   4.890   5.688   1.855 -0.2204 -0.8730 -0.7819
 7481TIP3    H243935   4.748   5.726   1.820  0.2515  0.7887 -0.9189
 7482TIP3   OH243936   4.725   1.903  13.028 -0.2440 -0.3409 -0.1792
 7482TIP3    H143937   4.761   1.984  13.066 -1.0750  0.6574 -1.4968
 7482TIP3    H243938   4.751   1.906  12.936 -1.0654 -1.1364 -0.4394
 7483TIP3   OH243939   2.211   5.773  11.875 -0.2121 -0.3655 -0.0873
 7483TIP3    H143940   2.183   5.828  11.948  2.5171  0.3461  0.4792
 7483TIP3    H243941   2.223   5.686  11.914  0.3856 -0.1889  0.1282
 7484TIP3   OH243942   1.058   3.011   2.808  0.0002  0.2522  0.0613
 7484TIP3    H143943   0.971   2.972   2.812  0.5871 -1.2764 -1.3642
 7484TIP3    H243944   1.117   2.939   2.829  0.9074  1.3509  1.2958
 7485TIP3   OH243945   3.825   4.982   3.676 -0.2306 -0.3046  0.3392
 7485TIP3    H143946   3.906   5.010   3.720 -0.2377  0.5257 -0.1611
 7485TIP3    H243947   3.757   4.989   3.743  0.2003 -1.5970  0.9441
 7486TIP3   OH243948   4.202   5.233   6.100 -0.1695 -0.3988 -0.1261
 7486TIP3    H143949   4.290   5.231   6.063 -0.4242 -1.6750 -0.6714
 7486TIP3    H243950   4.149   5.276   6.034  0.0232  0.2994  0.1687
 7487TIP3   OH243951   1.479   3.907   5.757  0.1479  0.1028  0.1313
 7487TIP3    H143952   1.450   3.858   5.681 -2.3434  1.4539  0.1579
 7487TIP3    H243953   1.425   3.875   5.829  2.1254 -0.7989  1.2580
 7488TIP3   OH243954   0.895   1.633  11.819  0.3245  0.1581 -0.5059
 7488TIP3    H143955   0.815   1.662  11.776 -0.6044  1.2029  1.8211
 7488TIP3    H243956   0.944   1.586  11.751 -1.5039  0.9123 -2.3837
 7489TIP3   OH243957   2.416   5.920   4.029  0.1157  1.0063  0.5445
 7489TIP3    H143958   2.438   5.987   3.965 -0.5374  0.1975 -0.5398
 7489TIP3    H243959   2.447   5.838   3.990 -3.1465  0.0809 -0.2211
 7490TIP3   OH243960   0.312   5.048   6.386 -0.0176  0.0107 -0.4784
 7490TIP3    H143961   0.258   5.119   6.420 -0.6775 -1.1948  1.0668
 7490TIP3    H243962   0.390   5.048   6.442  1.1436  1.0922 -2.0554
 7491TIP3   OH243963   4.751   5.173  13.803 -0.2392  0.0986  0.1953
 7491TIP3    H143964   4.758   5.127  13.887  0.3799 -0.7457 -0.3153
 7491TIP3    H243965   4.680   5.236  13.817 -1.1670 -1.0591  0.8787
 7492TIP3   OH243966   5.845   5.367   3.701 -0.3180  0.1993  0.0083
 7492TIP3    H143967   5.938   5.385   3.691  0.2321 -2.8554 -0.8078
 7492TIP3    H243968   5.802   5.450   3.677  2.1057  1.0761 -1.4912
 7493TIP3   OH243969   2.367   4.936  16.226 -0.4613  0.2152 -0.0225
 7493TIP3    H143970   2.351   4.982  16.309 -1.3923  1.5577 -0.9206
 7493TIP3    H243971   2.282   4.934  16.183 -0.1430 -1.1652 -0.6163
 7494TIP3   OH243972   4.941   5.753  10.677  0.7850  0.5145 -0.4395
 7494TIP3    H143973   5.033   5.764  10.703  1.0428  1.3584 -1.6476
 7494TIP3    H243974   4.942   5.681  10.614  0.1568 -1.5581  1.8363
 7495TIP3   OH243975   6.509   2.791   5.554 -0.0757 -0.0416  0.0640
 7495TIP3    H143976   6.571   2.808   5.484  1.2990  1.0953  1.5269
 7495TIP3    H243977   6.551   2.724   5.608 -0.0116  0.8808  1.1739
 7496TIP3   OH243978   5.584   4.353   2.672  0.1951  0.5632  0.2544
 7496TIP3    H143979   5.563   4.261   2.655  1.5297  0.4207 -0.7208
 7496TIP3    H243980   5.677   4.353   2.694 -0.5253  1.2925  3.6054
 7497TIP3   OH243981   0.669   3.260   3.718  0.1786  0.0745  0.4853
 7497TIP3    H143982   0.618   3.179   3.716 -0.0057  0.1355  2.1977
 7497TIP3    H243983   0.759   3.233   3.701 -0.1175 -0.2747 -0.5763
 7498TIP3   OH243984   2.363   6.311  15.850  0.0789 -0.6454 -0.3462
 7498TIP3    H143985   2.342   6.276  15.937  1.5343 -0.2757  0.1595
 7498TIP3    H243986   2.372   6.233  15.795 -2.2255 -0.8427 -0.5195
 7499TIP3   OH243987   0.783   3.556   6.884 -0.9709  0.0629 -0.1642
 7499TIP3    H143988   0.794   3.478   6.829 -0.6276 -0.8333  1.1259
 7499TIP3    H243989   0.866   3.603   6.876 -0.2158 -1.0266  1.0093
 7500TIP3   OH243990   0.294   2.879  11.503  0.0518  0.3651 -0.5193
 7500TIP3    H143991   0.312   2.785  11.501 -0.4252  0.2291  0.9827
 7500TIP3    H243992   0.381   2.919  11.510  0.5210  0.2206 -4.2808
 7501TIP3   OH243993   4.474   5.565  15.886  0.1064 -1.0561  0.0959
 7501TIP3    H143994   4.516   5.645  15.918 -1.3086 -1.2208  2.5007
 7501TIP3    H243995   4.458   5.581  15.793  0.2583  1.2595  0.4578
 7502TIP3   OH243996   2.852   0.099  11.266  0.1813  0.3731  0.4366
 7502TIP3    H143997   2.944   0.075  11.272  0.0018 -0.1270  1.5153
 7502TIP3    H243998   2.805   0.018  11.286 -0.4985  0.5344 -0.4673
 7503TIP3   OH243999   2.253   4.231   2.360  0.0608  0.4746 -0.3150
 7503TIP3    H144000   2.271   4.291   2.287 -1.3722 -0.2826 -1.3097
 7503TIP3    H244001   2.285   4.146   2.329  3.8951  1.0164  1.8388
 7504TIP3   OH244002   5.094   6.140   4.044  0.5065 -0.1702 -0.2697
 7504TIP3    H144003   5.114   6.046   4.038  1.7672 -0.0149  1.1388
 7504TIP3    H244004   5.064   6.152   4.134 -0.0584  0.7038 -0.5753
 7505TIP3   OH244005   5.228   4.720   0.653  0.1793 -0.0811  0.2447
 7505TIP3    H144006   5.234   4.802   0.702 -0.9294  0.3365 -0.3086
 7505TIP3    H244007   5.157   4.672   0.695  0.4380 -0.4960  0.2020
 7506TIP3   OH244008   3.749   4.175  11.507  0.1041 -0.3980 -0.8032
 7506TIP3    H144009   3.750   4.081  11.492  1.0396 -0.6550  0.7625
 7506TIP3    H244010   3.799   4.212  11.435  0.6461 -1.1895 -0.8360
 7507TIP3   OH244011   3.012   6.769  12.245 -0.2246 -0.6661 -0.6283
 7507TIP3    H144012   3.041   6.695  12.299  0.3495 -1.2711 -1.7542
 7507TIP3    H244013   2.921   6.750  12.225 -0.5891 -0.1911  0.5326
 7508TIP3   OH244014   5.397   1.835   5.060 -0.3552 -0.3199  0.5216
 7508TIP3    H144015   5.426   1.852   4.971  0.1849 -1.1373  0.5400
 7508TIP3    H244016   5.310   1.875   5.065 -0.3548 -0.2105 -0.3481
 7509TIP3   OH244017   6.651   5.307  11.295  0.6611 -0.0984 -0.2756
 7509TIP3    H144018   6.621   5.296  11.205 -0.4215 -3.0084  0.3957
 7509TIP3    H244019   6.571   5.320  11.346  1.2240  0.8819  0.3814
 7510TIP3   OH244020   1.972   6.338  16.280  0.1681  0.2389 -0.1825
 7510TIP3    H144021   2.025   6.286  16.342 -0.7252 -0.1696  0.2445
 7510TIP3    H244022   1.977   6.290  16.198 -1.7459 -1.2577  0.5495
 7511TIP3   OH244023   3.044   4.256  15.725  0.3989  0.0765 -0.1828
 7511TIP3    H144024   3.111   4.205  15.770  0.8325  1.1396  0.3987
 7511TIP3    H244025   3.093   4.320  15.673 -0.1213 -0.4026 -1.2726
 7512TIP3   OH244026   6.035   5.636  14.690  0.0198  0.0268 -0.1928
 7512TIP3    H144027   6.031   5.730  14.705 -2.2420  0.4249 -2.7745
 7512TIP3    H244028   6.098   5.625  14.619 -0.1115 -0.3184 -0.2616
 7513TIP3   OH244029   2.805   0.548   4.810 -0.2587 -0.2155 -0.0464
 7513TIP3    H144030   2.772   0.638   4.820  2.5710  1.1407 -2.1879
 7513TIP3    H244031   2.811   0.515   4.899 -0.0917  2.2129  0.8869
 7514TIP3   OH244032   4.190   2.803  13.496  0.4524  0.1088  0.3482
 7514TIP3    H144033   4.188   2.796  13.592 -0.0632  1.6844  0.4692
 7514TIP3    H244034   4.208   2.895  13.479  0.7402 -0.2022 -1.0795
 7515TIP3   OH244035   4.799   0.327  12.415 -0.1341  0.2145 -0.4228
 7515TIP3    H144036   4.721   0.336  12.469  1.6722  2.8081  1.8661
 7515TIP3    H244037   4.853   0.403  12.437  4.5434 -3.1726  0.6562
 7516TIP3   OH244038   1.015   0.414   2.431 -0.5473 -0.0287  0.1703
 7516TIP3    H144039   1.021   0.507   2.451  0.3258  0.1162 -0.7094
 7516TIP3    H244040   0.940   0.383   2.482 -1.6163  1.4096 -0.4901
 7517TIP3   OH244041   6.205   2.884  14.328  0.3247  0.2819 -0.4257
 7517TIP3    H144042   6.182   2.841  14.245 -0.3666  1.6423 -0.9484
 7517TIP3    H244043   6.298   2.904  14.320  0.5454 -0.6782 -0.3684
 7518TIP3   OH244044   3.847   2.237   5.143 -0.5184 -0.3463  0.3869
 7518TIP3    H144045   3.770   2.293   5.150 -1.8291 -2.0193 -0.3104
 7518TIP3    H244046   3.818   2.151   5.174  1.2566 -0.8521  0.7502
 7519TIP3   OH244047   3.926   2.515   6.402 -0.7236  0.0529 -0.5549
 7519TIP3    H144048   3.911   2.433   6.448 -0.6491 -0.2477 -1.0631
 7519TIP3    H244049   3.878   2.581   6.453  1.0802  0.0831  1.1192
 7520TIP3   OH244050   6.782   0.366   4.332 -0.7710 -0.7405  0.3597
 7520TIP3    H144051   6.875   0.362   4.310 -0.9059 -1.1875 -0.1312
 7520TIP3    H244052   6.748   0.441   4.283 -0.8523 -1.0991 -0.1262
 7521TIP3   OH244053   2.239   0.014   2.872  0.5495 -0.1668  0.1698
 7521TIP3    H144054   2.204  -0.066   2.911  1.0480 -0.0492  0.8643
 7521TIP3    H244055   2.320  -0.014   2.830  0.6492 -0.0579  0.2888
 7522TIP3   OH244056   1.428   3.510   1.158 -0.0087  0.1019  0.2710
 7522TIP3    H144057   1.409   3.555   1.240  0.4280 -1.7024  1.3811
 7522TIP3    H244058   1.501   3.451   1.179 -1.0090 -1.6386 -0.9601
 7523TIP3   OH244059   2.383   4.409  16.947  0.4511  0.2342  0.0133
 7523TIP3    H144060   2.303   4.371  16.984  0.2345  0.5794 -0.1056
 7523TIP3    H244061   2.449   4.340  16.959  0.9066  1.1386  2.9925
 7524TIP3   OH244062   0.847   4.487  16.542 -0.5559  0.8001  0.5141
 7524TIP3    H144063   0.766   4.480  16.593 -0.4783  2.9029  0.9710
 7524TIP3    H244064   0.895   4.407  16.561 -3.2961 -1.3130 -1.1304
 7525TIP3   OH244065   1.821   1.214  13.310 -0.3865 -0.0490 -0.2008
 7525TIP3    H144066   1.803   1.232  13.218 -1.5037  3.7145  0.6355
 7525TIP3    H244067   1.914   1.195  13.313  0.0585  1.6257 -1.9296
 7526TIP3   OH244068   5.197   0.710  10.778 -0.2006 -0.3363 -0.1460
 7526TIP3    H144069   5.272   0.671  10.823  0.1204  2.5941  1.9968
 7526TIP3    H244070   5.125   0.649  10.797  0.9017 -1.4246  0.6541
 7527TIP3   OH244071   5.003   2.236   5.523  0.3212 -0.4689  0.2819
 7527TIP3    H144072   5.047   2.308   5.477  1.4248 -1.0305  0.4385
 7527TIP3    H244073   5.014   2.256   5.616 -1.2170  0.2489  0.3273
 7528TIP3   OH244074   6.815   4.710   5.290 -0.1797  0.4303 -0.3987
 7528TIP3    H144075   6.784   4.687   5.203  0.5082  1.1171 -0.8296
 7528TIP3    H244076   6.766   4.652   5.349 -2.3835  1.5727 -1.0351
 7529TIP3   OH244077   5.890   2.609   6.468 -0.1894  0.3818  0.1568
 7529TIP3    H144078   5.806   2.655   6.458 -0.8080 -0.2592  2.2269
 7529TIP3    H244079   5.950   2.676   6.502 -0.0648  0.6325 -0.5468
 7530TIP3   OH244080   6.534   5.115  15.476 -0.3008  0.4210  0.7010
 7530TIP3    H144081   6.623   5.108  15.441 -0.5086 -1.2228  0.4685
 7530TIP3    H244082   6.484   5.159  15.407 -0.5517 -2.1870 -0.8688
 7531TIP3   OH244083   0.186   1.385  12.592 -0.0232  0.6728  0.1754
 7531TIP3    H144084   0.148   1.392  12.679 -0.2657  2.1101 -0.0484
 7531TIP3    H244085   0.116   1.349  12.538 -0.4656  1.5551  0.1661
 7532TIP3   OH244086   3.206   1.237  14.732 -0.0077 -0.1311 -0.1579
 7532TIP3    H144087   3.288   1.266  14.693 -0.6528  0.1083 -1.3399
 7532TIP3    H244088   3.220   1.144  14.751  0.3840 -0.1919 -0.7479
 7533TIP3   OH244089   3.371   6.713  16.066 -0.2526  0.2252  0.1193
 7533TIP3    H144090   3.360   6.760  16.149  0.9415  2.4098 -0.8914
 7533TIP3    H244091   3.283   6.701  16.032 -0.6697  0.3919  1.1403
 7534TIP3   OH244092   1.400   5.689   2.685 -0.4602 -0.1040  0.0893
 7534TIP3    H144093   1.466   5.633   2.642  1.7220  1.1562  1.6733
 7534TIP3    H244094   1.388   5.762   2.624 -2.8569 -1.9175 -1.6961
 7535TIP3   OH244095   0.572   6.244  15.012  0.1600  0.5380  0.1672
 7535TIP3    H144096   0.605   6.270  14.925  0.1923  0.9006  0.2861
 7535TIP3    H244097   0.527   6.322  15.045 -1.3143 -0.1318 -0.2272
 7536TIP3   OH244098   2.613   0.130  14.869 -0.3734 -0.4373  0.7167
 7536TIP3    H144099   2.575   0.148  14.955 -1.7567  0.2708 -0.0226
 7536TIP3    H244100   2.585   0.041  14.849 -3.9185  0.9124 -0.9149
 7537TIP3   OH244101   2.953   4.777  16.508  0.7057 -0.2203 -1.0456
 7537TIP3    H144102   3.006   4.817  16.439 -0.8844  3.4494 -0.2816
 7537TIP3    H244103   2.864   4.778  16.473  0.5511 -2.6256 -0.7503
 7538TIP3   OH244104   2.007   4.481  12.968  0.4804  0.2133 -0.5718
 7538TIP3    H144105   1.914   4.492  12.984  0.6180  1.2283 -0.4361
 7538TIP3    H244106   2.036   4.566  12.936  1.5378  0.1475  0.2035
 7539TIP3   OH244107   2.198   3.577  16.489  0.1954  0.5209 -0.0072
 7539TIP3    H144108   2.164   3.663  16.515  1.9846  0.6764  1.9838
 7539TIP3    H244109   2.124   3.517  16.500 -0.5332  1.5056  0.4472
 7540TIP3   OH244110   3.576   1.599   2.441  0.2975 -0.2474  0.1894
 7540TIP3    H144111   3.596   1.507   2.424  0.0781 -0.7521  2.4147
 7540TIP3    H244112   3.653   1.646   2.410  0.8766 -1.2999  0.0027
 7541TIP3   OH244113   2.417   6.358   5.908  0.4526 -0.5775  0.8892
 7541TIP3    H144114   2.375   6.419   5.968 -1.2935 -0.2446 -0.6741
 7541TIP3    H244115   2.489   6.407   5.870  0.3675 -0.1826  1.2371
 7542TIP3   OH244116   2.762   3.894  11.533 -0.1828 -0.8378  0.4226
 7542TIP3    H144117   2.681   3.930  11.569 -1.6527 -1.3026 -2.2223
 7542TIP3    H244118   2.781   3.818  11.587 -1.9881 -1.1963  0.5703
 7543TIP3   OH244119   3.707   4.927   0.259 -0.5153 -0.4463 -0.3246
 7543TIP3    H144120   3.779   4.932   0.197 -1.5565 -1.5079 -1.6617
 7543TIP3    H244121   3.660   5.010   0.248  0.9334  0.6085  1.1465
 7544TIP3   OH244122   3.613   6.360   2.690  0.4921  0.1416 -0.2994
 7544TIP3    H144123   3.657   6.277   2.675 -0.2156 -0.4167  0.6385
 7544TIP3    H244124   3.628   6.378   2.783 -4.1176 -1.7907  0.9487
 7545TIP3   OH244125   3.455   2.190   4.202 -0.1559  0.5604 -0.0763
 7545TIP3    H144126   3.459   2.171   4.296 -0.5644  2.5651  0.3684
 7545TIP3    H244127   3.533   2.149   4.166 -0.6781 -1.3696  0.9174
 7546TIP3   OH244128   2.168   3.296   5.273 -0.2555 -0.3588 -0.8693
 7546TIP3    H144129   2.233   3.228   5.257 -0.2030 -0.5009 -0.0616
 7546TIP3    H244130   2.205   3.348   5.344  0.6606  1.7740 -2.8370
 7547TIP3   OH244131   3.665   4.681   3.918 -0.3078 -0.0734 -0.2302
 7547TIP3    H144132   3.757   4.668   3.942 -0.9576 -2.8223  1.0330
 7547TIP3    H244133   3.656   4.775   3.907  2.8376  0.1922 -1.1288
 7548TIP3   OH244134   5.364   6.448  13.647  0.2315 -0.3316 -0.5841
 7548TIP3    H144135   5.298   6.420  13.584 -0.4576 -0.2448  0.0920
 7548TIP3    H244136   5.330   6.529  13.684  2.1255  1.3438 -2.3777
 7549TIP3   OH244137   3.783   2.029  11.016 -0.9855 -0.0842  0.5803
 7549TIP3    H144138   3.700   1.981  11.017 -0.6683 -0.7086 -0.8392
 7549TIP3    H244139   3.775   2.089  10.942 -0.0682 -0.3503  0.2515
 7550TIP3   OH244140   1.532   4.148  15.708  0.0613 -0.6225  0.1373
 7550TIP3    H144141   1.589   4.071  15.716  0.4915 -0.2371  0.8435
 7550TIP3    H244142   1.483   4.149  15.790  0.7595  0.4106  0.5478
 7551TIP3   OH244143   3.988   5.832  16.833 -0.0930 -0.4192 -0.1194
 7551TIP3    H144144   3.917   5.805  16.775  1.1262  1.3007 -2.4862
 7551TIP3    H244145   4.068   5.804  16.789  0.8505  0.5751  0.9033
 7552TIP3   OH244146   6.502   3.879   0.772 -0.0954  0.0334  0.7132
 7552TIP3    H144147   6.539   3.960   0.807 -0.3648  0.4340  0.0920
 7552TIP3    H244148   6.571   3.813   0.786 -0.2185  0.1687  2.0130
 7553TIP3   OH244149   1.719   1.066  16.364  0.7261 -0.1138 -0.1981
 7553TIP3    H144150   1.762   1.023  16.437  0.4299 -0.8311 -0.4357
 7553TIP3    H244151   1.764   1.032  16.286  0.9496  0.5388 -0.3559
 7554TIP3   OH244152   2.975   6.420   1.134 -0.8151 -0.0097  0.1091
 7554TIP3    H144153   3.064   6.386   1.120 -0.8533 -0.2692  0.4768
 7554TIP3    H244154   2.953   6.391   1.223 -0.7125  1.2743  0.5651
 7555TIP3   OH244155   3.879   1.509   0.974  0.0475  0.4980 -0.0809
 7555TIP3    H144156   3.828   1.589   0.977 -3.6892 -1.7669 -0.4115
 7555TIP3    H244157   3.894   1.494   0.880  1.6318  1.3202  0.0298
 7556TIP3   OH244158   4.642   3.469   4.637  0.5275 -0.1776 -0.2159
 7556TIP3    H144159   4.658   3.463   4.543 -1.6500 -1.9526 -0.5295
 7556TIP3    H244160   4.591   3.549   4.647  1.6563  0.5704 -0.3994
 7557TIP3   OH244161   3.086   0.603  13.144 -0.3435 -0.0984  0.1821
 7557TIP3    H144162   3.005   0.610  13.093 -0.5253  0.0428  0.4919
 7557TIP3    H244163   3.058   0.576  13.231  0.0815 -1.6970 -0.1481
 7558TIP3   OH244164   5.298   0.937  15.439  0.4369  0.2034  0.2510
 7558TIP3    H144165   5.207   0.911  15.454  1.2393 -2.3510  0.8200
 7558TIP3    H244166   5.329   0.879  15.370  1.3134  1.8449 -0.7690
 7559TIP3   OH244167   1.533   5.930  14.515  0.3283  0.5609  0.7252
 7559TIP3    H144168   1.555   5.846  14.476 -1.9590 -0.2044  1.0153
 7559TIP3    H244169   1.521   5.989  14.440  2.0479  0.6805  0.5282
 7560TIP3   OH244170   6.486   4.716   1.929 -0.0031 -0.5143  0.6398
 7560TIP3    H144171   6.440   4.767   1.995  1.5705 -1.0966  2.2289
 7560TIP3    H244172   6.488   4.772   1.851 -3.5130 -0.5503  0.4497
 7561TIP3   OH244173   2.829   2.008  17.082 -0.2081  0.2500  0.4940
 7561TIP3    H144174   2.883   1.952  17.137 -0.1146 -2.7928 -2.5555
 7561TIP3    H244175   2.740   1.998  17.117  0.0442 -0.6251  0.8915
 7562TIP3   OH244176   1.938   1.512   0.656 -0.1759  0.0993  0.3278
 7562TIP3    H144177   2.021   1.466   0.646  0.6681  1.6593  0.0230
 7562TIP3    H244178   1.962   1.602   0.677 -1.8134  0.0526  2.6753
 7563TIP3   OH244179   3.179   2.816   3.080  0.2212 -0.3431 -0.2321
 7563TIP3    H144180   3.237   2.761   3.133 -0.5546 -1.0304 -0.0830
 7563TIP3    H244181   3.115   2.755   3.044  2.0865 -0.2416 -3.8848
 7564TIP3   OH244182   5.186   6.268   0.881 -0.9572 -0.4914  0.0050
 7564TIP3    H144183   5.210   6.324   0.806  2.1673  0.4417  1.6049
 7564TIP3    H244184   5.147   6.329   0.944  0.2168 -0.5206  0.7729
 7565TIP3   OH244185   4.262   0.164  12.442 -0.5911 -0.1642  0.0312
 7565TIP3    H144186   4.217   0.080  12.433 -0.0410 -0.3329 -1.1725
 7565TIP3    H244187   4.275   0.195  12.352  3.0159 -0.8185  0.2519
 7566TIP3   OH244188   6.729   4.144   5.855  0.4389 -0.0567 -0.2122
 7566TIP3    H144189   6.668   4.194   5.909  0.1157 -0.1679 -0.4683
 7566TIP3    H244190   6.750   4.067   5.908 -0.9516 -0.8569 -0.7887
 7567TIP3   OH244191   2.418   4.160   5.899  0.0671  0.3545  0.0544
 7567TIP3    H144192   2.434   4.078   5.946 -1.2084  0.0030 -0.1127
 7567TIP3    H244193   2.470   4.152   5.819 -0.4332 -0.5041 -0.1892
 7568TIP3   OH244194   1.771   0.363   3.106 -0.8948 -0.2295 -0.0067
 7568TIP3    H144195   1.763   0.283   3.054  0.9338 -0.2604 -0.2644
 7568TIP3    H244196   1.804   0.334   3.191 -0.3268  0.2392 -0.0631
 7569TIP3   OH244197   6.384   3.795  16.046 -0.1013 -0.0481  0.6243
 7569TIP3    H144198   6.356   3.790  16.138 -2.2717  0.9896  0.0516
 7569TIP3    H244199   6.385   3.704  16.017 -3.8792 -0.1045  0.4275
 7570TIP3   OH244200   0.976   0.892   3.661  0.0419 -0.2826 -0.4521
 7570TIP3    H144201   0.945   0.964   3.715  0.8638  1.4968 -2.2797
 7570TIP3    H244202   1.046   0.930   3.608  1.5539 -2.8196 -0.3497
 7571TIP3   OH244203   2.931   6.789   0.840 -0.4427  0.6789 -0.3988
 7571TIP3    H144204   2.996   6.720   0.854 -1.0871 -0.2452 -1.8818
 7571TIP3    H244205   2.886   6.796   0.924  0.3769  0.0745  0.1029
 7572TIP3   OH244206   6.687   2.006   3.528  0.0743  0.4675 -0.4096
 7572TIP3    H144207   6.664   2.098   3.528  0.2300  0.5329  2.1479
 7572TIP3    H244208   6.687   1.981   3.435 -0.8048  2.7989 -1.0600
 7573TIP3   OH244209   5.084   6.639   5.871  0.1782 -0.2578 -0.3813
 7573TIP3    H144210   5.030   6.567   5.904  1.4196 -1.1011 -0.1782
 7573TIP3    H244211   5.063   6.713   5.929  1.1512 -1.2846  1.3126
 7574TIP3   OH244212   4.628   2.548   2.134 -0.0980  0.0818 -0.2465
 7574TIP3    H144213   4.561   2.589   2.189 -0.3101 -0.9133  0.2581
 7574TIP3    H244214   4.617   2.589   2.048  0.0147  1.4115  0.3599
 7575TIP3   OH244215   2.378   3.739   6.817  0.2450  0.0755  0.1055
 7575TIP3    H144216   2.467   3.711   6.797 -0.6340 -2.0961 -0.9105
 7575TIP3    H244217   2.338   3.663   6.860 -1.8268  0.1718 -1.6049
 7576TIP3   OH244218   1.863   6.197   4.373  0.2329 -0.4242 -0.4659
 7576TIP3    H144219   1.825   6.277   4.338 -2.3115 -1.6514 -0.6120
 7576TIP3    H244220   1.947   6.189   4.329 -1.3211 -0.0534 -3.6121
 7577TIP3   OH244221   3.885   4.274  14.629 -0.1346  0.0128  0.2210
 7577TIP3    H144222   3.804   4.229  14.606 -0.0884  0.3475 -0.6230
 7577TIP3    H244223   3.953   4.232  14.575  0.4731 -1.0949  1.8222
 7578TIP3   OH244224   5.536   4.847  14.115  0.3024 -0.9689  0.5736
 7578TIP3    H144225   5.445   4.857  14.088  0.4738 -2.7369 -0.7414
 7578TIP3    H244226   5.531   4.841  14.211 -0.6329  1.9801  0.7622
 7579TIP3   OH244227   1.254   4.140  16.649  0.3049 -0.5990  0.3070
 7579TIP3    H144228   1.229   4.134  16.741  0.3167  1.2261  0.4323
 7579TIP3    H244229   1.339   4.096  16.644  0.7845  0.2163  1.3464
 7580TIP3   OH244230   1.509   3.432   2.629 -0.0091  0.0771 -0.4418
 7580TIP3    H144231   1.511   3.455   2.536  0.7263 -0.8921 -0.6798
 7580TIP3    H244232   1.435   3.372   2.638  1.2848 -1.6308 -0.8620
 7581TIP3   OH244233   6.213   3.366  14.055 -1.0236 -0.3709 -0.0002
 7581TIP3    H144234   6.248   3.278  14.066  0.2051  0.0796 -0.1928
 7581TIP3    H244235   6.257   3.400  13.977 -0.6602  0.8039  0.6931
 7582TIP3   OH244236   2.967   5.648   3.914  0.2996 -0.6565  0.2595
 7582TIP3    H144237   2.964   5.720   3.977  0.8399  0.0029 -0.4662
 7582TIP3    H244238   3.018   5.681   3.841 -2.5024 -0.4649 -1.7058
 7583TIP3   OH244239   2.099   0.607   0.927 -0.2873  0.4522 -0.5067
 7583TIP3    H144240   2.117   0.684   0.981 -0.6768  0.7749 -0.8287
 7583TIP3    H244241   2.119   0.532   0.983  0.6978  0.7933 -0.3976
 7584TIP3   OH244242   3.841   6.638   5.289 -0.2766  0.4657  0.0092
 7584TIP3    H144243   3.930   6.665   5.267  0.0889  0.4570  1.4268
 7584TIP3    H244244   3.790   6.719   5.286 -0.5103  0.2445 -2.1900
 7585TIP3   OH244245   3.186   5.728  15.974  0.0609 -0.0647 -0.2753
 7585TIP3    H144246   3.251   5.746  15.906  1.6481  0.2282  1.2668
 7585TIP3    H244247   3.227   5.759  16.055 -2.3797  0.9372  0.6296
 7586TIP3   OH244248   3.882   6.298   0.906 -0.2534  0.7040  0.7580
 7586TIP3    H144249   3.854   6.388   0.893  1.0575  0.9108 -0.7458
 7586TIP3    H244250   3.800   6.249   0.914 -1.2133  1.2314 -4.1364
 7587TIP3   OH244251   4.597   4.806  14.379 -0.3183 -0.6960 -0.1933
 7587TIP3    H144252   4.590   4.900  14.361  0.4895 -0.3086  1.3988
 7587TIP3    H244253   4.687   4.794  14.408 -0.1963 -2.1066 -1.1386
 7588TIP3   OH244254   4.500   1.123   2.078 -0.0250 -0.0483 -0.1742
 7588TIP3    H144255   4.492   1.036   2.118 -1.1100 -0.5344 -1.3834
 7588TIP3    H244256   4.593   1.131   2.057  0.1935 -0.6409  0.5474
 7589TIP3   OH244257   3.060   0.979   4.172  0.0275 -0.3902 -0.4537
 7589TIP3    H144258   3.127   1.019   4.226  1.7210 -0.6919 -2.2857
 7589TIP3    H244259   3.071   1.019   4.086 -2.7278  0.2015 -0.5754
 7590TIP3   OH244260   5.426   1.122  16.104 -0.3322 -0.1360 -0.7993
 7590TIP3    H144261   5.444   1.055  16.170 -2.9165  1.2732  1.4834
 7590TIP3    H244262   5.460   1.203  16.143 -0.3454  0.4423 -1.9704
 7591TIP3   OH244263   2.993   1.464  11.317  0.0144 -0.2676  0.3066
 7591TIP3    H144264   2.972   1.502  11.402 -0.7317 -0.0086  0.0123
 7591TIP3    H244265   3.082   1.431  11.326  0.7802  1.7743  0.4902
 7592TIP3   OH244266   6.471   2.301   1.287 -0.1877 -0.5089  0.0169
 7592TIP3    H144267   6.460   2.207   1.276 -1.4186 -0.5383  1.3384
 7592TIP3    H244268   6.505   2.311   1.376  2.7322  0.1352 -1.1233
 7593TIP3   OH244269   2.760   0.560  10.718 -0.0722 -0.2173 -0.0894
 7593TIP3    H144270   2.701   0.545  10.644  1.4708  3.6762 -2.2447
 7593TIP3    H244271   2.833   0.500  10.702  0.0976  0.3529 -1.6329
 7594TIP3   OH244272   1.178   1.525  16.680 -0.4802  0.4429 -0.4587
 7594TIP3    H144273   1.179   1.434  16.709 -1.8255  0.8985  1.1149
 7594TIP3    H244274   1.111   1.527  16.611  0.4184  0.0026 -1.3484
 7595TIP3   OH244275   6.510   3.204  15.048 -0.0256 -0.0910  0.1279
 7595TIP3    H144276   6.428   3.208  15.098  0.3156  1.7675  0.5495
 7595TIP3    H244277   6.507   3.281  14.991  1.9089  0.5767  0.9027
 7596TIP3   OH244278   3.575   6.817  14.352  0.1030 -0.1407 -0.3587
 7596TIP3    H144279   3.559   6.853  14.265 -0.9834  1.8099  0.6142
 7596TIP3    H244280   3.661   6.852  14.377  1.1801 -2.0456 -1.2927
 7597TIP3   OH244281   0.382   1.843   2.012  0.0340  0.3980 -0.4458
 7597TIP3    H144282   0.356   1.802   1.929  0.9379  2.0337 -1.5506
 7597TIP3    H244283   0.300   1.876   2.048 -0.8655 -3.0094  0.8757
 7598TIP3   OH244284   0.497   5.908   2.239  0.2151  1.0453 -0.1432
 7598TIP3    H144285   0.430   5.934   2.175 -1.6922  1.1399  1.8263
 7598TIP3    H244286   0.469   5.949   2.321  1.8295 -0.2304  1.0761
 7599TIP3   OH244287   4.910   2.655  17.114 -0.4297 -0.3341  0.0008
 7599TIP3    H144288   4.884   2.745  17.093 -1.2352 -0.7503 -0.7962
 7599TIP3    H244289   4.997   2.664  17.154 -0.4285  0.7807 -0.2377
 7600TIP3   OH244290   3.262   3.593  12.831  0.5571  0.2956 -0.4497
 7600TIP3    H144291   3.188   3.533  12.839  0.7047  0.3406  1.5949
 7600TIP3    H244292   3.339   3.540  12.850  0.8373  0.7641 -0.2553
 7601TIP3   OH244293   3.877   0.359  15.685  0.3112  0.2460 -0.4815
 7601TIP3    H144294   3.955   0.372  15.738 -1.3697  0.1837  2.1296
 7601TIP3    H244295   3.843   0.273  15.711 -0.1998 -0.0805 -2.1512
 7602TIP3   OH244296   5.974   0.614  13.979 -0.2249  0.5595  0.0347
 7602TIP3    H144297   5.886   0.620  13.940  0.2514 -0.1030 -1.1571
 7602TIP3    H244298   5.960   0.635  14.071 -1.5568  1.0079 -0.2519
 7603TIP3   OH244299   1.248   5.306   2.590  0.9068  0.2715 -0.1504
 7603TIP3    H144300   1.226   5.228   2.540  0.7196 -0.6224  1.2927
 7603TIP3    H244301   1.298   5.361   2.529  2.3072 -1.6150 -0.7509
 7604TIP3   OH244302   4.612   5.742   0.361  0.3736  0.2630  0.2649
 7604TIP3    H144303   4.627   5.678   0.431 -2.5974 -0.3326  0.4654
 7604TIP3    H244304   4.551   5.698   0.301  0.6627  1.7973 -1.2032
 7605TIP3   OH244305   2.089   3.256   1.996 -0.4508 -0.1274  0.6394
 7605TIP3    H144306   2.174   3.285   1.963 -0.8288 -1.0783 -1.2937
 7605TIP3    H244307   2.095   3.264   2.091  1.2835  1.1824  0.4298
 7606TIP3   OH244308   4.510   1.303  15.973  0.1465  0.5389 -0.5943
 7606TIP3    H144309   4.594   1.331  16.011 -0.2818  0.6372  0.2906
 7606TIP3    H244310   4.454   1.286  16.049 -1.0255  1.6516 -1.1897
 7607TIP3   OH244311   1.993   3.419  16.553 -0.1278  0.1846 -0.3376
 7607TIP3    H144312   1.960   3.439  16.641 -0.5779  1.1357 -0.7193
 7607TIP3    H244313   1.915   3.401  16.502  0.1096  0.0420 -0.6517
 7608TIP3   OH244314   4.053   3.755  13.924 -0.6618 -0.1828 -0.2762
 7608TIP3    H144315   4.092   3.782  13.841 -0.1955 -0.5112 -0.1650
 7608TIP3    H244316   4.015   3.835  13.959 -3.0274 -0.5123 -1.9573
 7609TIP3   OH244317   4.312   2.625   6.215 -0.2623  0.3343 -0.2454
 7609TIP3    H144318   4.345   2.714   6.202 -0.6754  0.7920  1.6746
 7609TIP3    H244319   4.334   2.604   6.306 -1.6140 -0.9187 -0.1888
 7610TIP3   OH244320   6.512   3.340   5.676  0.1882 -0.5223 -0.0369
 7610TIP3    H144321   6.571   3.402   5.719  1.1455 -0.5028 -1.3705
 7610TIP3    H244322   6.516   3.262   5.730  1.6981 -0.6374 -0.3029
 7611TIP3   OH244323   3.295   3.566   4.008  0.8100  0.0355 -0.2029
 7611TIP3    H144324   3.343   3.534   3.932 -2.1175 -0.7090 -1.8126
 7611TIP3    H244325   3.347   3.538   4.083  3.1113 -0.2924 -1.8533
 7612TIP3   OH244326   3.913   2.498  12.262  0.2216  0.0056  0.0417
 7612TIP3    H144327   3.926   2.511  12.169 -0.8874 -0.2121 -0.1424
 7612TIP3    H244328   3.871   2.412  12.269 -1.4746  0.8728  0.6201
 7613TIP3   OH244329   6.215   1.708  13.423 -0.0209  0.3448  0.0989
 7613TIP3    H144330   6.176   1.693  13.337 -2.9361  2.1534  1.0050
 7613TIP3    H244331   6.140   1.706  13.483  1.7572  0.6795  2.3815
 7614TIP3   OH244332   4.890   5.667  15.891  0.1151  0.0264 -0.3264
 7614TIP3    H144333   4.933   5.753  15.899  0.7151 -0.1650 -1.4802
 7614TIP3    H244334   4.911   5.638  15.803 -0.5291 -1.0855 -0.1148
 7615TIP3   OH244335   1.942   1.753  16.769 -0.2166 -0.5602  0.0125
 7615TIP3    H144336   1.970   1.700  16.844 -0.1302  0.2535  0.5640
 7615TIP3    H244337   2.012   1.744  16.705 -0.0017 -0.7621  0.2778
 7616TIP3   OH244338   2.670   3.151  10.698  0.6313 -0.1884 -0.0367
 7616TIP3    H144339   2.723   3.134  10.620 -0.6271 -0.9788 -0.7463
 7616TIP3    H244340   2.616   3.226  10.676 -0.9599 -1.4543 -0.5947
 7617TIP3   OH244341   5.812   5.441   5.483 -0.2358 -0.6962 -0.0011
 7617TIP3    H144342   5.886   5.493   5.515  1.0718 -1.1699 -2.1257
 7617TIP3    H244343   5.805   5.369   5.546 -0.2429  0.4935  1.3749
 7618TIP3   OH244344   1.799   2.569  13.211 -0.3999 -0.3557 -0.8072
 7618TIP3    H144345   1.893   2.559  13.196 -0.3045  0.3743 -0.6807
 7618TIP3    H244346   1.760   2.565  13.123 -0.1297  0.7273 -0.9741
 7619TIP3   OH244347   4.411   4.014  15.750  0.1669  0.2679  1.0230
 7619TIP3    H144348   4.502   3.982  15.755  0.5402  1.0483 -0.5936
 7619TIP3    H244349   4.419   4.108  15.760 -0.1244  0.6972 -2.3020
 7620TIP3   OH244350   6.007   4.710   0.101  0.1376  0.0634 -0.7349
 7620TIP3    H144351   5.976   4.775   0.038 -1.3391  0.7822  0.6843
 7620TIP3    H244352   5.946   4.637   0.092 -0.1695  0.2261 -0.0948
 7621TIP3   OH244353   3.386   3.923  13.401 -0.1680  0.2871  0.7282
 7621TIP3    H144354   3.422   3.849  13.353  1.3388  0.2342  1.9061
 7621TIP3    H244355   3.336   3.973  13.336  0.4513 -0.6862 -0.4956
 7622TIP3   OH244356   1.251   4.818  13.651 -0.5183 -0.1383 -0.3432
 7622TIP3    H144357   1.300   4.824  13.733 -1.2089 -1.9993  0.2346
 7622TIP3    H244358   1.185   4.887  13.658 -1.9063 -1.6126  1.6183
 7623TIP3   OH244359   3.258   5.592  16.651  0.2815  0.3615  0.1336
 7623TIP3    H144360   3.262   5.638  16.735 -1.2098 -0.0630  0.4495
 7623TIP3    H244361   3.244   5.500  16.675  0.3241  0.1720 -0.5718
 7624TIP3   OH244362   2.702   1.347   3.477 -0.6628 -0.9225 -0.5944
 7624TIP3    H144363   2.648   1.412   3.523  0.6635 -1.5603  1.9277
 7624TIP3    H244364   2.775   1.329   3.536  0.5041 -2.6391 -2.4726
 7625TIP3   OH244365   2.717   2.232   0.107  0.0524  0.1559  0.2561
 7625TIP3    H144366   2.770   2.279   0.172 -0.2950  2.3344 -1.0215
 7625TIP3    H244367   2.730   2.139   0.130  0.8719  0.8171  2.7005
 7626TIP3   OH244368   0.900   3.095  12.959 -0.1681  0.6697  1.2912
 7626TIP3    H144369   0.861   3.065  12.877  0.9009  2.5954  0.0432
 7626TIP3    H244370   0.831   3.145  13.002 -0.5601  0.1136  1.3052
 7627TIP3   OH244371   0.979   4.065  16.238  0.2156 -0.1852 -0.7239
 7627TIP3    H144372   0.964   4.009  16.162  2.0647  2.0667 -2.8297
 7627TIP3    H244373   0.905   4.126  16.238  0.7937  0.5302 -1.4186
 7628TIP3   OH244374   1.537   5.576  16.524  0.1553  0.2214 -0.1200
 7628TIP3    H144375   1.604   5.583  16.592 -1.3700  2.4631  1.2103
 7628TIP3    H244376   1.569   5.630  16.452  0.7180 -0.3493 -0.3012
 7629TIP3   OH244377   4.549   2.522   3.648  0.1686  0.2678  0.2469
 7629TIP3    H144378   4.612   2.583   3.610 -0.6587  1.7597  1.2428
 7629TIP3    H244379   4.473   2.527   3.590 -1.0118  2.3832  1.8920
 7630TIP3   OH244380   2.774   2.016   2.901  0.2282  0.3524  0.5750
 7630TIP3    H144381   2.692   2.003   2.950  0.9566 -0.1034  1.6954
 7630TIP3    H244382   2.772   2.109   2.876 -0.0376  0.6697  1.7247
 7631TIP3   OH244383   0.062   2.145  11.262 -0.0195 -0.5859 -0.3367
 7631TIP3    H144384   0.059   2.240  11.276 -0.4420 -0.7587  0.8347
 7631TIP3    H244385   0.155   2.123  11.265  0.0238 -0.3315  0.3134
 7632TIP3   OH244386   4.512   1.198  16.698 -0.1705  0.2081 -0.5055
 7632TIP3    H144387   4.604   1.197  16.672 -0.3630  0.5286 -1.2121
 7632TIP3    H244388   4.492   1.107  16.720 -0.6454 -0.5497 -3.7843
 7633TIP3   OH244389   0.325   0.683  16.912  0.1456 -0.6429  0.3955
 7633TIP3    H144390   0.410   0.701  16.873  0.7760 -3.4577  0.4056
 7633TIP3    H244391   0.286   0.616  16.856 -0.7498 -1.6351  2.1629
 7634TIP3   OH244392   3.198   2.063  16.286 -0.3117 -0.2707  0.3002
 7634TIP3    H144393   3.280   2.109  16.269 -0.4773 -0.6559 -1.6553
 7634TIP3    H244394   3.147   2.124  16.340  1.0523  0.1652  1.1125
 7635TIP3   OH244395   5.911   2.747   1.884  0.1543 -0.0383  0.0122
 7635TIP3    H144396   5.961   2.670   1.911 -1.3453 -0.2765  2.2634
 7635TIP3    H244397   5.820   2.727   1.907 -0.4566  1.8447 -0.6098
 7636TIP3   OH244398   2.133   1.967  16.194 -0.3477  0.0661  0.5541
 7636TIP3    H144399   2.163   1.936  16.109  0.1907  0.2530  0.6794
 7636TIP3    H244400   2.183   2.048  16.209 -1.9787  1.2022  0.0688
 7637TIP3   OH244401   4.343   0.206  15.995  0.1860 -0.1841  0.0759
 7637TIP3    H144402   4.414   0.198  15.930 -0.8192  1.9197 -1.3486
 7637TIP3    H244403   4.277   0.143  15.965  0.7408 -0.9449  0.4430
 7638TIP3   OH244404   6.392   4.247   4.592  1.1683 -0.3674 -0.5392
 7638TIP3    H144405   6.476   4.264   4.548  0.8460 -2.3846 -1.9857
 7638TIP3    H244406   6.328   4.296   4.540  1.2580  0.1478 -0.1751
 7639TIP3   OH244407   5.065   0.047  10.771 -0.1420 -0.0141 -0.0363
 7639TIP3    H144408   5.059   0.142  10.775 -1.3219 -0.0874  0.1996
 7639TIP3    H244409   5.004   0.017  10.838 -0.1230 -0.9434 -0.4341
 7640TIP3   OH244410   3.152   0.322   2.682 -0.2452  0.6823 -0.3940
 7640TIP3    H144411   3.235   0.369   2.678 -0.3672  0.9208 -0.1961
 7640TIP3    H244412   3.170   0.236   2.645  0.4997  0.1518  1.1480
 7641TIP3   OH244413   1.517   4.544  13.239 -0.3675 -0.4561  0.0444
 7641TIP3    H144414   1.511   4.591  13.156  0.5636 -0.1643  0.1263
 7641TIP3    H244415   1.473   4.461  13.224 -0.9127 -0.0658 -0.4948
 7642TIP3   OH244416   5.396   1.509   1.365  0.1013 -0.4154 -0.4201
 7642TIP3    H144417   5.303   1.514   1.388  0.2355  0.3095 -0.0383
 7642TIP3    H244418   5.430   1.439   1.421  0.0497  0.1612  0.3430
 7643TIP3   OH244419   3.911   6.331   6.251 -0.1508 -0.3515 -0.0537
 7643TIP3    H144420   3.845   6.331   6.181  1.7234 -1.9577 -1.8892
 7643TIP3    H244421   3.956   6.414   6.242 -1.3851  0.4070  0.6945
 7644TIP3   OH244422   1.610   5.869  13.826  0.0172  0.0113 -0.2539
 7644TIP3    H144423   1.691   5.859  13.876 -1.0119  0.9457  1.6506
 7644TIP3    H244424   1.631   5.933  13.758  1.0571 -0.2573 -0.1845
 7645TIP3   OH244425   4.026   0.912  10.845 -0.7363 -0.4418  0.1306
 7645TIP3    H144426   4.102   0.969  10.835 -1.4883  0.3737 -0.9226
 7645TIP3    H244427   4.031   0.852  10.771 -0.8773 -0.6861  0.3183
 7646TIP3   OH244428   2.352   2.097  14.656 -0.3882  0.1421  0.1377
 7646TIP3    H144429   2.266   2.078  14.694 -0.2986 -1.1088 -0.2568
 7646TIP3    H244430   2.413   2.093  14.729 -0.5319  0.0446  0.2509
 7647TIP3   OH244431   4.937   6.117  12.115  0.0623  0.5301 -0.1428
 7647TIP3    H144432   4.872   6.179  12.081  1.3315  1.5944 -0.6739
 7647TIP3    H244433   4.949   6.142  12.206 -1.4135 -0.6690  0.4031
 7648TIP3   OH244434   4.526   3.674   5.470  0.2336  0.3228  0.2114
 7648TIP3    H144435   4.580   3.635   5.401 -0.3825 -3.2853  1.6779
 7648TIP3    H244436   4.437   3.668   5.436 -0.0180 -0.9905  1.0785
 7649TIP3   OH244437   5.768   4.835  11.097 -0.5700  0.0124  0.0085
 7649TIP3    H144438   5.782   4.741  11.107  0.0936 -0.0585 -1.4249
 7649TIP3    H244439   5.695   4.842  11.035 -0.4575  0.4456 -0.0782
 7650TIP3   OH244440   4.301   1.328   3.026 -0.3110 -0.4559 -0.3298
 7650TIP3    H144441   4.315   1.355   3.117 -0.3619 -3.0501  0.5040
 7650TIP3    H244442   4.376   1.362   2.978  0.6606 -0.6242  1.0554
 7651TIP3   OH244443   3.887   4.888   1.774  0.2422  0.1747  0.4272
 7651TIP3    H144444   3.871   4.979   1.748 -1.6303 -0.4435 -0.7091
 7651TIP3    H244445   3.884   4.839   1.691  0.3039 -1.0428  1.1367
 7652TIP3   OH244446   6.527   0.375  12.790 -0.8171 -0.5942 -0.4539
 7652TIP3    H144447   6.551   0.460  12.827  0.2097 -1.8935  2.0016
 7652TIP3    H244448   6.603   0.348  12.739 -0.8538 -0.3687 -0.6281
 7653TIP3   OH244449   3.865   2.026   2.183  0.2022 -0.2174 -0.4651
 7653TIP3    H144450   3.814   2.099   2.148  0.0601  0.1203  0.4475
 7653TIP3    H244451   3.956   2.055   2.177 -0.0189  1.3387  2.8168
 7654TIP3   OH244452   5.482   4.834  11.226 -0.0629 -0.2831 -0.5249
 7654TIP3    H144453   5.502   4.814  11.135 -2.4960 -0.0537 -1.1520
 7654TIP3    H244454   5.565   4.822  11.273  1.5939  1.1491 -3.0031
 7655TIP3   OH244455   2.900   4.913   5.093  0.3892  0.0658 -0.9532
 7655TIP3    H144456   2.830   4.939   5.033 -0.6285 -0.4524 -0.0155
 7655TIP3    H244457   2.925   4.825   5.064 -1.2210 -0.8467  0.3539
 7656TIP3   OH244458   5.481   2.958  13.342 -0.5128 -0.3689 -0.7707
 7656TIP3    H144459   5.520   2.884  13.389  1.3420  1.7121  1.1188
 7656TIP3    H244460   5.504   2.943  13.250  1.8248 -0.9795 -0.1188
 7657TIP3   OH244461   3.886   1.963   5.771 -0.1150 -0.8149  0.4475
 7657TIP3    H144462   3.827   1.891   5.749 -0.6036  0.1802 -1.6689
 7657TIP3    H244463   3.839   2.042   5.742  1.8086  0.0734 -0.3224
 7658TIP3   OH244464   6.550   4.837   5.071 -0.1880 -0.4214  0.1625
 7658TIP3    H144465   6.627   4.783   5.057  0.0480  0.2024 -1.0123
 7658TIP3    H244466   6.519   4.813   5.158  0.1392 -2.1613 -0.1759
 7659TIP3   OH244467   3.248   0.288  16.057  0.0671 -0.5251 -0.0587
 7659TIP3    H144468   3.229   0.246  15.973 -0.4831 -3.0492  1.2662
 7659TIP3    H244469   3.203   0.372  16.053 -3.2316 -2.2416 -0.8082
 7660TIP3   OH244470   4.385   3.607  10.662  0.1903 -0.0566 -0.5794
 7660TIP3    H144471   4.437   3.634  10.738 -0.6079  0.3881 -0.1837
 7660TIP3    H244472   4.419   3.520  10.640 -0.8519 -1.0327  1.4758
 7661TIP3   OH244473   0.742   1.609  11.376  0.1264  0.1253 -0.3208
 7661TIP3    H144474   0.647   1.619  11.373  0.1720  0.1772 -1.6841
 7661TIP3    H244475   0.774   1.690  11.415 -0.1510  1.6297 -3.1065
 7662TIP3   OH244476   5.037   0.841   4.693  0.1691  0.4828  0.6132
 7662TIP3    H144477   5.015   0.751   4.669  1.2242  0.0666  1.1789
 7662TIP3    H244478   5.094   0.871   4.623  0.0603  0.6157  0.5812
 7663TIP3   OH244479   1.747   2.609  12.493 -0.0330  0.5775 -0.0024
 7663TIP3    H144480   1.819   2.661  12.460  0.6582  0.0612  0.6743
 7663TIP3    H244481   1.673   2.670  12.500  0.4183  1.1645 -0.4212
 7664TIP3   OH244482   6.655   5.031  15.054  0.4827 -0.1343  1.5818
 7664TIP3    H144483   6.617   5.074  14.977  1.3734  0.7663  1.6335
 7664TIP3    H244484   6.584   4.978  15.090 -0.6831  1.4469  1.6276
 7665TIP3   OH244485   1.589   4.849   0.970 -0.2634 -0.1818  0.3239
 7665TIP3    H144486   1.516   4.895   0.929 -1.8326 -0.9911  2.1789
 7665TIP3    H244487   1.666   4.882   0.923 -1.6679  1.6450 -0.7905
 7666TIP3   OH244488   3.793   1.938   2.999  0.0917 -0.1152  0.0940
 7666TIP3    H144489   3.808   1.937   2.904  2.1791 -0.1118  0.4072
 7666TIP3    H244490   3.718   1.880   3.012  0.1267 -0.5389 -1.5059
 7667TIP3   OH244491   5.684   1.029  12.739  0.2876  0.0460  0.4632
 7667TIP3    H144492   5.716   0.980  12.664  1.0490 -0.0525  0.8497
 7667TIP3    H244493   5.590   1.041  12.722 -0.1282 -2.3469  0.7828
 7668TIP3   OH244494   0.164   2.476  14.223 -0.8416 -0.0819 -0.4421
 7668TIP3    H144495   0.079   2.504  14.256  0.0284  1.5177  0.5317
 7668TIP3    H244496   0.205   2.557  14.191  1.0521 -0.5190  0.8176
 7669TIP3   OH244497   6.254   2.442   0.379  0.2733  0.4391 -0.5267
 7669TIP3    H144498   6.332   2.470   0.426 -0.0792 -1.5734  1.3557
 7669TIP3    H244499   6.253   2.347   0.388 -2.4066  0.4182 -0.4060
 7670TIP3   OH244500   1.983   4.043  11.852 -0.0148 -0.3486 -0.1403
 7670TIP3    H144501   1.956   4.135  11.850 -0.1097 -0.3938 -2.5092
 7670TIP3    H244502   1.901   3.994  11.864  0.1345 -0.1114  1.9987
 7671TIP3   OH244503   4.553   1.153  15.760  0.9552 -0.8793  0.0588
 7671TIP3    H144504   4.572   1.221  15.695 -0.7947 -0.6324 -0.2125
 7671TIP3    H244505   4.528   1.202  15.838 -1.0726 -1.1804 -0.3673
 7672TIP3   OH244506   3.835   6.229  14.969 -0.2092  0.7316  0.2775
 7672TIP3    H144507   3.848   6.267  14.883 -0.1247  1.7842  0.7473
 7672TIP3    H244508   3.880   6.289  15.029  1.5582 -1.1088  0.8513
 7673TIP3   OH244509   4.950   0.576  13.985 -0.4960 -0.2711  0.1818
 7673TIP3    H144510   4.871   0.524  13.996 -0.8402  0.1563 -0.2933
 7673TIP3    H244511   4.994   0.571  14.070 -0.9840 -0.5849  0.4144
 7674TIP3   OH244512   3.733   2.194  12.640  0.3148  1.0501  0.1620
 7674TIP3    H144513   3.684   2.112  12.643  0.7945  0.7990  1.5845
 7674TIP3    H244514   3.686   2.253  12.698  1.9933  0.6098  2.0427
 7675TIP3   OH244515   0.109   6.753  11.387 -0.0979  0.0361 -0.0044
 7675TIP3    H144516   0.110   6.668  11.342 -1.8993 -0.2654  0.4907
 7675TIP3    H244517   0.027   6.753  11.435  0.4066  1.6298  0.8686
 7676TIP3   OH244518   3.734   4.732   1.187  0.0987  0.3483 -0.1257
 7676TIP3    H144519   3.731   4.797   1.117  0.1116 -0.1891 -0.6295
 7676TIP3    H244520   3.828   4.713   1.198  0.2863  2.0903  1.5948
 7677TIP3   OH244521   4.810   1.607  15.892 -0.8410 -0.0048 -0.4340
 7677TIP3    H144522   4.719   1.625  15.869 -1.0285 -1.1025 -0.5911
 7677TIP3    H244523   4.806   1.526  15.943  0.1236 -0.5191 -1.1609
 7678TIP3   OH244524   4.409   5.567   5.479 -0.0345  0.0003 -0.6216
 7678TIP3    H144525   4.458   5.637   5.435 -1.6808  1.3621 -0.3357
 7678TIP3    H244526   4.416   5.493   5.420 -0.5165  1.2164 -2.2619
 7679TIP3   OH244527   0.853   1.159  11.198  0.2992  0.3447 -0.4606
 7679TIP3    H144528   0.865   1.252  11.217 -1.5816  0.8421 -1.6521
 7679TIP3    H244529   0.904   1.115  11.266  0.8206  2.2257  0.4133
 7680TIP3   OH244530   3.418   6.087  16.934 -0.2607  0.8232  0.5102
 7680TIP3    H144531   3.420   6.013  16.874  1.6191  2.9746 -2.2211
 7680TIP3    H244532   3.326   6.113  16.936 -0.2009  1.6013 -2.7200
 7681TIP3   OH244533   1.093   4.261   2.570  0.5984  0.2043 -0.4727
 7681TIP3    H144534   1.144   4.324   2.518  0.9284  0.1215 -0.2510
 7681TIP3    H244535   1.023   4.232   2.511 -0.0305  1.3790 -0.3052
 7682TIP3   OH244536   5.745   4.838  14.580 -0.3316 -0.1500 -0.2938
 7682TIP3    H144537   5.723   4.816  14.671 -0.7620 -1.7915 -0.7793
 7682TIP3    H244538   5.832   4.802  14.567 -0.0489  0.5613 -0.3697
 7683TIP3   OH244539   0.175   1.432   6.113  0.3315  0.4463 -0.1034
 7683TIP3    H144540   0.101   1.424   6.173 -1.1295  1.8245 -1.6522
 7683TIP3    H244541   0.137   1.415   6.027  2.0881 -0.0594 -0.7883
 7684TIP3   OH244542   5.438   1.272  13.170 -0.8323 -0.3662 -0.1516
 7684TIP3    H144543   5.479   1.196  13.130  0.2930  0.5821 -0.8416
 7684TIP3    H244544   5.416   1.329  13.096  2.0448  1.7936  0.5565
 7685TIP3   OH244545   1.379   0.178  15.179  0.4005 -0.0791 -0.6851
 7685TIP3    H144546   1.325   0.155  15.255 -0.1866 -0.9069 -1.3485
 7685TIP3    H244547   1.336   0.136  15.105  1.8211 -0.5253 -1.2669
 7686TIP3   OH244548   6.081   1.355  14.069  0.7432 -0.4372  0.0270
 7686TIP3    H144549   5.990   1.331  14.083  1.1406 -1.5522  0.8319
 7686TIP3    H244550   6.121   1.349  14.156  1.2321  1.6415 -0.0244
 7687TIP3   OH244551   5.767   1.508   6.412  0.7861  0.2658 -0.1638
 7687TIP3    H144552   5.847   1.506   6.464 -0.3942  0.1594  1.6895
 7687TIP3    H244553   5.697   1.491   6.475 -0.8028  1.5273 -1.5416
 7688TIP3   OH244554   3.615   2.853  11.413  0.2430  0.2167  0.8615
 7688TIP3    H144555   3.589   2.945  11.410  0.9552  0.3759 -0.9298
 7688TIP3    H244556   3.663   2.839  11.332  0.6994 -1.5788  1.4206
 7689TIP3   OH244557   6.430   0.156   4.415 -0.0779 -0.0843 -0.0916
 7689TIP3    H144558   6.407   0.159   4.508 -1.3732  0.2602 -0.4120
 7689TIP3    H244559   6.382   0.081   4.381  1.4392 -1.0248 -0.2274
 7690TIP3   OH244560   0.107   3.637  16.198 -0.2187  0.0574  0.1224
 7690TIP3    H144561   0.198   3.654  16.177 -0.3103  0.1603 -0.1965
 7690TIP3    H244562   0.105   3.547  16.231  0.2046  0.5050  1.3961
 7691TIP3   OH244563   0.345   4.513  13.292  0.0072  0.2188 -0.0505
 7691TIP3    H144564   0.258   4.545  13.312 -0.8814 -0.5729 -2.4783
 7691TIP3    H244565   0.348   4.509  13.196  0.8995 -4.4864  0.0597
 7692TIP3   OH244566   1.179   0.379   5.228 -0.4158  0.0556  0.7697
 7692TIP3    H144567   1.182   0.438   5.303  1.7843  0.3416  0.4926
 7692TIP3    H244568   1.093   0.336   5.234 -1.6144  2.4474  1.6038
 7693TIP3   OH244569   0.873   1.743   3.584  0.6365  0.0721  0.2274
 7693TIP3    H144570   0.799   1.799   3.607 -1.3057 -2.4848  0.3593
 7693TIP3    H244571   0.908   1.713   3.668  1.5789  0.9132  0.1513
 7694TIP3   OH244572   6.028   2.979  16.235  0.1209  0.5516  0.0228
 7694TIP3    H144573   5.943   2.936  16.230 -1.3787  3.4714 -0.0426
 7694TIP3    H244574   6.035   3.029  16.154  1.6471  0.7995  0.2912
 7695TIP3   OH244575   4.977   1.681  13.576 -0.4569  0.3734  0.0053
 7695TIP3    H144576   4.926   1.689  13.657 -0.3198  0.2098  0.1075
 7695TIP3    H244577   4.912   1.687  13.506 -0.4998  1.1508  0.1137
 7696TIP3   OH244578   0.572   1.407  13.997 -0.0978  0.0459 -0.0281
 7696TIP3    H144579   0.551   1.436  13.908 -0.1583  0.8182  0.2330
 7696TIP3    H244580   0.636   1.471  14.028  0.7366 -0.8345  0.0958
 7697TIP3   OH244581   0.408   3.464  15.627 -0.1848  0.6163  0.1436
 7697TIP3    H144582   0.313   3.454  15.617 -0.1739  1.6672 -1.2403
 7697TIP3    H244583   0.445   3.402  15.565  0.0039  0.9573 -0.0907
 7698TIP3   OH244584   6.080   2.600   2.591 -0.3276  0.0193 -0.5738
 7698TIP3    H144585   6.057   2.656   2.665  0.8937  1.7259 -1.4519
 7698TIP3    H244586   6.115   2.521   2.631 -0.9530  0.3602  0.6789
 7699TIP3   OH244587   6.654   3.366   1.956  0.2466 -0.1051 -0.5012
 7699TIP3    H144588   6.672   3.303   1.886 -1.4905 -0.1469 -0.9174
 7699TIP3    H244589   6.677   3.451   1.918  0.9527 -0.3028 -0.5239
 7700TIP3   OH244590   0.797   6.737   5.217 -0.1668  0.5029  0.3826
 7700TIP3    H144591   0.775   6.734   5.124 -0.0808  3.3616  0.2259
 7700TIP3    H244592   0.716   6.763   5.260 -0.6539 -2.3652  1.3526
 7701TIP3   OH244593   0.722   6.109  15.216  0.0179 -0.4106  0.3099
 7701TIP3    H144594   0.794   6.171  15.232  1.1682 -1.6626  0.0595
 7701TIP3    H244595   0.659   6.160  15.165  0.4013  0.9139  1.1111
 7702TIP3   OH244596   1.127   6.261  11.400 -0.0377 -0.4429  0.0104
 7702TIP3    H144597   1.172   6.319  11.338 -1.1919  0.2777 -0.1629
 7702TIP3    H244598   1.061   6.216  11.348  2.4731 -3.8770 -0.4304
 7703TIP3   OH244599   3.769   3.633  16.255 -0.5695 -0.2151  0.4464
 7703TIP3    H144600   3.756   3.700  16.188 -2.9722  1.4193  2.4769
 7703TIP3    H244601   3.858   3.601  16.240 -0.0763  2.0678 -1.7623
 7704TIP3   OH244602   4.134   5.954  14.650 -0.2764  0.2244  0.4383
 7704TIP3    H144603   4.054   5.935  14.698 -0.1198  1.2431  1.1191
 7704TIP3    H244604   4.201   5.966  14.718  0.2549  0.2675 -0.0867
 7705TIP3   OH244605   3.922   2.782   2.684 -0.1807  0.0098 -0.1553
 7705TIP3    H144606   3.965   2.697   2.672 -1.2497 -0.2235 -2.6363
 7705TIP3    H244607   3.984   2.846   2.650 -1.4161 -0.2678 -3.0882
 7706TIP3   OH244608   4.487   1.887  13.312 -0.2593 -0.2868  0.4282
 7706TIP3    H144609   4.544   1.816  13.283 -0.4183 -0.1328 -0.2710
 7706TIP3    H244610   4.525   1.916  13.395 -0.1652 -1.1531  0.6926
 7707TIP3   OH244611   1.611   2.368  14.826  0.0193  0.2117  0.2344
 7707TIP3    H144612   1.556   2.333  14.896 -1.3055  1.4463 -0.1832
 7707TIP3    H244613   1.677   2.299  14.812 -2.1627 -1.8702 -0.1491
 7708TIP3   OH244614   4.345   4.359  11.354 -0.6997 -0.2687  0.0189
 7708TIP3    H144615   4.409   4.430  11.347 -0.5628 -0.5340 -1.6335
 7708TIP3    H244616   4.268   4.399  11.393 -1.0123  1.0635 -1.9283
 7709TIP3   OH244617   2.498   5.275  12.654 -0.0153 -0.1608  0.1831
 7709TIP3    H144618   2.526   5.337  12.587 -0.1037 -0.0330  0.2623
 7709TIP3    H244619   2.482   5.330  12.731  1.1270 -0.4436  0.6200
 7710TIP3   OH244620   2.655   6.182  12.963  0.3068 -0.0701 -0.4870
 7710TIP3    H144621   2.650   6.266  12.917 -0.0023  0.8223  1.0936
 7710TIP3    H244622   2.682   6.206  13.052 -1.0664 -1.5140  0.3458
 7711TIP3   OH244623   6.671   6.758  17.053  0.3410 -0.0443  0.5950
 7711TIP3    H144624   6.701   6.822  16.989 -0.7571  0.6324  0.7358
 7711TIP3    H244625   6.585   6.791  17.081  0.4390 -0.7756  1.7909
 7712TIP3   OH244626   4.403   2.894   6.557 -0.6178  0.6013  0.0002
 7712TIP3    H144627   4.493   2.862   6.555 -0.4164  1.1836 -2.9595
 7712TIP3    H244628   4.361   2.846   6.628  1.2758 -1.7424 -0.4343
 7713TIP3   OH244629   2.520   1.716   1.548 -0.5702  0.2667 -0.1262
 7713TIP3    H144630   2.426   1.711   1.566 -0.8407 -0.6423 -1.6941
 7713TIP3    H244631   2.556   1.639   1.591 -0.6012  0.4028  0.1430
 7714TIP3   OH244632   3.051   6.143   2.106  0.2670  0.3054  0.3845
 7714TIP3    H144633   2.974   6.137   2.163  0.4445  1.6393  0.7698
 7714TIP3    H244634   3.122   6.170   2.164  0.3739  2.0093 -0.5163
 7715TIP3   OH244635   3.002   5.361  15.532 -0.2387  0.3284  0.3670
 7715TIP3    H144636   3.074   5.352  15.470  0.9598 -2.2827  2.0604
 7715TIP3    H244637   3.033   5.426  15.595 -0.1150  0.5361  0.0962
 7716TIP3   OH244638   3.267   4.834  12.760 -0.2163 -0.4962 -0.5702
 7716TIP3    H144639   3.218   4.843  12.678 -1.8598  0.9036  0.5194
 7716TIP3    H244640   3.311   4.918  12.770  0.6942 -0.9875 -0.4595
 7717TIP3   OH244641   4.903   2.805   2.489  0.7793 -0.6649 -0.6305
 7717TIP3    H144642   4.914   2.733   2.427  0.8823 -0.6744 -0.6020
 7717TIP3    H244643   4.809   2.822   2.491  0.7766 -0.6687 -0.7847
 7718TIP3   OH244644   3.157   3.801  10.756  0.1674 -0.4482  0.5903
 7718TIP3    H144645   3.252   3.801  10.744  0.2447  3.5404  0.4240
 7718TIP3    H244646   3.121   3.787  10.668  0.7196  3.0161 -0.2983
 7719TIP3   OH244647   0.237   4.653  15.081  0.4540  0.3383  0.2384
 7719TIP3    H144648   0.309   4.705  15.118  0.4960 -0.3144  1.0887
 7719TIP3    H244649   0.170   4.718  15.059  1.2325  0.9330 -0.3995
 7720TIP3   OH244650   3.694   0.111   5.344 -0.0307 -0.0498 -0.1031
 7720TIP3    H144651   3.744   0.119   5.425 -1.1128 -1.7105  0.7518
 7720TIP3    H244652   3.605   0.133   5.369 -0.4316 -0.8920 -0.7695
 7721TIP3   OH244653   0.379   2.383  15.517 -0.1061  0.2588  0.3995
 7721TIP3    H144654   0.358   2.290  15.521  0.5308 -0.0540 -2.2742
 7721TIP3    H244655   0.323   2.424  15.583 -1.1637 -1.8804  0.8526
 7722TIP3   OH244656   5.079   1.800  14.535 -0.1783  0.1395  0.1502
 7722TIP3    H144657   5.045   1.866  14.595 -0.4042  1.0464 -0.9676
 7722TIP3    H244658   5.122   1.736  14.592 -0.5794  0.8725  1.2891
 7723TIP3   OH244659   1.015   0.840  10.901  0.3710  0.2731 -0.2095
 7723TIP3    H144660   1.057   0.845  10.815 -0.1323  0.7227 -0.4294
 7723TIP3    H244661   0.934   0.890  10.891 -0.2612 -0.6716  0.1929
 7724TIP3   OH244662   3.634   6.373  14.610  0.4606 -0.1974 -0.4941
 7724TIP3    H144663   3.562   6.348  14.668  1.4375 -2.1642 -0.0845
 7724TIP3    H244664   3.622   6.467  14.596 -0.3397  0.1524  2.1508
 7725TIP3   OH244665   6.527   5.924  12.624 -0.5186  0.3450 -0.2416
 7725TIP3    H144666   6.502   5.839  12.587 -1.3564  1.0086 -1.2170
 7725TIP3    H244667   6.620   5.933  12.603  0.3305 -1.6303  2.4221
 7726TIP3   OH244668   6.490   4.741  11.099  0.0307 -1.0393  0.0706
 7726TIP3    H144669   6.582   4.714  11.093  0.3316 -0.2116  0.8834
 7726TIP3    H244670   6.448   4.701  11.023  1.7438  1.2586 -2.1444
 7727TIP3   OH244671   5.263   6.609  11.108  0.0337  0.7849  0.1390
 7727TIP3    H144672   5.230   6.661  11.181  0.4471  0.2332  0.7204
 7727TIP3    H244673   5.184   6.578  11.064 -0.2607 -1.0366  1.8946
 7728TIP3   OH244674   6.183   2.695  11.591  0.4029  0.0493  0.0866
 7728TIP3    H144675   6.155   2.738  11.672  0.2240 -0.2665  0.1941
 7728TIP3    H244676   6.154   2.754  11.521  0.4974  0.2892  0.2512
 7729TIP3   OH244677   0.602   0.869  15.539  0.3358 -0.0538  0.4378
 7729TIP3    H144678   0.526   0.845  15.485  1.4900 -1.7182 -0.4579
 7729TIP3    H244679   0.605   0.802  15.607  0.0403  0.9538  1.4590
 7730TIP3   OH244680   2.557   3.253  11.353 -0.5227  0.4684  0.1007
 7730TIP3    H144681   2.519   3.187  11.411  0.1800  0.3939  0.4810
 7730TIP3    H244682   2.510   3.333  11.375  0.4860  0.6823  1.5655
 7731TIP3   OH244683   0.731   6.646  16.224 -0.4657  0.0097 -0.9453
 7731TIP3    H144684   0.715   6.668  16.315 -1.1633 -2.3899 -0.4410
 7731TIP3    H244685   0.644   6.642  16.184 -0.1634  1.0472 -1.7084
 7732TIP3   OH244686   1.864   2.005   1.760  0.2605 -0.3580  0.2202
 7732TIP3    H144687   1.793   1.999   1.824  0.0180 -0.3687 -0.0446
 7732TIP3    H244688   1.863   2.096   1.731  0.7960 -0.1989  0.7121
 7733TIP3   OH244689   4.119   5.441   4.678  0.3942 -0.0648 -0.0944
 7733TIP3    H144690   4.098   5.465   4.588  0.9862 -2.1457 -0.8175
 7733TIP3    H244691   4.180   5.509   4.708 -1.0034  1.4911 -0.7137
 7734TIP3   OH244692   2.682   0.226   5.965 -0.2109 -0.4845 -0.0388
 7734TIP3    H144693   2.712   0.317   5.959 -1.2659  0.1929  3.7458
 7734TIP3    H244694   2.762   0.174   5.956  0.8548  0.9526  0.8992
 7735TIP3   OH244695   0.539   0.577  13.822  0.3248  0.2412 -0.3427
 7735TIP3    H144696   0.506   0.513  13.886  0.8358  0.6851  0.3785
 7735TIP3    H244697   0.508   0.661  13.856 -0.0842  0.4057 -1.1239
 7736TIP3   OH244698   4.903   3.510  12.611  0.0701  0.2713  0.5372
 7736TIP3    H144699   4.904   3.566  12.533 -1.7320 -2.3655 -1.4873
 7736TIP3    H244700   4.995   3.497  12.632  0.6329  0.0141 -1.9371
 7737TIP3   OH244701   6.517   3.614  12.346  0.4747 -0.2088 -0.1051
 7737TIP3    H144702   6.580   3.638  12.413 -1.0667  0.2515  1.2217
 7737TIP3    H244703   6.448   3.680  12.353 -0.6190 -1.2428 -0.8621
 7738TIP3   OH244704   2.432   4.140  13.605 -0.1794  0.0649 -0.6824
 7738TIP3    H144705   2.392   4.059  13.635  0.0881 -0.5568 -1.9427
 7738TIP3    H244706   2.486   4.169  13.678  0.9333 -1.7214 -0.7621
 7739TIP3   OH244707   6.010   4.397   0.613  0.4231 -0.4576 -0.7697
 7739TIP3    H144708   6.057   4.361   0.688  0.2335  0.3035 -0.2728
 7739TIP3    H244709   6.069   4.462   0.576 -0.9653  1.9707  1.0779
 7740TIP3   OH244710   4.434   0.089  15.519 -0.0138  0.2005  0.5249
 7740TIP3    H144711   4.399   0.096  15.430  0.6313  1.7400  0.3689
 7740TIP3    H244712   4.429  -0.004  15.539  1.7344 -0.4860 -1.9185
 7741TIP3   OH244713   4.385   4.663   4.035  0.3264  0.2952 -0.1618
 7741TIP3    H144714   4.357   4.712   3.957  2.5492  0.5220 -0.8691
 7741TIP3    H244715   4.317   4.597   4.048 -1.8301  2.4356 -0.2372
 7742TIP3   OH244716   6.611   0.021  12.765 -0.4103 -0.0152  0.8547
 7742TIP3    H144717   6.700   0.056  12.765 -0.1777 -0.5245 -1.6000
 7742TIP3    H244718   6.581   0.031  12.855  2.2799 -0.2279  1.8089
 7743TIP3   OH244719   1.583   5.612  13.682 -0.3511  0.2426  0.5841
 7743TIP3    H144720   1.615   5.693  13.641 -1.0725  0.3334  0.1809
 7743TIP3    H244721   1.662   5.563  13.704  0.0411 -1.1410 -3.5970
 7744TIP3   OH244722   4.231   6.533  11.557 -0.5611  0.6741 -0.8162
 7744TIP3    H144723   4.184   6.559  11.636  0.5121  2.3057 -0.6688
 7744TIP3    H244724   4.260   6.616  11.518  4.2574 -0.2292  0.4164
 7745TIP3   OH244725   3.460   4.803   4.592 -0.0776 -0.1859 -0.5882
 7745TIP3    H144726   3.540   4.794   4.540 -0.5362 -0.0638 -1.3101
 7745TIP3    H244727   3.397   4.844   4.534 -1.4867 -2.6515 -0.8919
 7746TIP3   OH244728   0.767   3.186   4.000 -0.4815 -0.8042  0.6855
 7746TIP3    H144729   0.852   3.151   4.026  0.6017 -0.2149 -1.9070
 7746TIP3    H244730   0.765   3.274   4.037  0.3783 -0.5338  0.1011
 7747TIP3   OH244731   5.489   6.324   0.747  0.2246  0.0403 -0.5719
 7747TIP3    H144732   5.402   6.331   0.706 -0.1835  1.6357  0.5062
 7747TIP3    H244733   5.486   6.242   0.795 -1.7991  1.4805  1.8971
 7748TIP3   OH244734   3.636   1.693   4.490 -0.3158  0.4248  0.3115
 7748TIP3    H144735   3.664   1.674   4.579  0.6064 -0.3444 -0.1427
 7748TIP3    H244736   3.713   1.679   4.436 -0.9106  0.7231 -0.6357
 7749TIP3   OH244737   2.771   4.772  15.567  0.2975 -0.1133  0.1197
 7749TIP3    H144738   2.727   4.798  15.648  0.8077 -1.2566  0.7824
 7749TIP3    H244739   2.733   4.688  15.544  0.4822 -0.0121 -0.5864
 7750TIP3   OH244740   0.613   2.987   6.400 -0.0086 -0.0178 -0.7486
 7750TIP3    H144741   0.596   3.073   6.361 -1.3543  0.2964  0.4573
 7750TIP3    H244742   0.563   2.988   6.482 -0.8307 -2.3134 -1.1827
 7751TIP3   OH244743   3.936   5.652   0.471  0.1924  0.0550 -0.3487
 7751TIP3    H144744   3.924   5.639   0.377 -0.9953 -1.0798 -0.0502
 7751TIP3    H244745   3.849   5.640   0.508  0.7950 -0.2665  0.9900
 7752TIP3   OH244746   0.971   1.108  12.529 -0.5359 -0.0064  0.3678
 7752TIP3    H144747   0.981   1.062  12.612  0.3659 -0.9109 -0.2302
 7752TIP3    H244748   1.010   1.050  12.464  0.0315  1.3015 -0.4938
 7753TIP3   OH244749   2.656   2.764  12.591  0.0188 -0.1893 -0.3874
 7753TIP3    H144750   2.684   2.700  12.526  1.0159 -0.0682 -0.0956
 7753TIP3    H244751   2.738   2.807  12.618 -0.4133 -0.0772  0.7613
 7754TIP3   OH244752   6.283   1.691   4.814 -0.0143  0.3427 -0.3246
 7754TIP3    H144753   6.371   1.655   4.821 -0.6029 -0.9834  0.5941
 7754TIP3    H244754   6.273   1.714   4.722 -0.1894 -3.4990 -1.3654
 7755TIP3   OH244755   1.564   5.174  12.307  0.2433 -0.1448  0.4394
 7755TIP3    H144756   1.480   5.134  12.288  0.0277  0.6825 -0.3496
 7755TIP3    H244757   1.598   5.123  12.381 -1.3855  0.1313  1.4088
 7756TIP3   OH244758   1.364   5.762  13.564  0.0823 -0.1860  0.2813
 7756TIP3    H144759   1.431   5.695  13.571 -0.6161 -0.8093  1.1154
 7756TIP3    H244760   1.322   5.764  13.650  0.7216  1.9888  0.5824
 7757TIP3   OH244761   6.348   4.274  16.677  0.4673 -0.1843 -0.3842
 7757TIP3    H144762   6.335   4.368  16.685 -2.2649 -0.6587  1.7918
 7757TIP3    H244763   6.291   4.248  16.605  1.4145 -0.1515 -1.1497
 7758TIP3   OH244764   2.512   1.883  17.027 -0.3683  0.0846 -0.3093
 7758TIP3    H144765   2.485   1.848  17.112 -0.7130  1.0118 -0.0335
 7758TIP3    H244766   2.523   1.977  17.042 -1.0876  0.3587 -1.4500
 7759TIP3   OH244767   0.787   2.792   4.938  0.4471  0.3494  0.1416
 7759TIP3    H144768   0.791   2.701   4.906  0.4951  0.1915  0.5956
 7759TIP3    H244769   0.877   2.812   4.963  0.5422  0.7147 -0.4766
 7760TIP3   OH244770   3.812   4.845   5.126  0.6777  0.0571 -0.0206
 7760TIP3    H144771   3.792   4.893   5.206 -1.3255 -0.1476 -0.3667
 7760TIP3    H244772   3.806   4.753   5.152  0.8322 -0.0086 -0.2197
 7761TIP3   OH244773   1.257   6.705   5.729 -0.6334  0.2568 -0.7126
 7761TIP3    H144774   1.339   6.667   5.697 -0.5677  0.6442 -0.9956
 7761TIP3    H244775   1.237   6.775   5.668 -0.9432  0.4536 -0.3849
 7762TIP3   OH244776   6.665   0.328  12.335  0.2172  0.0533  0.1003
 7762TIP3    H144777   6.629   0.303  12.421 -1.0515 -0.2357 -0.4963
 7762TIP3    H244778   6.681   0.422  12.342 -0.2620  0.1056  0.5317
 7763TIP3   OH244779   5.040   2.547  16.771  0.3331  0.1998 -0.0189
 7763TIP3    H144780   5.095   2.577  16.843 -1.0756 -0.0213  1.1753
 7763TIP3    H244781   4.961   2.513  16.814 -0.1412 -0.7595 -1.6169
 7764TIP3   OH244782   2.773   4.398  15.722 -0.5015  0.5801  0.0660
 7764TIP3    H144783   2.861   4.376  15.692 -2.1263 -4.1118 -1.7998
 7764TIP3    H244784   2.733   4.443  15.647 -1.0007 -1.1985 -0.7756
 7765TIP3   OH244785   4.544   5.347  13.905 -0.4800 -0.0246  0.3428
 7765TIP3    H144786   4.465   5.347  13.849 -0.8696 -1.4511  0.8614
 7765TIP3    H244787   4.514   5.311  13.988  0.9148 -1.4739  0.2494
 7766TIP3   OH244788   1.502   6.591  14.655  0.1350 -0.1477  0.1708
 7766TIP3    H144789   1.486   6.656  14.723 -2.0227 -0.0884 -0.3386
 7766TIP3    H244790   1.542   6.518  14.701 -0.7408  0.1257  1.4198
 7767TIP3   OH244791   5.220   2.987   0.979  0.1670  0.6490  0.8111
 7767TIP3    H144792   5.158   3.024   0.917 -1.0032 -1.2200  0.8249
 7767TIP3    H244793   5.172   2.916   1.022  2.2724 -0.8124  0.8590
 7768TIP3   OH244794   0.160   6.389  16.171  0.6300  0.1668  0.0679
 7768TIP3    H144795   0.132   6.478  16.194  2.0061  1.7813 -3.9582
 7768TIP3    H244796   0.219   6.364  16.241 -1.9078  1.2645  2.7225
 7769TIP3   OH244797   1.984   6.815  12.005 -0.8355 -0.6305  0.2247
 7769TIP3    H144798   2.012   6.733  12.046 -2.4182 -1.2040  0.1783
 7769TIP3    H244799   1.889   6.816  12.016 -0.9757  0.5421 -1.0020
 7770TIP3   OH244800   5.083   6.485   3.006 -0.0220  0.1040  0.4001
 7770TIP3    H144801   4.993   6.481   2.973  0.0033  2.0272  0.0249
 7770TIP3    H244802   5.133   6.525   2.935  0.9496 -0.0622  0.9820
 7771TIP3   OH244803   4.536   4.177   2.586 -0.1741 -0.2689  0.2415
 7771TIP3    H144804   4.597   4.105   2.572 -0.7753 -0.4166 -1.6850
 7771TIP3    H244805   4.481   4.148   2.659  0.6996 -1.0026  0.6188
 7772TIP3   OH244806   6.336   0.081   0.418 -0.6431 -0.4874 -0.1324
 7772TIP3    H144807   6.365   0.158   0.368 -1.8800  0.8885  1.2409
 7772TIP3    H244808   6.247   0.065   0.386 -1.1252 -0.1128  1.0118
 7773TIP3   OH244809   3.648   5.921   2.096  0.5688  0.6871 -0.2371
 7773TIP3    H144810   3.671   6.014   2.104  1.5865  0.4090  0.1796
 7773TIP3    H244811   3.729   5.875   2.117 -0.1810 -0.3232  0.4843
 7774TIP3   OH244812   5.000   4.457   3.439 -0.2874 -0.4582 -0.4727
 7774TIP3    H144813   5.069   4.503   3.486 -0.8150  0.3601 -0.4921
 7774TIP3    H244814   5.040   4.373   3.415  1.3132  0.7147 -2.0569
 7775TIP3   OH244815   6.289   0.906  12.415  0.0398  0.7633 -0.0831
 7775TIP3    H144816   6.295   0.961  12.493 -1.9298  1.8768 -0.6881
 7775TIP3    H244817   6.224   0.949  12.360  1.3187 -0.0618 -2.3141
 7776TIP3   OH244818   6.430   3.413   2.123 -0.1968  0.0522  0.2921
 7776TIP3    H144819   6.514   3.400   2.080 -1.3532 -0.7000 -1.8023
 7776TIP3    H244820   6.431   3.504   2.152  1.5669 -0.1288  0.8696
 7777TIP3   OH244821   1.116   6.216  14.927  0.1965  0.3709 -0.5371
 7777TIP3    H144822   1.113   6.121  14.914  0.0097  0.4513 -1.0819
 7777TIP3    H244823   1.078   6.229  15.014 -3.1917  0.2556 -1.9470
 7778TIP3   OH244824   2.819   4.504  16.290 -0.0668 -0.1731  0.9112
 7778TIP3    H144825   2.765   4.433  16.255  0.9137  0.0649 -1.1183
 7778TIP3    H244826   2.795   4.580  16.238  1.0250  0.3263  1.1365
 7779TIP3   OH244827   0.261   4.007   3.493 -0.7332 -0.2159 -0.0910
 7779TIP3    H144828   0.188   4.019   3.433  0.0937  0.0198 -1.0767
 7779TIP3    H244829   0.339   4.013   3.437  0.0210 -0.9131  0.8590
 7780TIP3   OH244830   1.210   1.914  16.985 -0.3928  0.2600  0.0282
 7780TIP3    H144831   1.301   1.899  16.960 -0.4691  1.7222 -1.2080
 7780TIP3    H244832   1.210   1.910  17.081  0.8459 -0.4209  0.0031
 7781TIP3   OH244833   6.304   5.278   3.928 -0.3351 -0.2488 -0.0057
 7781TIP3    H144834   6.230   5.262   3.987  0.6414  1.6355  1.7963
 7781TIP3    H244835   6.379   5.243   3.976  0.4124  0.9695 -0.2813
 7782TIP3   OH244836   2.567   0.256   4.013 -0.1253  0.4419 -0.2433
 7782TIP3    H144837   2.647   0.280   3.968 -1.2821  0.5131 -2.3134
 7782TIP3    H244838   2.515   0.210   3.947 -0.3525 -2.7253  2.0415
 7783TIP3   OH244839   3.647   3.808   4.531  0.5586  0.3930 -0.6094
 7783TIP3    H144840   3.691   3.723   4.531  1.2603  0.7463 -1.9327
 7783TIP3    H244841   3.699   3.863   4.590 -0.1188 -0.1846  0.5608
 7784TIP3   OH244842   2.446   2.067   1.598  0.3886  0.1603 -0.5419
 7784TIP3    H144843   2.477   2.143   1.549 -0.6834  2.5480  2.3669
 7784TIP3    H244844   2.352   2.083   1.610  0.6954 -0.1638  2.5609
 7785TIP3   OH244845   0.809   2.589   2.928 -0.2971 -0.0613 -0.1081
 7785TIP3    H144846   0.896   2.592   2.969 -0.3865  0.3412  0.0513
 7785TIP3    H244847   0.797   2.677   2.892 -1.2739  0.3266  1.1639
 7786TIP3   OH244848   4.627   3.592  13.052  0.4682  0.0091 -0.3297
 7786TIP3    H144849   4.628   3.565  13.144 -1.1032  0.3972 -0.1831
 7786TIP3    H244850   4.701   3.546  13.013  1.4146  0.1627  1.2191
 7787TIP3   OH244851   0.391   4.718   2.259  0.2258 -0.7643 -0.1334
 7787TIP3    H144852   0.372   4.796   2.207 -1.1946 -0.9408  0.1219
 7787TIP3    H244853   0.417   4.652   2.195  2.5523  0.2166 -0.2696
 7788TIP3   OH244854   1.886   5.359  13.462 -0.3809 -0.1452  0.1032
 7788TIP3    H144855   1.831   5.378  13.538 -0.4761 -2.6182  0.6835
 7788TIP3    H244856   1.957   5.304  13.496  0.1998 -0.3516 -1.3895
 7789TIP3   OH244857   1.288   3.233  12.426  0.5223 -0.2210 -0.6861
 7789TIP3    H144858   1.280   3.177  12.503 -1.0090  0.6700 -0.1827
 7789TIP3    H244859   1.306   3.320  12.461 -2.1244  0.5790 -1.2101
 7790TIP3   OH244860   4.112   5.897   5.331  0.3364  0.2453 -0.3019
 7790TIP3    H144861   4.063   5.946   5.397 -1.6307 -0.1952 -1.3933
 7790TIP3    H244862   4.197   5.940   5.327  0.5555  0.1769  2.6272
 7791TIP3   OH244863   4.996   5.652   2.037 -1.0071  0.2004  0.5792
 7791TIP3    H144864   5.045   5.590   1.982 -0.2705  2.7271 -1.7219
 7791TIP3    H244865   5.059   5.679   2.104 -0.7032 -0.0647  0.4046
 7792TIP3   OH244866   4.033   5.081   3.327 -0.0361 -0.6054  0.5414
 7792TIP3    H144867   4.043   5.049   3.417 -1.1556 -0.9928  0.5385
 7792TIP3    H244868   3.939   5.090   3.316  0.1501  0.3741 -0.2766
 7793TIP3   OH244869   1.511   0.451   2.642  0.4259  0.9101 -0.1688
 7793TIP3    H144870   1.442   0.444   2.576  1.1936  0.6460 -0.9549
 7793TIP3    H244871   1.570   0.378   2.623  0.4834  0.6389  1.0173
 7794TIP3   OH244872   3.535   0.958   4.866 -0.3129 -0.1433  0.4970
 7794TIP3    H144873   3.626   0.981   4.887  0.3708 -2.9142  0.8907
 7794TIP3    H244874   3.487   0.973   4.947  0.3347 -1.0856  1.0772
 7795TIP3   OH244875   1.339   6.302   6.306 -0.6820 -0.2699 -0.1347
 7795TIP3    H144876   1.346   6.207   6.312 -0.0269 -0.1385  1.4442
 7795TIP3    H244877   1.253   6.322   6.344 -0.5649 -0.1897  0.0909
 7796TIP3   OH244878   4.426   1.816  11.879  0.5226  0.2973  0.2895
 7796TIP3    H144879   4.409   1.722  11.885 -1.3577  0.7007  1.7838
 7796TIP3    H244880   4.408   1.838  11.788 -1.4889 -0.3564  0.5063
 7797TIP3   OH244881   3.165   4.433   1.544  0.2493  0.1931  0.1439
 7797TIP3    H144882   3.132   4.359   1.493  1.5539 -0.4057  0.1510
 7797TIP3    H244883   3.128   4.421   1.631 -0.2740  0.0593 -0.0937
 7798TIP3   OH244884   1.150   2.717   3.420  0.1876 -0.9596  0.1294
 7798TIP3    H144885   1.216   2.697   3.487 -0.9816 -0.7190  1.3875
 7798TIP3    H244886   1.066   2.705   3.465 -0.6021  1.4215 -0.6156
 7799TIP3   OH244887   3.857   2.505   4.023  0.3581  0.6994  0.3449
 7799TIP3    H144888   3.941   2.467   4.050  0.0883 -0.1661 -0.0135
 7799TIP3    H244889   3.865   2.598   4.044  0.8560  0.3701  1.6744
 7800TIP3   OH244890   1.828   2.808   4.555  0.4459 -0.3199  0.1430
 7800TIP3    H144891   1.840   2.901   4.573  1.0142  0.2366 -2.8187
 7800TIP3    H244892   1.742   2.802   4.514  0.5040 -1.0613  0.1239
 7801TIP3   OH244893   1.504   2.743   0.520  0.1065  0.2888 -0.2337
 7801TIP3    H144894   1.516   2.700   0.436  0.3758 -1.4155  0.6548
 7801TIP3    H244895   1.410   2.757   0.526 -0.0489 -0.7048 -0.2815
 7802TIP3   OH244896   2.913   6.321  11.944 -0.2083  0.1403 -0.0304
 7802TIP3    H144897   2.853   6.325  12.019 -0.7508  2.1415 -0.5368
 7802TIP3    H244898   2.858   6.298  11.870 -0.0794  0.4326 -0.2178
 7803TIP3   OH244899   2.486   4.920   3.397 -0.1081 -0.1363  0.6652
 7803TIP3    H144900   2.545   4.987   3.364  1.8069 -0.6033  3.0440
 7803TIP3    H244901   2.502   4.844   3.341  0.8799  0.0303  0.7225
 7804TIP3   OH244902   5.260   0.625   1.899 -0.0537 -0.3198  0.0428
 7804TIP3    H144903   5.228   0.582   1.979  0.4536 -0.9781 -0.1041
 7804TIP3    H244904   5.241   0.717   1.912 -0.3805 -0.4820  0.7361
 7805TIP3   OH244905   0.725   4.148   2.195  0.9872 -0.6334  0.0667
 7805TIP3    H144906   0.728   4.188   2.282  0.9309 -1.3347  0.3956
 7805TIP3    H244907   0.761   4.060   2.208 -0.7974 -1.4305 -0.2401
 7806TIP3   OH244908   6.197   4.600  13.358  0.0603 -0.1550  0.1772
 7806TIP3    H144909   6.143   4.635  13.428 -0.2362 -1.0627  0.4044
 7806TIP3    H244910   6.287   4.624  13.383 -0.1348  0.4004  0.3512
 7807TIP3   OH244911   2.340   6.528   3.758  0.2393 -0.4957 -0.4147
 7807TIP3    H144912   2.276   6.590   3.723 -0.6832 -0.6538  0.9760
 7807TIP3    H244913   2.388   6.578   3.824  0.8909 -0.6647 -0.7577
 7808TIP3   OH244914   3.134   4.869  13.876  1.0430 -0.0865 -0.4350
 7808TIP3    H144915   3.229   4.859  13.875  1.1478  0.8850 -1.4525
 7808TIP3    H244916   3.111   4.873  13.969  1.5580 -3.9095 -0.0859
 7809TIP3   OH244917   4.581   2.431  13.605  0.3284 -0.0581 -0.1673
 7809TIP3    H144918   4.671   2.441  13.574  0.5735 -0.2359  0.4830
 7809TIP3    H244919   4.582   2.470  13.692 -0.5341  1.1354 -0.6681
 7810TIP3   OH244920   2.334   4.350  12.331  0.4568  0.4294  0.0169
 7810TIP3    H144921   2.356   4.338  12.239 -0.6194 -1.4125 -0.0320
 7810TIP3    H244922   2.243   4.379  12.331  0.6528  1.0586  0.4748
 7811TIP3   OH244923   1.610   5.968  16.908 -0.1982 -0.0135  0.0374
 7811TIP3    H144924   1.618   5.968  17.003  0.2403 -0.2260  0.0012
 7811TIP3    H244925   1.603   6.060  16.884  1.5293  0.1521  0.1172
 7812TIP3   OH244926   2.578   3.533  14.758 -0.1919 -0.7907 -0.3377
 7812TIP3    H144927   2.519   3.601  14.724 -0.4009 -0.7560  0.0923
 7812TIP3    H244928   2.665   3.573  14.753 -0.1978 -0.8663 -1.0320
 7813TIP3   OH244929   5.904   5.243  14.146  0.6340  0.1363  0.2686
 7813TIP3    H144930   5.870   5.205  14.227 -1.8194  0.0687 -0.7776
 7813TIP3    H244931   5.960   5.315  14.175  1.1243 -0.9334  2.0746
 7814TIP3   OH244932   5.223   6.747   4.717  0.0841 -0.2702  0.2658
 7814TIP3    H144933   5.130   6.729   4.710 -0.1632  1.5123 -1.6514
 7814TIP3    H244934   5.231   6.801   4.796 -0.7617  0.9858 -0.4892
 7815TIP3   OH244935   0.356   3.693   3.973 -0.1385  0.0241  0.2337
 7815TIP3    H144936   0.367   3.785   3.994 -2.6464  0.7185 -1.2387
 7815TIP3    H244937   0.397   3.682   3.888 -1.3736  0.2152 -0.4031
 7816TIP3   OH244938   5.917   0.937   1.281 -0.5183 -0.1990 -0.4676
 7816TIP3    H144939   5.825   0.912   1.275 -0.1045 -1.4364 -1.8123
 7816TIP3    H244940   5.940   0.920   1.373 -0.9343 -2.3861 -0.7459
 7817TIP3   OH244941   3.536   2.262  11.062  0.5357 -0.3284 -0.6167
 7817TIP3    H144942   3.575   2.210  11.132 -0.1684 -0.4801 -0.3286
 7817TIP3    H244943   3.443   2.267  11.084  0.5641  0.9316 -0.7194
 7818TIP3   OH244944   4.209   1.864   1.072 -0.3226  0.0630 -0.0339
 7818TIP3    H144945   4.227   1.867   1.166 -0.5056 -2.1096  0.1077
 7818TIP3    H244946   4.123   1.905   1.062 -1.0169 -1.1077  0.9746
 7819TIP3   OH244947   0.746   5.674   4.442 -0.3842 -0.3027 -0.0254
 7819TIP3    H144948   0.653   5.698   4.436 -0.2919  0.2961  0.7646
 7819TIP3    H244949   0.761   5.616   4.368 -0.8228  1.4377 -1.4934
 7820TIP3   OH244950   1.064   6.296   5.310 -0.0481 -0.0299 -0.2642
 7820TIP3    H144951   1.022   6.311   5.395 -1.9836  1.6009 -1.4512
 7820TIP3    H244952   0.997   6.320   5.246  0.6123 -3.3355 -2.2788
 7821TIP3   OH244953   3.358   1.337  11.073 -0.2110 -0.4034  0.2721
 7821TIP3    H144954   3.398   1.253  11.051 -1.4001 -0.8653 -0.1873
 7821TIP3    H244955   3.274   1.336  11.027 -0.5930  0.6931  0.9286
 7822TIP3   OH244956   5.860   3.337   1.075 -0.1133  0.0912  0.1383
 7822TIP3    H144957   5.955   3.344   1.084 -0.1273 -0.8499  0.9437
 7822TIP3    H244958   5.843   3.372   0.987  0.9839  0.1211 -0.0740
 7823TIP3   OH244959   4.388   0.032   3.338  0.0558 -0.5023 -0.0952
 7823TIP3    H144960   4.322   0.081   3.387 -1.0306 -2.2046  0.1822
 7823TIP3    H244961   4.349   0.019   3.252  0.6993 -0.1499 -0.4452
 7824TIP3   OH244962   0.170   4.686   1.980  0.0956 -0.0890 -0.6521
 7824TIP3    H144963   0.264   4.702   1.984  0.0015  0.3938 -0.3487
 7824TIP3    H244964   0.136   4.723   2.061 -0.4052  0.0682 -0.9323
 7825TIP3   OH244965   3.272   3.248   3.214 -0.7690  0.1835  0.7126
 7825TIP3    H144966   3.322   3.203   3.146 -1.5372 -1.0999  0.9780
 7825TIP3    H244967   3.334   3.309   3.253 -0.6254  1.8908 -1.9838
 7826TIP3   OH244968   6.126   0.575  14.826  0.0673 -1.0038  0.3321
 7826TIP3    H144969   6.182   0.542  14.755 -0.1113  1.2956 -0.9218
 7826TIP3    H244970   6.183   0.575  14.903  0.9972 -1.2702 -0.3454
 7827TIP3   OH244971   5.721   6.672  16.126  0.8963 -0.0242 -0.3813
 7827TIP3    H144972   5.693   6.699  16.038  0.0527 -0.4150 -0.2434
 7827TIP3    H244973   5.734   6.577  16.119  0.1670 -0.1658  0.0741
 7828TIP3   OH244974   5.491   5.342   5.556 -0.8485 -0.1249  0.0322
 7828TIP3    H144975   5.575   5.382   5.534 -0.5737 -0.0362  1.2130
 7828TIP3    H244976   5.500   5.318   5.649 -2.3415  0.4172  0.3222
 7829TIP3   OH244977   6.047   4.747  16.343 -0.3358 -0.6097  0.2947
 7829TIP3    H144978   6.060   4.789  16.428 -1.8892  2.1694 -0.7862
 7829TIP3    H244979   6.120   4.686  16.335  0.5664  0.0437  3.0206
 7830TIP3   OH244980   1.725   6.627   1.391 -0.7154  0.3700 -0.4132
 7830TIP3    H144981   1.649   6.644   1.335  0.1258  0.0889 -1.6662
 7830TIP3    H244982   1.714   6.536   1.419  0.3641 -0.4532 -2.5399
 7831TIP3   OH244983   0.922   6.600  15.959  0.1789 -0.6315  0.2384
 7831TIP3    H144984   0.848   6.632  16.010 -0.2179 -1.4194  0.1642
 7831TIP3    H244985   0.952   6.677  15.910  0.5081  0.1080  1.5651
 7832TIP3   OH244986   5.363   6.346   4.959  0.2128 -0.7129 -0.1628
 7832TIP3    H144987   5.358   6.433   4.998 -2.4640 -1.0745  0.3734
 7832TIP3    H244988   5.420   6.297   5.018 -0.9917 -0.2620  1.4200
 7833TIP3   OH244989   3.617   4.403   6.119  0.2752  0.3384  0.2814
 7833TIP3    H144990   3.522   4.405   6.107  0.3444 -0.1673 -0.3554
 7833TIP3    H244991   3.630   4.361   6.204 -0.0562  0.0733  0.2004
 7834TIP3   OH244992   1.073   5.737   4.482  0.4479 -0.0901 -0.3213
 7834TIP3    H144993   0.987   5.777   4.467  1.6035  2.0839 -1.4853
 7834TIP3    H244994   1.121   5.753   4.401  2.3603 -0.1560  0.7647
 7835TIP3   OH244995   1.982   6.413   1.157 -0.5020 -0.3586  0.0953
 7835TIP3    H144996   2.003   6.379   1.070 -1.5046  1.4393 -0.8766
 7835TIP3    H244997   1.896   6.453   1.148 -1.5725 -1.9881  2.4617
 7836TIP3   OH244998   3.758   3.219   3.201 -0.9392  0.3774  0.3370
 7836TIP3    H144999   3.727   3.140   3.156 -1.6132 -0.0963  1.6156
 7836TIP3    H245000   3.825   3.254   3.142 -1.1034 -0.7709 -0.5741
 7837TIP3   OH245001   4.877   4.913   3.252  0.4765  0.2236 -0.1402
 7837TIP3    H145002   4.819   4.962   3.310  0.3248 -0.2165  0.0876
 7837TIP3    H245003   4.823   4.894   3.175 -0.1842 -1.4770  0.6997
 7838TIP3   OH245004   2.727   1.244  15.092 -0.1811  0.3456  0.0851
 7838TIP3    H145005   2.740   1.301  15.168 -2.2062 -0.6143  1.1795
 7838TIP3    H245006   2.758   1.158  15.121 -2.4325 -0.3918  0.4146
 7839TIP3   OH245007   3.667   0.455  15.452  0.1904 -0.4595 -0.6656
 7839TIP3    H145008   3.721   0.389  15.495  0.8358 -0.0338 -0.8117
 7839TIP3    H245009   3.592   0.406  15.418  0.6578 -1.1156 -0.7687
 7840TIP3   OH245010   6.615   2.467   4.310 -0.0771 -0.0521 -0.0316
 7840TIP3    H145011   6.591   2.558   4.292  1.1451  0.2044 -0.4099
 7840TIP3    H245012   6.665   2.472   4.392  0.0271 -0.3762 -0.0753
 7841TIP3   OH245013   2.144   4.544  12.577  0.2253 -0.0390  0.3169
 7841TIP3    H145014   2.174   4.616  12.522  0.3561 -0.1951  0.1850
 7841TIP3    H245015   2.218   4.525  12.634  0.9075 -1.3925 -0.9819
 7842TIP3   OH245016   0.540   2.535   1.365 -0.3323  0.1901  0.0125
 7842TIP3    H145017   0.446   2.548   1.378 -0.1725  1.0435  0.4083
 7842TIP3    H245018   0.580   2.611   1.408  0.5677 -0.4763  0.3606
 7843TIP3   OH245019   3.745   4.225  15.668  0.2651  0.2235 -0.1078
 7843TIP3    H145020   3.774   4.281  15.597 -1.3605  1.9581  0.5662
 7843TIP3    H245021   3.734   4.284  15.743 -0.8192 -1.0911  0.7954
 7844TIP3   OH245022   1.561   1.278   4.991  0.1285  0.1310  0.2901
 7844TIP3    H145023   1.625   1.232   5.046  1.1137  2.1349  0.8700
 7844TIP3    H245024   1.496   1.311   5.054 -0.3483 -0.1167 -0.0741
 7845TIP3   OH245025   5.252   0.854   5.786  0.0353 -0.4071  0.1202
 7845TIP3    H145026   5.332   0.888   5.746  1.2275 -3.7105 -0.4584
 7845TIP3    H245027   5.274   0.765   5.811 -3.1994 -1.0692  0.8068
 7846TIP3   OH245028   2.021   1.417  14.383 -0.5032  0.1333 -0.1177
 7846TIP3    H145029   2.097   1.390  14.434 -0.9262  1.8437  1.4965
 7846TIP3    H245030   1.968   1.338  14.375  0.2676 -0.4950  0.8674
 7847TIP3   OH245031   0.446   2.976   1.691  0.0275 -0.2325 -0.2637
 7847TIP3    H145032   0.490   2.989   1.774 -2.0490  4.3356  0.3086
 7847TIP3    H245033   0.359   2.945   1.714 -0.4081  0.6237 -0.6912
 7848TIP3   OH245034   3.384   2.192  13.878 -0.0091  0.4619  0.3861
 7848TIP3    H145035   3.438   2.153  13.809 -1.7195 -2.0781  0.4077
 7848TIP3    H245036   3.446   2.239  13.933  1.5467  1.5523 -2.2040
 7849TIP3   OH245037   2.392   1.610   4.350 -0.2110 -0.1458 -0.4584
 7849TIP3    H145038   2.311   1.636   4.392 -0.5401 -0.5028 -0.8653
 7849TIP3    H245039   2.461   1.636   4.411 -0.6078  0.5155 -0.2940
 7850TIP3   OH245040   6.442   4.498  14.918 -0.1631  0.1103  0.1019
 7850TIP3    H145041   6.422   4.548  14.998  2.2171  0.6200  0.4063
 7850TIP3    H245042   6.520   4.448  14.940 -1.2871 -2.1519 -0.9162
 7851TIP3   OH245043   0.001   4.085   4.538 -0.2459  0.7469  0.2071
 7851TIP3    H145044  -0.033   4.021   4.601  0.5965  0.7479  0.6713
 7851TIP3    H245045  -0.076   4.132   4.508 -0.7509  0.2262  0.6623
 7852TIP3   OH245046   4.528   3.312  14.077  0.2017 -0.5615  0.3016
 7852TIP3    H145047   4.438   3.299  14.106  0.1683  2.3049  1.6265
 7852TIP3    H245048   4.525   3.298  13.982 -2.0400  1.4294  0.0419
 7853TIP3   OH245049   3.616   2.111  11.270  0.4657 -0.3986  0.2710
 7853TIP3    H145050   3.658   2.030  11.241  1.0464  0.5404 -1.5881
 7853TIP3    H245051   3.677   2.148  11.333  0.6434 -0.9410  0.4217
 7854TIP3   OH245052   0.768   6.080  17.099  0.3417 -0.4214 -0.1014
 7854TIP3    H145053   0.695   6.132  17.065  0.8921  0.6068  0.2555
 7854TIP3    H245054   0.801   6.031  17.024 -0.3017 -0.3934 -0.4024
 7855TIP3   OH245055   0.240   6.403   3.964  0.4109 -0.5505 -0.3737
 7855TIP3    H145056   0.334   6.384   3.954  1.2516  1.7943  2.3918
 7855TIP3    H245057   0.206   6.401   3.875  2.6096 -3.5825 -1.2585
 7856TIP3   OH245058   2.521   6.192   4.854 -0.0482 -0.0477  0.4769
 7856TIP3    H145059   2.551   6.107   4.885 -0.5265 -0.0195  1.0167
 7856TIP3    H245060   2.570   6.256   4.907  0.8214  0.0192 -0.4052
 7857TIP3   OH245061   5.004   3.350  12.997 -0.3419  0.4853  0.4626
 7857TIP3    H145062   5.045   3.345  13.084  2.0755  0.5695 -0.6394
 7857TIP3    H245063   5.035   3.272  12.952  0.1050  1.5129 -1.0294
 7858TIP3   OH245064   2.571   4.858  14.676 -0.1444  0.5195  0.0591
 7858TIP3    H145065   2.482   4.867  14.709 -0.3565 -1.4017  0.0814
 7858TIP3    H245066   2.626   4.871  14.754 -0.4106  1.5414  0.0783
 7859TIP3   OH245067   1.206   1.806   4.080 -0.6491 -0.2791 -0.0557
 7859TIP3    H145068   1.160   1.723   4.094 -2.7158  0.6778 -0.9980
 7859TIP3    H245069   1.213   1.814   3.985  1.6744 -0.4957  0.0808
 7860TIP3   OH245070   0.043   4.006  15.644  0.4549  0.0440  0.5121
 7860TIP3    H145071  -0.017   3.947  15.598  1.9357 -0.4701 -0.7819
 7860TIP3    H245072   0.050   3.969  15.732  1.9018 -2.1448 -0.4776
 7861TIP3   OH245073   6.633   6.449   5.789  0.0937  0.4375  0.6172
 7861TIP3    H145074   6.671   6.385   5.849  0.7802 -0.6603 -0.9477
 7861TIP3    H245075   6.665   6.423   5.703  1.0973  3.4069  0.0404
 7862TIP3   OH245076   5.559   0.275  16.246  0.1009 -0.0291  0.1140
 7862TIP3    H145077   5.627   0.247  16.309 -0.8538 -0.7594  0.8346
 7862TIP3    H245078   5.529   0.359  16.279  0.9675  0.5042 -0.4521
 7863TIP3   OH245079   3.078   3.287   2.993  0.0613  0.5211  0.8159
 7863TIP3    H145080   3.151   3.290   3.056 -0.5220 -1.9735  1.6500
 7863TIP3    H245081   3.035   3.372   3.003  1.4306  1.0955  2.0639
 7864TIP3   OH245082   2.855   3.742  11.315 -0.1957  0.1283 -0.7048
 7864TIP3    H145083   2.890   3.749  11.404 -1.8691 -1.1470  0.0732
 7864TIP3    H245084   2.841   3.832  11.288  2.1476  0.6039 -0.4199
 7865TIP3   OH245085   2.544   1.040  15.404 -0.3651 -0.1420  0.6024
 7865TIP3    H145086   2.617   1.051  15.344  0.4183 -1.4369  1.2892
 7865TIP3    H245087   2.466   1.047  15.349  0.3320 -1.3643 -0.5833
 7866TIP3   OH245088   4.771   1.302  16.683  0.5526  0.1076  0.7235
 7866TIP3    H145089   4.772   1.387  16.728  0.3479  1.6530 -2.0588
 7866TIP3    H245090   4.850   1.303  16.629  1.5210 -2.2997  2.0422
 7867TIP3   OH245091   6.013   6.430  16.595  0.0713  0.4522 -0.2031
 7867TIP3    H145092   6.072   6.372  16.643 -0.1852 -0.5096 -1.0361
 7867TIP3    H245093   6.071   6.495  16.554  0.4272  0.3463  0.1343
 7868TIP3   OH245094   1.938   0.424  16.232  0.8343  0.4841  0.0043
 7868TIP3    H145095   2.013   0.367  16.220 -0.8533 -1.4970 -1.5201
 7868TIP3    H245096   1.910   0.408  16.323  2.0116  0.9602  0.4620
 7869TIP3   OH245097   2.749   1.520   6.251  0.1914  0.1377  0.3067
 7869TIP3    H145098   2.792   1.548   6.170 -1.9716  0.5898 -0.7255
 7869TIP3    H245099   2.801   1.560   6.321  2.7357 -1.1412 -0.7766
 7870TIP3   OH245100   2.975   2.876   4.853  0.2945 -0.1557  0.4025
 7870TIP3    H145101   2.902   2.819   4.877  0.9411 -0.6234  1.2786
 7870TIP3    H245102   3.045   2.854   4.915  0.1325  2.4663  1.5946
 7871TIP3   OH245103   0.131   4.433  12.664 -0.6531 -0.4069 -0.9303
 7871TIP3    H145104   0.103   4.466  12.749 -0.2904  0.9645 -1.3313
 7871TIP3    H245105   0.140   4.339  12.677 -2.0798 -0.4162  0.1276
 7872TIP3   OH245106   3.571   1.152  11.738  0.5561  0.0198  0.0357
 7872TIP3    H145107   3.500   1.210  11.768 -0.9319 -2.1248  0.7941
 7872TIP3    H245108   3.646   1.210  11.728 -1.2416  2.3267 -0.5670
 7873TIP3   OH245109   1.081   1.868   3.452 -0.4019 -0.0384  0.1203
 7873TIP3    H145110   1.020   1.815   3.502  0.0639  0.6325  1.4448
 7873TIP3    H245111   1.033   1.950   3.435 -0.5216 -0.2244 -0.4371
 7874TIP3   OH245112   0.079   4.381  13.654  1.0340 -0.0424 -0.0100
 7874TIP3    H145113   0.090   4.334  13.572 -0.4427  0.6633 -0.6289
 7874TIP3    H245114   0.002   4.340  13.695  0.7499  0.7057  0.2210
 7875TIP3   OH245115   2.988   2.657   5.253  0.0229 -0.1568  0.1352
 7875TIP3    H145116   3.028   2.613   5.328  0.1535  0.0269  0.1721
 7875TIP3    H245117   3.006   2.599   5.179  0.0486 -0.2489  0.2130
 7876TIP3   OH245118   2.222   5.282  12.918 -0.3288  0.3499 -0.2297
 7876TIP3    H145119   2.138   5.287  12.873  0.2277  0.2266 -1.2974
 7876TIP3    H245120   2.275   5.351  12.879  0.0015  0.5671  0.5902
 7877TIP3   OH245121   0.669   2.547  14.468 -0.3593 -0.1170 -0.4757
 7877TIP3    H145122   0.639   2.475  14.525 -0.1931 -0.3168 -0.6402
 7877TIP3    H245123   0.737   2.508  14.414 -1.5131 -0.3145 -1.8226
 7878TIP3   OH245124   4.983   2.224  14.238 -0.6046  0.1828  0.1116
 7878TIP3    H145125   4.917   2.189  14.297 -0.7223  1.4823  0.7732
 7878TIP3    H245126   5.056   2.248  14.295  0.0369 -0.3259 -0.4952
 7879TIP3   OH245127   1.772   1.166   2.397 -0.4705 -0.3865 -0.2584
 7879TIP3    H145128   1.824   1.095   2.361 -1.3319 -0.3684 -1.5504
 7879TIP3    H245129   1.712   1.123   2.458  0.4425 -0.5033  0.5849
 7880TIP3   OH245130   6.511   1.893  11.364  0.2566  0.2768  0.1253
 7880TIP3    H145131   6.498   1.868  11.272  0.7451  1.7427 -0.3576
 7880TIP3    H245132   6.451   1.836  11.413  0.0101 -0.5371 -1.0947
 7881TIP3   OH245133   2.740   5.319  17.179  0.3350 -0.1315  1.0158
 7881TIP3    H145134   2.813   5.267  17.212  0.4879 -0.1567  0.6384
 7881TIP3    H245135   2.674   5.255  17.153 -0.2367 -0.0849  2.3037
 7882TIP3   OH245136   0.943   1.638  16.837  1.0273 -0.2173 -0.4127
 7882TIP3    H145137   0.987   1.610  16.756  1.2331 -1.8250  0.2323
 7882TIP3    H245138   1.012   1.641  16.903  0.5565 -0.5863  0.0979
 7883TIP3   OH245139   1.276   0.328   0.758  0.2264  0.2964  0.2992
 7883TIP3    H145140   1.233   0.263   0.813  2.0552  0.0516  1.4944
 7883TIP3    H245141   1.217   0.340   0.684 -2.5528  1.0725  2.5835
 7884TIP3   OH245142   1.485   0.907   5.911  0.0379  0.3551  0.7096
 7884TIP3    H145143   1.579   0.902   5.895 -0.0168 -0.7219  0.6842
 7884TIP3    H245144   1.458   0.816   5.924 -1.5808  0.2517 -2.7014
 7885TIP3   OH245145   2.040   5.574   5.213  0.2002  0.6683 -0.0772
 7885TIP3    H145146   1.969   5.625   5.253 -0.2632  0.5253 -0.7138
 7885TIP3    H245147   2.037   5.597   5.120  1.3782  1.1183 -0.0118
 7886TIP3   OH245148   1.663   0.979  12.380 -0.2427  0.0627  0.2722
 7886TIP3    H145149   1.665   0.909  12.315  0.1340 -0.1729  0.5357
 7886TIP3    H245150   1.695   1.056  12.333  0.5095 -0.2216  0.3118
 7887TIP3   OH245151   1.132   2.985   1.326  0.0522 -0.1249 -0.1986
 7887TIP3    H145152   1.077   2.998   1.248  1.5938 -0.3299 -1.3557
 7887TIP3    H245153   1.095   2.909   1.369  0.0181 -0.8699 -1.5156
 7888TIP3   OH245154   0.608   5.937  14.055  0.0482  0.4307  0.4307
 7888TIP3    H145155   0.654   5.911  13.976 -0.7345  2.2951 -0.6850
 7888TIP3    H245156   0.617   5.863  14.114  0.0769 -1.2716 -1.6469
 7889TIP3   OH245157   0.001   3.047   1.220  0.2012 -0.0563 -0.3281
 7889TIP3    H145158  -0.003   3.115   1.288  1.5055 -0.6356  0.3453
 7889TIP3    H245159  -0.080   2.997   1.231 -0.8352  1.4723 -0.9237
 7890TIP3   OH245160   6.291   3.322   1.351  0.0652 -0.4525 -0.3363
 7890TIP3    H145161   6.208   3.332   1.303 -1.2877  2.2690  2.4128
 7890TIP3    H245162   6.348   3.389   1.314 -0.0851 -0.1136  0.0463
 7891TIP3   OH245163   1.172   5.340   3.976  0.2735 -0.0063 -0.1262
 7891TIP3    H145164   1.179   5.375   4.065 -0.7381 -2.3860  0.9417
 7891TIP3    H245165   1.079   5.347   3.955  0.3521 -0.3726 -0.6002
 7892TIP3   OH245166   1.968   2.944  12.827 -0.0870 -0.0014 -0.0837
 7892TIP3    H145167   2.018   2.985  12.897 -0.9843  1.6701 -0.3734
 7892TIP3    H245168   1.878   2.974  12.842 -1.2393 -3.7846  1.0576
 7893TIP3   OH245169   4.866   4.774   3.965  0.0882  0.0998 -0.1321
 7893TIP3    H145170   4.792   4.714   3.963  0.9419 -1.0398  1.7440
 7893TIP3    H245171   4.847   4.837   3.895  0.0468 -3.3766 -3.4245
 7894TIP3   OH245172   6.037   0.633   1.646 -0.7170 -0.2314 -0.0116
 7894TIP3    H145173   6.085   0.681   1.578 -1.8168  0.4112 -0.3308
 7894TIP3    H245174   6.054   0.541   1.626  1.3705 -0.0020  0.5817
 7895TIP3   OH245175   3.935   0.980  12.097 -0.0594 -0.1321 -0.4355
 7895TIP3    H145176   3.847   0.959  12.065  0.7292  0.2455 -2.9548
 7895TIP3    H245177   3.983   0.898  12.094 -0.1346 -0.2140  0.3702
 7896TIP3   OH245178   1.315   0.249  12.199 -0.3696  0.0645  0.0257
 7896TIP3    H145179   1.295   0.155  12.201  0.6493 -0.1542  0.1110
 7896TIP3    H245180   1.330   0.268  12.106 -1.4758  0.3393 -0.1002
 7897TIP3   OH245181   4.211   1.790   0.251 -0.1381  0.5487  0.0767
 7897TIP3    H145182   4.264   1.731   0.305 -1.7097 -0.5405  0.4939
 7897TIP3    H245183   4.167   1.847   0.314  0.5768  1.4805 -0.2666
 7898TIP3   OH245184   0.365   2.251   5.931 -0.3939  0.8461  0.1780
 7898TIP3    H145185   0.457   2.276   5.927  0.1144 -1.2009 -2.2794
 7898TIP3    H245186   0.318   2.326   5.898  0.7028  0.5497 -2.1480
 7899TIP3   OH245187   5.276   4.509  10.940  0.5490  0.3093 -0.5147
 7899TIP3    H145188   5.304   4.420  10.962  1.7394  0.6869 -0.4237
 7899TIP3    H245189   5.341   4.539  10.876 -0.7573  0.5513 -1.7596
 7900TIP3   OH245190   3.871   0.430   4.262  0.9302 -0.2379  0.0281
 7900TIP3    H145191   3.787   0.449   4.219  1.7841 -1.8202 -2.4744
 7900TIP3    H245192   3.848   0.369   4.333 -0.0446 -0.8116 -0.7626
 7901TIP3   OH245193   3.726   2.538  12.467  0.2671  0.3139  0.1418
 7901TIP3    H145194   3.779   2.479  12.520  1.2658  0.6536 -0.4687
 7901TIP3    H245195   3.780   2.558  12.391 -2.1033 -2.1600 -2.2976
 7902TIP3   OH245196   1.318   2.862   4.949 -0.0132  0.1132 -0.3045
 7902TIP3    H145197   1.346   2.849   5.040  0.3039 -0.5372 -0.4901
 7902TIP3    H245198   1.337   2.954   4.932  0.7557  0.0273  0.0185
 7903TIP3   OH245199   3.947   5.349   1.757  0.3578  0.5151  0.1191
 7903TIP3    H145200   3.980   5.393   1.835  0.4573  0.5340  0.0655
 7903TIP3    H245201   3.875   5.405   1.727  0.4100  0.5816  0.1173
 7904TIP3   OH245202   2.185   0.761   0.071 -0.1535  0.0154  0.5712
 7904TIP3    H145203   2.231   0.728  -0.006 -0.1814  0.6890  0.2623
 7904TIP3    H245204   2.093   0.741   0.055 -0.5398  2.7488 -0.9343
 7905TIP3   OH245205   3.549   5.648  13.442  0.1365  0.4693 -0.4448
 7905TIP3    H145206   3.558   5.696  13.525  0.9355 -0.7001  0.1569
 7905TIP3    H245207   3.634   5.607  13.429 -0.0161  0.5741 -1.8117
 7906TIP3   OH245208   6.747   3.665   1.345  0.6313 -0.6506 -0.4326
 7906TIP3    H145209   6.717   3.631   1.261 -0.3498 -1.1540  0.1153
 7906TIP3    H245210   6.833   3.704   1.326  1.1600 -2.2243 -1.3363
 7907TIP3   OH245211   2.261   2.050   5.744 -0.5725  0.5172 -0.1053
 7907TIP3    H145212   2.270   2.124   5.803 -0.4890  0.7605 -0.4225
 7907TIP3    H245213   2.348   2.039   5.706 -0.2252 -0.6294  0.9907
 7908TIP3   OH245214   6.096   4.594  16.032  0.3732 -0.2031  0.4852
 7908TIP3    H145215   6.164   4.655  16.059  0.0097 -0.5900  2.3385
 7908TIP3    H245216   6.111   4.516  16.086  0.5165 -1.5820 -1.4687
 7909TIP3   OH245217   5.933   6.693  11.413  0.3248 -0.1282 -0.2341
 7909TIP3    H145218   5.864   6.734  11.361 -1.1111 -0.7973  1.1069
 7909TIP3    H245219   6.013   6.739  11.388 -0.6654  0.8886 -1.5537
 7910TIP3   OH245220   3.646   2.628  10.449  0.5972 -0.7310 -0.1190
 7910TIP3    H145221   3.723   2.664  10.404  0.6198  0.4021  0.7966
 7910TIP3    H245222   3.574   2.645  10.388  0.6432  0.7077  0.1982
 7911TIP3   OH245223   1.188   1.832   1.435  0.1234  0.2723 -0.3093
 7911TIP3    H145224   1.157   1.780   1.510 -0.8789  0.1122 -0.8307
 7911TIP3    H245225   1.110   1.878   1.404  0.5069  0.2367 -1.3390
 7912TIP3   OH245226   5.205   3.290  13.464 -0.3363  0.2339  0.6431
 7912TIP3    H145227   5.182   3.222  13.529  3.2102 -1.6965 -0.0003
 7912TIP3    H245228   5.141   3.278  13.394 -0.7763 -1.3902  1.2894
 7913TIP3   OH245229   4.146   0.177  12.144 -0.1451 -0.2011 -0.2095
 7913TIP3    H145230   4.101   0.093  12.148  1.2005 -0.9621 -0.9614
 7913TIP3    H245231   4.119   0.215  12.061 -1.0114  0.2637  0.2797
 7914TIP3   OH245232   5.932   2.860  13.602  0.1391  0.9448  0.5922
 7914TIP3    H145233   5.951   2.914  13.679  3.5441 -0.3192  0.7289
 7914TIP3    H245234   5.957   2.771  13.629 -0.0874  0.2376 -1.4760
 7915TIP3   OH245235   5.095   4.476  13.810 -0.5522 -0.2761  0.4010
 7915TIP3    H145236   5.083   4.395  13.760  2.8615 -0.5270 -0.1533
 7915TIP3    H245237   5.080   4.546  13.746 -1.9746 -0.4898  0.4950
 7916TIP3   OH245238   4.385   5.531  15.386 -0.1184 -0.2321 -0.1525
 7916TIP3    H145239   4.362   5.598  15.322  2.3682  1.8144  0.9919
 7916TIP3    H245240   4.476   5.507  15.365  0.9180  0.8319  2.8246
 7917TIP3   OH245241   6.239   4.146  16.163 -0.2370 -0.2311 -0.0834
 7917TIP3    H145242   6.188   4.073  16.196  0.7624 -1.3421 -0.9663
 7917TIP3    H245243   6.261   4.122  16.073  1.4354  0.4336  0.1327
 7918TIP3   OH245244   1.129   1.916   4.764  0.0202 -0.7195  0.6751
 7918TIP3    H145245   1.041   1.919   4.726 -0.0331  0.9531  0.8805
 7918TIP3    H245246   1.123   1.971   4.842  0.9744 -1.4661  1.2871
 7919TIP3   OH245247   2.481   0.804  13.447  0.2287 -0.2018  0.1174
 7919TIP3    H145248   2.424   0.765  13.381  0.2958 -1.4685  0.7810
 7919TIP3    H245249   2.502   0.731  13.506  0.9917  0.6792  0.9502
 7920TIP3   OH245250   5.845   3.452   0.822  0.3873  0.7707  0.1228
 7920TIP3    H145251   5.761   3.488   0.851  0.2304  0.7029 -0.2538
 7920TIP3    H245252   5.896   3.529   0.795  0.8199  0.9158  1.3054
 7921TIP3   OH245253   2.017   6.544  15.131 -0.7924  0.4866  0.9331
 7921TIP3    H145254   1.995   6.548  15.038 -3.2392  2.4245  1.5445
 7921TIP3    H245255   2.094   6.601  15.139 -0.8060  0.6252  0.1565
 7922TIP3   OH245256   2.653   1.446  12.501  0.6619 -0.0219  0.2136
 7922TIP3    H145257   2.657   1.528  12.550  1.2008  0.5506 -0.7677
 7922TIP3    H245258   2.723   1.392  12.537  1.4758  0.6451 -0.3664
 7923TIP3   OH245259   1.048   2.106   5.975  0.2442 -0.0909 -0.3407
 7923TIP3    H145260   1.064   2.018   6.010  0.8537  0.4852  0.8592
 7923TIP3    H245261   0.956   2.106   5.950  0.0555 -0.8448  0.3355
 7924TIP3   OH245262   3.256   2.079   4.453 -0.3308  0.1548  0.7784
 7924TIP3    H145263   3.174   2.101   4.409 -1.3510 -0.5155  2.2963
 7924TIP3    H245264   3.259   2.137   4.529  0.9415  0.6373  0.3806
 7925TIP3   OH245265   2.888   1.391  17.024  0.2048  0.0561  0.1106
 7925TIP3    H145266   2.817   1.361  17.081 -1.4487  1.2663 -1.2992
 7925TIP3    H245267   2.960   1.410  17.085 -0.4433 -1.7064  1.5040
 7926TIP3   OH245268   0.693   3.428   5.424 -0.2870 -0.0377  0.5907
 7926TIP3    H145269   0.758   3.370   5.383 -0.0319 -0.8562  2.1215
 7926TIP3    H245270   0.744   3.503   5.453 -0.0851 -0.4900  1.4186
 7927TIP3   OH245271   1.245   2.535   4.984 -0.6737  0.4396 -0.2675
 7927TIP3    H145272   1.217   2.527   5.075  0.7395  2.1723  0.3399
 7927TIP3    H245273   1.275   2.448   4.960 -0.9883 -0.0116  0.9438
 7928TIP3   OH245274   4.194   1.745   0.632  0.1508  0.0701 -0.3334
 7928TIP3    H145275   4.138   1.691   0.576 -0.1012  1.0938 -1.0795
 7928TIP3    H245276   4.134   1.780   0.698  0.3677 -0.7795  0.3260
 7929TIP3   OH245277   1.246   3.330   6.271 -0.5817  0.3514  0.1089
 7929TIP3    H145278   1.193   3.263   6.315 -0.9865  0.6519  0.0835
 7929TIP3    H245279   1.335   3.294   6.271 -0.5207  0.4585  1.4103
 7930TIP3   OH245280   4.492   5.962   2.614 -0.0303  0.1168 -0.3880
 7930TIP3    H145281   4.527   6.012   2.688 -0.8685 -0.1026  0.1694
 7930TIP3    H245282   4.552   5.980   2.542  1.3946 -0.5143  0.6219
 7931TIP3   OH245283   1.200   4.037   0.593 -0.7438 -0.2081  0.0102
 7931TIP3    H145284   1.242   3.979   0.530 -2.2720 -1.7244  0.3202
 7931TIP3    H245285   1.204   3.989   0.676  0.6924  1.4862  0.9388
 7932TIP3   OH245286   4.080   5.493  13.355 -0.6615 -0.5987  0.4522
 7932TIP3    H145287   4.147   5.537  13.407 -1.7884 -0.7961  2.1037
 7932TIP3    H245288   4.069   5.408  13.397 -0.1590 -1.5558 -1.3212
 7933TIP3   OH245289   0.551   2.372  15.815  0.0272 -0.7206  0.1325
 7933TIP3    H145290   0.527   2.280  15.807  1.1395 -0.8508 -2.1365
 7933TIP3    H245291   0.624   2.373  15.877  1.7997 -1.7374 -1.8594
 7934TIP3   OH245292   1.405   5.217  16.858  0.1136 -0.2461  0.2739
 7934TIP3    H145293   1.400   5.181  16.946  0.5748 -1.9066 -0.3721
 7934TIP3    H245294   1.463   5.158  16.810  1.6541  1.8831 -0.5573
 7935TIP3   OH245295   3.858   5.049   6.491  0.0667 -0.4982 -0.1006
 7935TIP3    H145296   3.878   4.970   6.441 -1.2533 -1.9614  1.5750
 7935TIP3    H245297   3.774   5.079   6.456 -0.1389 -0.6823  0.2271
 7936TIP3   OH245298   4.478   3.430   0.390 -0.1381  0.2555  0.1362
 7936TIP3    H145299   4.463   3.393   0.477  0.2077 -0.7767 -0.2473
 7936TIP3    H245300   4.532   3.366   0.344  0.4261  1.2028 -0.5485
 7937TIP3   OH245301   6.054   0.865  11.625  0.3591  0.1521 -0.1980
 7937TIP3    H145302   6.132   0.841  11.576 -0.1556  0.0217 -0.9611
 7937TIP3    H245303   5.986   0.807  11.591 -0.1935  0.6294  0.0879
 7938TIP3   OH245304   6.322   4.867  11.293 -0.4855 -0.2869  0.2968
 7938TIP3    H145305   6.295   4.934  11.231 -1.1578 -1.5958 -0.8673
 7938TIP3    H245306   6.397   4.824  11.252  0.9134  0.7136  1.7194
 7939TIP3   OH245307   0.596   5.480  16.828  0.2926  0.0107  0.5234
 7939TIP3    H145308   0.547   5.412  16.783 -0.2733  0.3034  0.6980
 7939TIP3    H245309   0.625   5.540  16.759 -0.1358  0.1810  0.4954
 7940TIP3   OH245310   3.204   6.544   1.483  0.1818 -0.4506 -0.5758
 7940TIP3    H145311   3.148   6.609   1.441  0.8023  0.6659  0.2886
 7940TIP3    H245312   3.291   6.563   1.449  0.3355 -0.9421 -0.4497
 7941TIP3   OH245313   1.579   1.586  14.202 -0.1045  0.0230 -0.1261
 7941TIP3    H145314   1.504   1.596  14.261  0.2492 -1.7699  0.6781
 7941TIP3    H245315   1.632   1.516  14.243  1.2257  0.2251 -1.4638
 7942TIP3   OH245316   1.910   2.397   0.555 -0.2379 -0.1473  0.1073
 7942TIP3    H145317   1.880   2.473   0.507 -1.4120 -0.3480  0.5038
 7942TIP3    H245318   1.993   2.374   0.514  0.6566  1.9726  0.6718
 7943TIP3   OH245319   0.814   6.220   3.168  0.2492  0.2886  0.3831
 7943TIP3    H145320   0.897   6.266   3.169 -0.0135  0.7754  0.0783
 7943TIP3    H245321   0.748   6.290   3.175 -0.1425 -0.0544  0.1527
 7944TIP3   OH245322   1.775   4.000  15.615 -0.0809 -0.1228 -0.4872
 7944TIP3    H145323   1.818   4.085  15.609 -0.3627 -0.0522 -1.5522
 7944TIP3    H245324   1.847   3.937  15.611  0.1567  0.0564  0.6137
 7945TIP3   OH245325   3.795   0.110  13.477 -0.4122  0.5455 -0.8145
 7945TIP3    H145326   3.819   0.040  13.537  2.4180  0.4587 -1.9783
 7945TIP3    H245327   3.719   0.076  13.430 -0.8134 -0.5795  0.6037
 7946TIP3   OH245328   3.117   1.203  13.565 -0.1907  0.1601 -0.2821
 7946TIP3    H145329   3.111   1.298  13.575 -0.2240 -0.0284  1.7033
 7946TIP3    H245330   3.029   1.176  13.541 -0.2254  0.6020 -0.6659
 7947TIP3   OH245331   1.565   0.076  13.855  0.2254 -0.4085 -0.4569
 7947TIP3    H145332   1.519  -0.001  13.822  0.5438 -0.2642 -1.2288
 7947TIP3    H245333   1.628   0.040  13.918 -1.6101 -0.5301  1.4037
 7948TIP3   OH245334   4.851   6.812  12.026  0.1553  1.0847  0.5878
 7948TIP3    H145335   4.939   6.781  12.004 -0.3344  0.8820 -1.1182
 7948TIP3    H245336   4.846   6.802  12.122  1.2249 -0.9405  0.4630
 7949TIP3   OH245337   1.875   3.026   6.032  0.5080 -0.3869  0.3035
 7949TIP3    H145338   1.789   3.054   6.061  0.9253 -0.0527  1.2406
 7949TIP3    H245339   1.873   3.036   5.937 -0.6792 -0.9417  0.2615
 7950TIP3   OH245340   5.356   2.664  13.543 -0.0646 -0.4714  0.4958
 7950TIP3    H145341   5.316   2.707  13.467 -0.5419 -0.7578  0.5780
 7950TIP3    H245342   5.348   2.728  13.613  0.2774 -0.2483  0.3324
 7951TIP3   OH245343   2.435   0.742  11.399  0.2934  0.4943 -0.0358
 7951TIP3    H145344   2.390   0.826  11.408 -0.1201  0.3872 -1.0459
 7951TIP3    H245345   2.518   0.764  11.356 -0.1651  0.2766 -1.0255
 7952TIP3   OH245346   2.040   2.243  13.019  0.0461  0.0152 -0.8542
 7952TIP3    H145347   2.067   2.324  13.062 -1.3188 -0.0482  0.1841
 7952TIP3    H245348   1.991   2.272  12.942  0.6793  0.1680 -1.1956
 7953TIP3   OH245349   0.554   5.293   5.894  0.3798 -0.0698  0.3999
 7953TIP3    H145350   0.485   5.355   5.872  0.2865 -0.6089 -0.8912
 7953TIP3    H245351   0.555   5.290   5.990  0.1766  1.6646  0.4575
 7954TIP3   OH245352   2.919   0.902  14.031 -0.6439 -0.4216  0.2308
 7954TIP3    H145353   2.985   0.874  13.967 -0.9872 -1.7358  0.4346
 7954TIP3    H245354   2.899   0.992  14.006  2.3130  0.5254  1.0665
 7955TIP3   OH245355   1.019   0.877  11.225 -0.1929 -0.0108  0.1915
 7955TIP3    H145356   0.934   0.846  11.196 -0.9186  0.1410  2.0947
 7955TIP3    H245357   0.999   0.942  11.293  1.4452 -0.4414  1.1040
 7956TIP3   OH245358   6.600   3.939  17.029  0.7544  0.2126  0.5019
 7956TIP3    H145359   6.608   3.915  17.121  1.6211  0.6566  0.5473
 7956TIP3    H245360   6.689   3.933  16.995  0.3835 -0.2502 -0.3795
 7957TIP3   OH245361   3.365   4.526   2.199 -0.3406  0.0230  0.0771
 7957TIP3    H145362   3.328   4.490   2.280  0.4494  2.4857  1.6104
 7957TIP3    H245363   3.329   4.615   2.195  1.3693  0.6698 -1.1248
 7958TIP3   OH245364   4.291   5.221   4.808 -0.2253 -0.1713 -0.2709
 7958TIP3    H145365   4.248   5.181   4.883  0.2964 -0.5281 -0.1634
 7958TIP3    H245366   4.220   5.266   4.761 -0.9156 -1.6855 -0.7031
 7959TIP3   OH245367   2.708   3.175   0.463 -0.0692  0.3513  0.3420
 7959TIP3    H145368   2.671   3.239   0.402 -0.3608  1.9762  2.1818
 7959TIP3    H245369   2.642   3.106   0.469 -1.2856  1.5357  0.9126
 7960TIP3   OH245370   0.851   1.607  13.769 -0.4266  0.3108  0.2205
 7960TIP3    H145371   0.862   1.570  13.682 -0.2934  1.2388 -0.1591
 7960TIP3    H245372   0.849   1.702  13.755 -1.6843  0.4185  1.0890
 7961TIP3   OH245373   0.904   5.950   4.075  0.2774 -0.2017 -0.4393
 7961TIP3    H145374   0.991   5.921   4.047  0.4716 -1.3876  1.3167
 7961TIP3    H245375   0.917   5.983   4.164 -0.7361  1.3448 -0.8567
 7962TIP3   OH245376   6.326   5.743   3.808 -0.2808  0.4065  0.6922
 7962TIP3    H145377   6.251   5.716   3.861 -0.2629  0.4913  0.7609
 7962TIP3    H245378   6.340   5.835   3.831  1.8730 -0.4714  3.1301
 7963TIP3   OH245379   3.357   1.009  15.986  0.1370 -0.0948  0.3310
 7963TIP3    H145380   3.419   0.948  15.945  0.8490  0.8332  0.0160
 7963TIP3    H245381   3.412   1.068  16.038 -0.5534  0.2411  0.6827
 7964TIP3   OH245382   3.298   2.513   5.593  0.7863 -0.2077 -0.2110
 7964TIP3    H145383   3.376   2.548   5.635  0.7503 -0.3605 -0.0171
 7964TIP3    H245384   3.307   2.418   5.601  0.7287 -0.2355 -0.4567
 7965TIP3   OH245385   1.815   5.850   0.467  0.1820 -0.4310  0.2380
 7965TIP3    H145386   1.777   5.901   0.539  2.4455  3.7793 -1.4291
 7965TIP3    H245387   1.762   5.874   0.391  2.1285  0.5626 -0.8299
 7966TIP3   OH245388   4.407   0.449  10.639  0.5110 -0.0206 -0.7498
 7966TIP3    H145389   4.445   0.485  10.558 -0.2285  1.3490 -0.4915
 7966TIP3    H245390   4.407   0.522  10.700  0.8321 -0.9915  0.4310
 7967TIP3   OH245391   6.480   2.181   6.125  0.5004  0.0807 -0.5170
 7967TIP3    H145392   6.504   2.266   6.090 -1.7171  1.4648  1.2220
 7967TIP3    H245393   6.416   2.146   6.064  0.0149  0.4898 -0.2422
 7968TIP3   OH245394   4.986   0.454   0.151  0.6482  0.3038 -0.0112
 7968TIP3    H145395   4.897   0.465   0.118  1.2880 -0.0819 -1.9183
 7968TIP3    H245396   5.023   0.384   0.097  2.4599  1.1942  0.0475
 7969TIP3   OH245397   5.294   4.885  17.069 -0.0639  1.1499 -0.3702
 7969TIP3    H145398   5.279   4.952  17.136  0.0251 -0.5777  1.4353
 7969TIP3    H245399   5.374   4.841  17.096 -0.6477 -0.3241 -0.9989
 7970TIP3   OH245400   0.270   1.869  10.941 -0.1384 -0.1686 -0.3880
 7970TIP3    H145401   0.259   1.936  11.008  1.9964 -0.1432 -0.0266
 7970TIP3    H245402   0.219   1.794  10.973 -1.0221  0.6294  0.1043
 7971TIP3   OH245403   6.274   3.899  16.894  0.1292  0.4871 -0.0566
 7971TIP3    H145404   6.319   3.980  16.915 -0.9524  0.8146  1.0625
 7971TIP3    H245405   6.194   3.901  16.946 -0.0661 -1.1481 -0.2418
 7972TIP3   OH245406   0.231   6.456   2.804  0.5724 -0.4452  0.0268
 7972TIP3    H145407   0.151   6.406   2.788  1.8943 -2.4361 -0.4929
 7972TIP3    H245408   0.271   6.466   2.718  2.4311 -2.1281  0.6618
 7973TIP3   OH245409   0.407   5.622   4.715 -0.2610 -0.3743  0.1456
 7973TIP3    H145410   0.382   5.534   4.740 -0.4818 -0.4184 -0.2348
 7973TIP3    H245411   0.503   5.621   4.715 -0.1849  0.2168  3.1458
 7974TIP3   OH245412   4.809   3.674  16.507  0.5014  0.1293 -0.0964
 7974TIP3    H145413   4.714   3.674  16.502  0.4432 -0.8373  0.7946
 7974TIP3    H245414   4.832   3.762  16.537 -0.2507 -0.3514  1.9650
 7975TIP3   OH245415   5.692   1.731  15.492  0.1106  0.1639  0.0979
 7975TIP3    H145416   5.741   1.811  15.472 -0.2348  0.3474 -0.0130
 7975TIP3    H245417   5.620   1.731  15.429 -1.3276  1.0515  1.7263
 7976TIP3   OH245418   6.535   6.750  11.854  0.1429  0.0429 -0.0913
 7976TIP3    H145419   6.451   6.786  11.882  0.4455  0.4731  0.2850
 7976TIP3    H245420   6.561   6.804  11.780  0.4882  0.4704  0.3297
 7977TIP3   OH245421   2.323   2.540   6.237  0.3080  0.0907  0.3148
 7977TIP3    H145422   2.326   2.555   6.331 -0.8909  1.3529  0.1682
 7977TIP3    H245423   2.355   2.450   6.226  1.4750  0.3080  1.8137
 7978TIP3   OH245424   5.869   5.003  12.990  0.4049  0.3006 -0.3945
 7978TIP3    H145425   5.808   4.980  12.920  0.1776 -0.1343 -0.0517
 7978TIP3    H245426   5.920   5.076  12.953 -1.8679  2.2234  0.1433
 7979TIP3   OH245427   2.775   4.785  14.098 -0.6978 -0.1468 -0.3878
 7979TIP3    H145428   2.708   4.851  14.081 -1.7900 -0.9711  0.6330
 7979TIP3    H245429   2.795   4.795  14.191  0.6317  0.1162 -0.6935
 7980TIP3   OH245430   2.362   6.531   5.568 -0.3771  0.2484 -0.0864
 7980TIP3    H145431   2.360   6.438   5.591 -1.6050 -0.2118 -1.8661
 7980TIP3    H245432   2.450   6.560   5.591  0.6439 -1.8295 -1.1737
 7981TIP3   OH245433   5.868   2.004   3.560  0.6235 -0.5113 -0.5594
 7981TIP3    H145434   5.810   1.927   3.566  0.2503 -0.1004  1.4795
 7981TIP3    H245435   5.814   2.070   3.517  0.2982 -0.8032 -0.6110
 7982TIP3   OH245436   4.454   4.481   5.134 -0.3314 -0.1547 -0.2040
 7982TIP3    H145437   4.419   4.569   5.148 -1.4180 -0.5738 -0.2448
 7982TIP3    H245438   4.472   4.449   5.222 -0.7843 -0.2269 -0.1343
 7983TIP3   OH245439   6.049   5.334  15.661 -0.6869 -0.0299  0.1477
 7983TIP3    H145440   6.005   5.412  15.694  0.7689  0.8594  0.0248
 7983TIP3    H245441   5.980   5.286  15.614 -1.0718  2.4221 -1.9294
 7984TIP3   OH245442   1.902   6.089  11.424 -0.2028 -0.1404 -0.2897
 7984TIP3    H145443   1.898   6.148  11.349  0.6728 -0.9742 -1.0093
 7984TIP3    H245444   1.975   6.030  11.404 -1.2171 -1.6177  0.2929
 7985TIP3   OH245445   3.261   4.881   1.930 -0.6671 -0.5165 -0.1425
 7985TIP3    H145446   3.243   4.793   1.898 -0.5010 -0.4819 -0.3318
 7985TIP3    H245447   3.341   4.907   1.885  0.4353 -1.0755  1.4463
 7986TIP3   OH245448   3.367   0.534   5.181  0.8042  0.1974 -0.7132
 7986TIP3    H145449   3.412   0.517   5.097 -1.6449 -1.1297 -1.7982
 7986TIP3    H245450   3.300   0.598   5.160 -0.4458 -0.8507  0.0284
 7987TIP3   OH245451   3.013   4.509  12.293 -0.0677 -0.0512 -0.1317
 7987TIP3    H145452   2.965   4.507  12.375 -0.5219 -0.4525 -0.4021
 7987TIP3    H245453   3.071   4.585  12.300 -0.3550  0.1159  0.4146
 7988TIP3   OH245454   2.002   6.200  13.189  0.8157  0.0857  0.8476
 7988TIP3    H145455   2.097   6.194  13.179  0.7747  0.7215 -0.0389
 7988TIP3    H245456   1.967   6.172  13.104  0.1884 -0.6612  1.3459
 7989TIP3   OH245457   3.472   5.711  10.989 -0.6000  0.2912 -0.1660
 7989TIP3    H145458   3.458   5.638  10.929 -0.2775  0.9822 -1.0905
 7989TIP3    H245459   3.418   5.689  11.066 -1.3089 -0.4224 -0.8534
 7990TIP3   OH245460   6.440   1.440   1.696 -0.0293  0.2187 -0.2133
 7990TIP3    H145461   6.354   1.462   1.732 -0.9610 -1.9699 -1.0044
 7990TIP3    H245462   6.441   1.344   1.693  3.2054  0.1093  1.5780
 7991TIP3   OH245463   5.210   5.748   2.203 -0.0307  0.1844 -0.3715
 7991TIP3    H145464   5.233   5.818   2.264  1.1428  0.3833 -1.0228
 7991TIP3    H245465   5.173   5.679   2.258 -0.1342  0.8516  0.4086
 7992TIP3   OH245466   1.948   3.536  10.940 -0.1575  0.3567 -0.6405
 7992TIP3    H145467   1.906   3.575  11.017 -1.5929 -0.4508 -0.9925
 7992TIP3    H245468   2.028   3.588  10.928 -0.3693  1.0764  0.8423
 7993TIP3   OH245469   3.241   2.712   2.381  0.1357  0.1325 -0.8767
 7993TIP3    H145470   3.240   2.772   2.307 -1.5956  0.7287 -0.4015
 7993TIP3    H245471   3.297   2.755   2.446  2.4295 -0.8410 -2.1719
 7994TIP3   OH245472   3.269   6.685   6.488  0.2573  0.6238  0.2124
 7994TIP3    H145473   3.275   6.705   6.581  0.8542  2.7856 -0.2637
 7994TIP3    H245474   3.355   6.707   6.452  0.2349 -0.7477 -0.7754
 7995TIP3   OH245475   2.776   1.703  13.444  0.1045  0.7617  0.8931
 7995TIP3    H145476   2.797   1.610  13.446 -0.1796  0.6779  0.1930
 7995TIP3    H245477   2.705   1.713  13.508 -0.7075  0.2721  0.0860
 7996TIP3   OH245478   3.472   3.214  12.503 -0.3512  0.4396 -0.1525
 7996TIP3    H145479   3.433   3.135  12.465  1.3183 -0.0820 -0.8482
 7996TIP3    H245480   3.415   3.286  12.473 -1.5358 -0.4242 -0.0081
 7997TIP3   OH245481   1.438   3.459   4.089 -0.2329  0.4543 -0.2120
 7997TIP3    H145482   1.382   3.531   4.118 -0.8632 -0.3701  0.6604
 7997TIP3    H245483   1.407   3.438   4.001 -1.1833  0.1148  0.2045
 7998TIP3   OH245484   6.202   4.865  15.409  0.3617  0.3474 -0.0425
 7998TIP3    H145485   6.171   4.900  15.493  1.0513 -1.5822  1.0715
 7998TIP3    H245486   6.126   4.820  15.372  0.9133 -1.7122  1.2099
 7999TIP3   OH245487   3.229   6.005   4.805 -0.0940  0.3601 -0.6717
 7999TIP3    H145488   3.135   6.026   4.803  0.4321  3.3718  1.9165
 7999TIP3    H245489   3.240   5.953   4.885  0.4573  0.2504 -0.8175
 8000TIP3   OH245490   5.847   1.890  16.745 -0.0414  0.1633 -0.1469
 8000TIP3    H145491   5.777   1.905  16.681  1.0341 -1.3732 -1.7301
 8000TIP3    H245492   5.860   1.976  16.786 -1.0273  1.1004 -1.7054
 8001TIP3   OH245493   5.752   3.127  16.985  0.0046 -0.2158  0.4866
 8001TIP3    H145494   5.759   3.096  16.895  1.3551 -1.2387  0.9208
 8001TIP3    H245495   5.691   3.066  17.027  1.0245 -1.0347  0.7978
 8002TIP3   OH245496   6.225   1.358  12.437  0.1326 -0.3646 -0.3450
 8002TIP3    H145497   6.132   1.333  12.439 -0.1528  0.5517 -1.4864
 8002TIP3    H245498   6.236   1.402  12.353  2.0631 -2.1796 -1.0928
 8003TIP3   OH245499   5.314   1.640  15.965 -0.2267  0.6804  0.3720
 8003TIP3    H145500   5.282   1.599  16.044  0.4602  0.9817  0.8149
 8003TIP3    H245501   5.395   1.593  15.944 -1.0306 -0.1868 -0.8253
 8004TIP3   OH245502   4.048   6.364   3.911 -0.6022  0.0901 -0.4640
 8004TIP3    H145503   3.958   6.393   3.895 -0.5590  0.5108  0.0335
 8004TIP3    H245504   4.093   6.381   3.828 -0.7993  0.6088 -0.4702
 8005TIP3   OH245505   1.465   1.317   1.625 -0.0373  0.2630  0.3725
 8005TIP3    H145506   1.459   1.376   1.700  1.1204  1.2877 -0.3182
 8005TIP3    H245507   1.507   1.238   1.660 -1.5667 -0.1643  1.2904
 8006TIP3   OH245508   0.754   5.429  15.715  0.0130 -0.3927  0.5815
 8006TIP3    H145509   0.671   5.448  15.758 -0.4449 -1.3828  0.1494
 8006TIP3    H245510   0.800   5.371  15.777 -0.8500 -2.2159 -0.4320
 8007TIP3   OH245511   4.154   0.934  11.708 -0.1806 -0.0450 -0.0672
 8007TIP3    H145512   4.172   0.969  11.621 -0.2314  0.8837  0.2951
 8007TIP3    H245513   4.227   0.964  11.762 -1.5158  1.6804  0.8344
 8008TIP3   OH245514   6.278   5.124  14.099  0.2919 -0.4135  0.1979
 8008TIP3    H145515   6.342   5.106  14.030 -0.0594 -0.4034 -0.1340
 8008TIP3    H245516   6.330   5.153  14.173  0.4686  4.1743 -1.5102
 8009TIP3   OH245517   1.615   5.733  15.187 -1.0759 -0.2205  0.0851
 8009TIP3    H145518   1.534   5.780  15.206 -0.1652  1.7985 -0.8254
 8009TIP3    H245519   1.685   5.794  15.211  0.1581 -1.0673 -1.2187
 8010TIP3   OH245520   0.192   5.671  13.254 -0.4900  0.0220  0.0378
 8010TIP3    H145521   0.258   5.652  13.187 -1.7495 -0.5328 -1.0605
 8010TIP3    H245522   0.227   5.630  13.334  0.6198 -0.0306 -0.4642
 8011TIP3   OH245523   3.568   2.567  14.535  0.2939 -0.4375 -0.4675
 8011TIP3    H145524   3.639   2.531  14.483  0.2198 -0.6658 -0.4122
 8011TIP3    H245525   3.590   2.544  14.625 -1.5031 -3.4393 -0.7205
 8012TIP3   OH245526   5.478   1.741  14.682  0.5519  0.1370 -0.3083
 8012TIP3    H145527   5.553   1.685  14.659 -0.2072 -1.2017  0.4310
 8012TIP3    H245528   5.518   1.818  14.723  1.5102 -0.7656  0.4769
 8013TIP3   OH245529   4.817   1.671  13.812 -0.0357 -0.0947  0.3265
 8013TIP3    H145530   4.755   1.598  13.818 -0.3372  0.2019  0.7392
 8013TIP3    H245531   4.807   1.719  13.893 -0.2907  0.7802 -0.2178
 8014TIP3   OH245532   2.481   6.732   1.667 -0.4284  0.1046  0.0768
 8014TIP3    H145533   2.431   6.756   1.590  1.0136  1.8683 -0.3445
 8014TIP3    H245534   2.470   6.805   1.727 -0.0507 -0.4299  0.8011
 8015TIP3   OH245535   2.723   5.290  13.919  0.5384  0.1720 -0.0055
 8015TIP3    H145536   2.771   5.364  13.880  0.6652  0.0192 -0.1368
 8015TIP3    H245537   2.718   5.225  13.849 -1.5578  0.9438 -0.6303
 8016TIP3   OH245538   4.687   4.345  12.979 -0.4408 -0.1702  0.0704
 8016TIP3    H145539   4.651   4.368  12.894 -0.0953 -2.2518 -0.6750
 8016TIP3    H245540   4.771   4.391  12.984  0.5934 -1.8231 -1.6919
 8017TIP3   OH245541   6.606   2.618   2.084 -0.4234  0.4123  0.4577
 8017TIP3    H145542   6.586   2.601   1.992  1.9048  1.3237 -0.2591
 8017TIP3    H245543   6.553   2.695   2.107 -0.6908  0.4295 -0.2221
 8018TIP3   OH245544   6.204   0.909  12.947  0.1299  0.4100  0.3259
 8018TIP3    H145545   6.297   0.900  12.965  0.1821  2.1069  0.9876
 8018TIP3    H245546   6.161   0.894  13.032 -0.2713 -1.3779 -0.1826
 8019TIP3   OH245547   0.759   2.031  11.889 -0.7513 -0.0049  0.0826
 8019TIP3    H145548   0.679   2.058  11.843  0.4770  4.2834  0.3427
 8019TIP3    H245549   0.827   2.033  11.822 -0.3043 -1.0182  0.4892
 8020TIP3   OH245550   0.882   6.366   3.735 -0.4342  0.1944  0.6794
 8020TIP3    H145551   0.816   6.347   3.668 -0.3584 -0.0826  0.6801
 8020TIP3    H245552   0.956   6.402   3.687 -0.5863  0.5035  0.6780
 8021TIP3   OH245553   3.529   6.026  17.199 -0.1160  0.0382 -0.1012
 8021TIP3    H145554   3.459   6.040  17.135  1.2078  0.4103 -1.5064
 8021TIP3    H245555   3.604   6.075  17.163  1.2953 -1.5701  0.6139
 8022TIP3   OH245556   3.614   5.693  14.022  0.2384  0.3674  0.0181
 8022TIP3    H145557   3.592   5.657  13.936  0.4504  0.1450  0.0569
 8022TIP3    H245558   3.709   5.703  14.022  0.1477  1.2611 -0.1150
 8023TIP3   OH245559   0.826   0.915  12.017 -0.3123 -0.4604  0.2469
 8023TIP3    H145560   0.865   0.904  11.930 -0.0660 -1.0650  0.4276
 8023TIP3    H245561   0.803   1.007  12.022  0.1827 -0.3067 -0.2530
 8024TIP3   OH245562   5.868   5.884   3.600 -0.5449  0.0444 -0.0233
 8024TIP3    H145563   5.795   5.890   3.538 -0.3318  0.8341 -0.2014
 8024TIP3    H245564   5.944   5.914   3.551  0.0222 -1.3367 -0.0131
 8025TIP3   OH245565   6.158   2.911   6.982 -0.2284 -0.0341  0.6294
 8025TIP3    H145566   6.103   2.989   6.981  0.3600  0.3930  1.3643
 8025TIP3    H245567   6.211   2.918   6.903 -0.0157  0.4257  0.8112
 8026TIP3   OH245568   2.891   0.813   3.319  0.3602 -0.1190  0.2543
 8026TIP3    H145569   2.879   0.894   3.271 -0.2687 -1.0387 -1.1749
 8026TIP3    H245570   2.847   0.827   3.402 -2.1950  0.0401 -1.0758
 8027TIP3   OH245571   5.760   5.030  13.833 -0.2101 -0.4597  0.0545
 8027TIP3    H145572   5.756   5.062  13.923  1.4899 -1.0371  0.3680
 8027TIP3    H245573   5.812   4.950  13.839 -1.1323 -1.1724 -1.2747
 8028TIP3   OH245574   0.496   5.579   3.869 -0.3727  0.5002 -0.5675
 8028TIP3    H145575   0.549   5.569   3.949 -2.3332  1.6947  0.9160
 8028TIP3    H245576   0.510   5.670   3.843 -0.5551  0.4002 -1.0095
 8029TIP3   OH245577   0.945   5.436   0.545 -0.1885 -0.3520 -0.1807
 8029TIP3    H145578   0.855   5.453   0.570  0.1490  0.5859  0.4203
 8029TIP3    H245579   0.981   5.522   0.524  0.3695 -0.7997 -1.0768
 8030TIP3   OH245580   2.627   3.331  12.624  0.1533  0.0733 -0.2341
 8030TIP3    H145581   2.601   3.270  12.693 -1.0717  3.1377  2.1676
 8030TIP3    H245582   2.545   3.371  12.595  0.9644  0.8566 -1.4980
 8031TIP3   OH245583   5.507   1.403   3.977  0.5589 -0.2941 -0.0933
 8031TIP3    H145584   5.552   1.484   3.999  0.9716 -0.5263 -0.0603
 8031TIP3    H245585   5.550   1.337   4.031  0.2112 -0.5275 -0.1038
 8032TIP3   OH245586   5.706   2.878   2.698  0.0160 -0.5986  0.3372
 8032TIP3    H145587   5.664   2.802   2.737 -1.6059 -0.3068 -0.7885
 8032TIP3    H245588   5.742   2.846   2.615  0.3616 -0.4065  0.4106
 8033TIP3   OH245589   3.035   0.743   1.584  0.3492 -0.1981 -0.5800
 8033TIP3    H145590   3.080   0.659   1.577  0.7249 -0.0791  0.3362
 8033TIP3    H245591   3.067   0.794   1.510  1.0268 -0.4390 -0.4519
 8034TIP3   OH245592   1.473   3.440  14.307  0.1926  0.7758 -0.7056
 8034TIP3    H145593   1.515   3.522  14.280 -0.2549  2.3484  3.0049
 8034TIP3    H245594   1.383   3.448  14.275  0.3089  1.4891 -0.8719
 8035TIP3   OH245595   0.017   0.638  15.259  0.0821  0.4173  0.2757
 8035TIP3    H145596   0.055   0.598  15.181 -0.3561  1.7030 -0.6380
 8035TIP3    H245597  -0.042   0.705  15.224 -0.3892  0.7700  1.7154
 8036TIP3   OH245598   5.546   0.537  13.006 -1.0630  0.3934  0.5529
 8036TIP3    H145599   5.451   0.525  12.998 -0.9457 -1.9467  2.2668
 8036TIP3    H245600   5.583   0.462  12.959 -0.0693  0.5835  1.0310
 8037TIP3   OH245601   2.869   3.127  17.175  0.6325 -0.0070  0.2884
 8037TIP3    H145602   2.914   3.194  17.226 -0.1954  1.5686 -0.9839
 8037TIP3    H245603   2.905   3.136  17.087 -2.5659  1.7776 -0.9313
 8038TIP3   OH245604   6.005   5.419   2.013  0.0431 -0.6987 -0.1628
 8038TIP3    H145605   5.977   5.508   1.994  1.4416 -0.0405  0.7587
 8038TIP3    H245606   5.930   5.365   1.991 -1.5537  0.9107  1.1575
 8039TIP3   OH245607   0.200   4.533   4.521 -0.1891 -0.0770 -0.3690
 8039TIP3    H145608   0.271   4.530   4.585 -1.6864  0.4879  1.3538
 8039TIP3    H245609   0.205   4.449   4.476  0.9798 -0.4174  0.3584
 8040TIP3   OH245610   5.248   0.175  12.762  0.2705 -0.2343  0.5732
 8040TIP3    H145611   5.325   0.173  12.705 -0.6249  2.2141 -0.8163
 8040TIP3    H245612   5.280   0.208  12.846  1.0233 -0.8217  0.5194
 8041TIP3   OH245613   6.713   2.005   3.252  0.0649 -0.0721  0.0269
 8041TIP3    H145614   6.764   2.056   3.189  1.5002 -1.2886  0.1685
 8041TIP3    H245615   6.623   2.032   3.237  0.8217  2.9005  0.4822
 8042TIP3   OH245616   3.580   5.181  12.354  0.3191  0.5655 -0.2584
 8042TIP3    H145617   3.587   5.100  12.305  2.5878  0.1842  0.6599
 8042TIP3    H245618   3.649   5.176  12.420  0.7872  3.4459 -0.4659
 8043TIP3   OH245619   3.768   4.526  11.609 -0.1220 -0.1178 -0.7016
 8043TIP3    H145620   3.855   4.557  11.637 -0.7439  0.4894  0.5976
 8043TIP3    H245621   3.721   4.509  11.691 -1.0418 -0.9955 -1.4008
 8044TIP3   OH245622   4.048   0.192   5.403 -0.2439  0.0238 -0.0281
 8044TIP3    H145623   3.994   0.154   5.472 -1.2585 -0.1773 -0.9011
 8044TIP3    H245624   4.033   0.286   5.409  1.3417  0.1915  1.3817
 8045TIP3   OH245625   6.756   5.575  13.760 -0.3125  0.2119  0.1225
 8045TIP3    H145626   6.814   5.625  13.703 -0.2988 -0.9869 -0.9316
 8045TIP3    H245627   6.668   5.608  13.740 -0.3232 -0.3157 -0.7056
 8046TIP3   OH245628   6.020   4.243  14.922  0.2882 -0.2190 -0.1190
 8046TIP3    H145629   6.012   4.156  14.884  0.3808 -0.0804 -0.4566
 8046TIP3    H245630   6.050   4.227  15.012 -2.7075 -0.7040  0.8521
 8047TIP3   OH245631   4.258   0.091  13.715  0.3465 -0.7610 -0.4534
 8047TIP3    H145632   4.275  -0.002  13.731 -1.4822 -1.3483 -1.8036
 8047TIP3    H245633   4.179   0.110  13.766 -0.0159 -0.2646 -1.1979
 8048TIP3   OH245634   0.803   3.101   1.624 -0.5467  0.0273 -0.2726
 8048TIP3    H145635   0.897   3.119   1.618 -0.6589  0.2339 -1.7629
 8048TIP3    H245636   0.787   3.090   1.717  1.0046 -0.2709 -0.0164
 8049TIP3   OH245637   3.834   2.332   0.135 -0.3208 -0.0982 -0.3493
 8049TIP3    H145638   3.840   2.395   0.207  0.1816  1.0505 -1.3757
 8049TIP3    H245639   3.796   2.382   0.063  1.4835 -0.5542 -1.6469
 8050TIP3   OH245640   1.785   0.267   5.861 -0.7354  0.3286 -0.3700
 8050TIP3    H145641   1.750   0.351   5.831 -1.4868  0.0172 -0.3768
 8050TIP3    H245642   1.839   0.236   5.789 -1.9405 -0.0692 -1.1027
 8051TIP3   OH245643   6.506   0.774   1.553  0.9070  0.1231  0.2392
 8051TIP3    H145644   6.411   0.777   1.541  0.9329 -1.2811 -0.4351
 8051TIP3    H245645   6.518   0.788   1.647  0.0668  0.7839  0.2595
 8052TIP3   OH245646   1.007   2.348   0.347  0.3819 -0.1692  0.3798
 8052TIP3    H145647   1.085   2.312   0.390  1.0931  2.2694  1.2177
 8052TIP3    H245648   0.934   2.302   0.389  1.3376 -2.7963 -0.7176
 8053TIP3   OH245649   6.387   3.637   3.684 -0.0226 -0.3155 -0.0401
 8053TIP3    H145650   6.467   3.587   3.697  0.1221 -0.2443 -0.6533
 8053TIP3    H245651   6.414   3.713   3.631 -0.6683 -0.7924 -1.0643
 8054TIP3   OH245652   0.165   0.531  16.527 -0.4981  0.1892 -0.2992
 8054TIP3    H145653   0.109   0.605  16.501 -0.2461  0.0679 -1.1867
 8054TIP3    H245654   0.253   0.558  16.502 -0.3049 -0.0926  0.0821
 8055TIP3   OH245655   1.760   1.542  11.688 -0.4405  0.0907  0.1788
 8055TIP3    H145656   1.781   1.495  11.768 -1.0661 -2.9889 -1.3605
 8055TIP3    H245657   1.694   1.607  11.714  0.0320 -0.2623  2.3002
 8056TIP3   OH245658   3.336   4.650   5.419 -0.1731 -0.5119 -0.2577
 8056TIP3    H145659   3.252   4.686   5.444  0.5535  0.2371  1.1330
 8056TIP3    H245660   3.363   4.701   5.343  0.2562  1.0168  0.9180
 8057TIP3   OH245661   5.148   0.207  11.974  0.6224  0.1891 -0.5086
 8057TIP3    H145662   5.105   0.127  11.944 -0.0513  0.6301 -0.7357
 8057TIP3    H245663   5.237   0.180  11.995 -0.0255 -0.9251  0.8658
 8058TIP3   OH245664   1.520   0.307   3.488 -0.3307  0.0150  0.0325
 8058TIP3    H145665   1.597   0.298   3.432 -1.5214 -1.4612 -1.4002
 8058TIP3    H245666   1.549   0.364   3.560  1.7248  0.4719 -1.1326
 8059TIP3   OH245667   3.190   3.428   4.386  0.1228  1.0916 -0.5949
 8059TIP3    H145668   3.097   3.444   4.372 -0.1748 -1.2275 -1.5175
 8059TIP3    H245669   3.223   3.403   4.300  1.6469  2.0954 -0.3075
 8060TIP3   OH245670   2.574   4.430   2.812  0.0948  0.4944 -0.0089
 8060TIP3    H145671   2.489   4.419   2.769 -0.1076  0.1817  0.4632
 8060TIP3    H245672   2.560   4.398   2.901  0.6014  0.8222  0.1912
 8061TIP3   OH245673   2.708   4.151   3.117  0.0413 -0.5220  0.5900
 8061TIP3    H145674   2.674   4.092   3.050 -1.6540  0.5335  0.4934
 8061TIP3    H245675   2.802   4.156   3.099 -0.5712  0.7102 -2.5002
 8062TIP3   OH245676   6.815   5.863   0.671  0.2599  0.1780 -0.2505
 8062TIP3    H145677   6.893   5.911   0.640  0.1380  1.0880  0.8144
 8062TIP3    H245678   6.815   5.783   0.620  1.3770  0.6003 -0.9461
 8063TIP3   OH245679   1.970   1.637   5.474 -0.0817 -0.3013 -0.1897
 8063TIP3    H145680   2.020   1.572   5.425  0.8263  0.4535 -0.2755
 8063TIP3    H245681   1.899   1.587   5.515  0.3040 -1.2547 -0.6728
 8064TIP3   OH245682   0.067   4.609  16.882 -0.2877 -0.4462 -0.2302
 8064TIP3    H145683   0.126   4.611  16.807 -0.3292 -0.5186 -0.2646
 8064TIP3    H245684   0.125   4.615  16.958 -0.1698 -1.5218 -0.2328
 8065TIP3   OH245685   6.746   4.191   2.323  0.1017  0.2660 -0.0870
 8065TIP3    H145686   6.716   4.247   2.395 -0.4785 -0.2170  0.0490
 8065TIP3    H245687   6.819   4.240   2.284  0.8118  0.2519  1.2005
 8066TIP3   OH245688   0.882   4.568   1.130 -0.6230 -0.0664 -0.4714
 8066TIP3    H145689   0.964   4.615   1.122 -0.8872  0.6973  1.1823
 8066TIP3    H245690   0.853   4.555   1.039  1.7231 -1.1072 -1.1118
 8067TIP3   OH245691   5.934   2.577   0.954 -0.2114 -0.3139 -0.8448
 8067TIP3    H145692   5.840   2.566   0.969 -0.0128  0.4578  1.0620
 8067TIP3    H245693   5.974   2.497   0.986 -0.0981 -0.0701 -0.3714
 8068TIP3   OH245694   0.175   2.014   0.054  0.1859  0.3764  0.0402
 8068TIP3    H145695   0.080   2.000   0.059 -0.0583  2.5794  2.0026
 8068TIP3    H245696   0.200   1.973  -0.029 -2.1429 -1.9958  0.4110
 8069TIP3   OH245697   4.217   4.799  15.197 -0.4511  0.1977  0.2137
 8069TIP3    H145698   4.305   4.809  15.235 -0.0250  0.7798 -0.9152
 8069TIP3    H245699   4.161   4.855  15.250  0.4300  2.2496 -0.9654
 8070TIP3   OH245700   2.441   2.671  12.993  0.2192  0.1573 -0.1154
 8070TIP3    H145701   2.353   2.645  12.966  0.3131  0.4890 -0.7596
 8070TIP3    H245702   2.440   2.767  12.990  0.7478  0.1519 -0.6210
 8071TIP3   OH245703   4.976   4.417  14.576  0.4434  0.4763  0.4027
 8071TIP3    H145704   4.969   4.497  14.523  1.3142  0.9147  0.9343
 8071TIP3    H245705   4.910   4.427  14.644 -0.8974 -0.2339 -0.7821
 8072TIP3   OH245706   5.393   5.955   1.400 -0.4721 -0.2695 -0.0402
 8072TIP3    H145707   5.325   5.907   1.352 -0.5517  0.2377 -0.4455
 8072TIP3    H245708   5.444   5.999   1.332 -0.8040  0.7427  0.3429
 8073TIP3   OH245709   2.058   2.077  15.345 -0.7739 -0.3544  0.4285
 8073TIP3    H145710   1.999   2.070  15.420  1.1444  0.9062  2.1038
 8073TIP3    H245711   2.025   2.152  15.295 -0.8585  0.0649  1.1097
 8074TIP3   OH245712   2.014   4.324  12.650  0.1161  0.2550 -0.1510
 8074TIP3    H145713   1.997   4.346  12.742  2.0941 -0.2012  0.3381
 8074TIP3    H245714   2.060   4.400  12.615 -1.8741  1.0392 -1.1960
 8075TIP3   OH245715   0.462   4.385  16.513  0.3647 -0.3362  0.3230
 8075TIP3    H145716   0.433   4.295  16.497 -0.0471 -0.2126  0.3640
 8075TIP3    H245717   0.496   4.383  16.603 -0.1143 -0.3319  0.5038
 8076TIP3   OH245718   3.442   3.162   5.188  0.0611  0.1044  0.1572
 8076TIP3    H145719   3.375   3.228   5.208 -0.4182 -0.4150  0.2787
 8076TIP3    H245720   3.394   3.092   5.144  0.8528  0.5819 -1.5193
 8077TIP3   OH245721   0.354   3.814  11.272  0.6571  0.0642  0.3407
 8077TIP3    H145722   0.272   3.853  11.303  1.1638  1.4259  0.0380
 8077TIP3    H245723   0.360   3.730  11.317 -1.0512 -0.1753  0.1354
 8078TIP3   OH245724   4.528   4.029  14.970  0.3520 -0.0508  0.4841
 8078TIP3    H145725   4.623   4.038  14.984  0.5630 -0.8950 -0.3171
 8078TIP3    H245726   4.521   3.994  14.881 -0.6134 -2.3818  1.4397
 8079TIP3   OH245727   3.288   3.429   6.591  0.0749 -0.1232 -0.2350
 8079TIP3    H145728   3.261   3.337   6.598  0.3657 -0.2134 -0.2931
 8079TIP3    H245729   3.377   3.425   6.557 -0.0209  0.1912 -0.5276
 8080TIP3   OH245730   0.177   5.464  13.865 -0.1331 -0.2543 -0.6800
 8080TIP3    H145731   0.220   5.549  13.875  0.6219 -0.6141 -0.8305
 8080TIP3    H245732   0.098   5.483  13.814  0.3206  0.2635 -1.1915
 8081TIP3   OH245733   3.371   1.642   0.146 -0.1837 -0.3093 -0.0094
 8081TIP3    H145734   3.395   1.550   0.157  1.7310  0.3244  1.5948
 8081TIP3    H245735   3.410   1.668   0.063  1.5141 -0.3037  0.7644
 8082TIP3   OH245736   4.332   6.561  12.735 -0.3132  0.5293  0.2917
 8082TIP3    H145737   4.405   6.617  12.763  0.8082 -0.1910 -1.0885
 8082TIP3    H245738   4.314   6.506  12.811  3.4217 -2.1821 -0.6061
 8083TIP3   OH245739   0.060   3.631  15.609  0.2065  0.3494  0.5533
 8083TIP3    H145740   0.100   3.622  15.523  0.2907  2.4278  0.3372
 8083TIP3    H245741  -0.015   3.688  15.595 -0.5175 -0.3260  1.6332
 8084TIP3   OH245742   4.238   3.475   2.779  0.4598  0.1779  0.9107
 8084TIP3    H145743   4.297   3.550   2.775 -0.5059  0.8873 -1.1022
 8084TIP3    H245744   4.151   3.512   2.764  0.1757 -1.5369 -2.2305
 8085TIP3   OH245745   3.774   2.624   1.083 -0.6860 -0.3713 -0.4173
 8085TIP3    H145746   3.791   2.579   1.001  0.6547 -0.1003 -0.3055
 8085TIP3    H245747   3.802   2.715   1.067 -0.3418 -0.3330  0.3421
 8086TIP3   OH245748   6.256   0.411  16.198 -0.2800 -0.0127  0.1734
 8086TIP3    H145749   6.276   0.398  16.106  1.6918  0.3655  0.5175
 8086TIP3    H245750   6.247   0.323  16.234 -0.7468 -0.1627 -0.3082
 8087TIP3   OH245751   6.279   0.246   6.120  0.3792 -0.1890  0.2974
 8087TIP3    H145752   6.242   0.199   6.194 -2.1013  1.2285  0.0022
 8087TIP3    H245753   6.374   0.230   6.126 -0.3013 -4.9381  0.3607
 8088TIP3   OH245754   3.849   4.095  12.241 -0.6705 -0.0307 -0.1863
 8088TIP3    H145755   3.889   4.132  12.162  1.2545 -0.9649  0.3246
 8088TIP3    H245756   3.819   4.171  12.291  0.5018  0.6943 -0.5743
 8089TIP3   OH245757   1.401   4.920  15.960  0.1413 -0.6935 -0.5229
 8089TIP3    H145758   1.489   4.955  15.946  0.1973 -1.2338 -1.5974
 8089TIP3    H245759   1.376   4.951  16.047  0.6478  1.0219 -0.9621
 8090TIP3   OH245760   1.164   5.955   4.291 -0.0427  0.4086  0.8717
 8090TIP3    H145761   1.072   5.977   4.296 -0.2715 -0.4572  0.5471
 8090TIP3    H245762   1.204   6.025   4.239 -0.3893  1.1459  1.5887
 8091TIP3   OH245763   2.002   1.324   3.272  0.0039  0.8338 -0.9290
 8091TIP3    H145764   1.952   1.244   3.255  0.2111  0.1856  1.3061
 8091TIP3    H245765   2.014   1.363   3.186 -0.4907 -1.3083 -2.0201
 8092TIP3   OH245766   3.668   4.108   0.367  0.6277 -0.5370 -0.2547
 8092TIP3    H145767   3.758   4.105   0.398  0.3140 -1.4020  0.5728
 8092TIP3    H245768   3.632   4.022   0.387 -0.4349 -0.1445 -0.4246
 8093TIP3   OH245769   3.451   0.734  16.151  0.2190 -0.0423  0.1621
 8093TIP3    H145770   3.482   0.799  16.087  0.9089 -1.8373 -1.3928
 8093TIP3    H245771   3.531   0.693  16.184 -0.2566 -1.0118  0.1284
 8094TIP3   OH245772   2.500   4.393  15.931  0.2150  0.1799  0.5384
 8094TIP3    H145773   2.406   4.383  15.945  0.0567  0.2663 -0.4349
 8094TIP3    H245774   2.508   4.431  15.843  1.0339  3.3890  1.9317
 8095TIP3   OH245775   3.818   3.041  15.855  0.5003 -0.0461  0.1916
 8095TIP3    H145776   3.815   2.985  15.778 -0.1380 -0.5469  0.5770
 8095TIP3    H245777   3.727   3.064  15.872  0.7246  0.7962  0.2636
 8096TIP3   OH245778   3.968   0.906  16.578  0.3244  0.5774  0.3829
 8096TIP3    H145779   3.885   0.923  16.534  0.6128  1.2055  0.0685
 8096TIP3    H245780   3.945   0.852  16.653 -0.3308  0.5085  0.1327
 8097TIP3   OH245781   4.113   1.839  12.829 -0.3334 -0.5183  0.2499
 8097TIP3    H145782   4.134   1.762  12.882 -1.0072 -1.3085 -0.6036
 8097TIP3    H245783   4.194   1.861  12.784 -0.1957 -0.8814  0.3170
 8098TIP3   OH245784   0.064   3.895  17.279 -0.0813 -0.5608 -0.3135
 8098TIP3    H145785   0.118   3.972  17.264 -0.8858 -0.2071 -1.4611
 8098TIP3    H245786   0.127   3.825  17.295  0.6925  0.0677 -0.5493
 8099TIP3   OH245787   5.519   4.426   0.254  0.1363 -0.1211 -0.3432
 8099TIP3    H145788   5.518   4.401   0.346 -0.3262  0.7349 -0.1074
 8099TIP3    H245789   5.611   4.437   0.232  0.2219  0.1524  0.1533
 8100TIP3   OH245790   1.331   3.408   3.829 -0.1971 -0.4606 -0.4530
 8100TIP3    H145791   1.349   3.420   3.736  0.6422 -0.2030 -0.2637
 8100TIP3    H245792   1.236   3.417   3.836  0.0587  3.3208 -0.7584
 8101TIP3   OH245793   3.788   6.750   2.794 -0.1045 -0.4724  0.1293
 8101TIP3    H145794   3.703   6.733   2.835  0.7526 -0.7075  1.8151
 8101TIP3    H245795   3.766   6.775   2.704 -2.0541  0.8531  0.9323
 8102TIP3   OH245796   2.913   1.046  13.464 -0.1352  0.5451  0.2680
 8102TIP3    H145797   2.857   1.022  13.391 -0.8375  0.7800  0.7203
 8102TIP3    H245798   2.854   1.089  13.526  0.5587  0.8519  0.7229
 8103TIP3   OH245799   5.037   3.204  16.042  0.1318 -0.0296 -0.3594
 8103TIP3    H145800   4.989   3.287  16.042  1.2761  0.6669  1.1811
 8103TIP3    H245801   4.996   3.153  16.113  0.4080 -0.1760 -0.3044
 8104TIP3   OH245802   1.122   1.142   0.970 -0.2933  0.3470 -0.2170
 8104TIP3    H145803   1.058   1.213   0.966 -3.2478 -2.1244  1.5001
 8104TIP3    H245804   1.190   1.168   0.907 -1.2013  4.7072  0.4408
 8105TIP3   OH245805   6.391   0.504   4.627 -0.0222  0.8907 -0.1765
 8105TIP3    H145806   6.368   0.480   4.717 -0.6796 -0.2604 -0.6402
 8105TIP3    H245807   6.487   0.504   4.626 -0.0020  1.8671  0.7636
 8106TIP3   OH245808   2.057   6.127  14.806  0.2509 -0.3870  0.1781
 8106TIP3    H145809   2.073   6.180  14.728 -0.1672  2.2187  1.8058
 8106TIP3    H245810   2.144   6.105  14.838  0.4786  1.2656  0.7467
 8107TIP3   OH245811   6.537   4.716  12.147 -0.0312  0.2248  0.4783
 8107TIP3    H145812   6.526   4.768  12.067  0.3323 -0.1081  0.2077
 8107TIP3    H245813   6.449   4.704  12.181 -0.3311 -0.7791 -0.6096
 8108TIP3   OH245814   1.222   5.349  16.699  0.0459  0.1681  0.4406
 8108TIP3    H145815   1.223   5.441  16.727 -0.0274 -0.3083  2.1109
 8108TIP3    H245816   1.279   5.305  16.762 -0.8279 -1.1136  0.3511
 8109TIP3   OH245817   2.162   6.065  10.447  0.0107 -0.2848  0.2251
 8109TIP3    H145818   2.235   6.099  10.395 -0.3584 -0.1899 -0.2437
 8109TIP3    H245819   2.102   6.029  10.382  0.7637 -2.5657  0.7775
 8110TIP3   OH245820   0.505   5.901   1.531 -0.3555 -0.3165  0.0670
 8110TIP3    H145821   0.443   5.827   1.527  1.6105 -1.9813 -0.3324
 8110TIP3    H245822   0.516   5.918   1.624 -1.5442  0.1204  0.1384
 8111TIP3   OH245823   3.151   5.159   2.575 -0.4017 -0.2745 -0.2797
 8111TIP3    H145824   3.073   5.107   2.591 -0.2216 -0.4527  0.0190
 8111TIP3    H245825   3.118   5.246   2.554 -0.6868 -0.4004 -0.3500
 8112TIP3   OH245826   3.462   4.006   5.096 -0.6888  0.3981  0.4315
 8112TIP3    H145827   3.491   4.033   5.183 -1.7171 -2.5895  1.7849
 8112TIP3    H245828   3.447   3.911   5.105 -1.3811  0.1646 -2.8362
 8113TIP3   OH245829   4.925   5.978  16.497  0.3357 -0.7381 -0.0031
 8113TIP3    H145830   4.892   5.897  16.535  0.5605 -0.8237  0.0143
 8113TIP3    H245831   5.002   6.000  16.551 -0.2905  0.0045  0.6127
 8114TIP3   OH245832   5.437   3.513   5.526 -0.5855 -0.4233 -0.1183
 8114TIP3    H145833   5.344   3.497   5.540 -0.5454  0.2102  0.9176
 8114TIP3    H245834   5.441   3.570   5.449 -0.9613 -1.7088 -1.1021
 8115TIP3   OH245835   6.661   2.293  13.288 -0.1121  0.4915  0.1549
 8115TIP3    H145836   6.599   2.282  13.360 -1.8462  0.1751 -1.3423
 8115TIP3    H245837   6.747   2.285  13.329 -1.0718 -1.0008  1.9802
 8116TIP3   OH245838   0.184   3.370  10.898 -0.2979  0.6098  0.1665
 8116TIP3    H145839   0.137   3.404  10.975  0.9335  1.4703  0.5574
 8116TIP3    H245840   0.190   3.276  10.914 -3.3347  0.2178 -0.7000
 8117TIP3   OH245841   6.803   0.001   1.659  0.6100 -0.3544 -0.4372
 8117TIP3    H145842   6.745   0.038   1.726  0.0046 -0.3290 -0.9665
 8117TIP3    H245843   6.866   0.070   1.641 -1.5742  1.1753 -2.7039
 8118TIP3   OH245844   5.243   3.818  14.209 -0.5539  0.1668  0.3364
 8118TIP3    H145845   5.216   3.899  14.164  2.1504  1.2915  0.6246
 8118TIP3    H245846   5.289   3.849  14.287  0.0345 -1.6830  0.7345
 8119TIP3   OH245847   4.738   6.121   3.770 -0.1902  0.2096 -0.1016
 8119TIP3    H145848   4.816   6.175   3.755 -0.6467  0.8685 -0.0804
 8119TIP3    H245849   4.670   6.161   3.716 -0.5774 -0.2488  0.0431
 8120TIP3   OH245850   2.117   4.688  14.420 -0.4072  0.1060  0.1350
 8120TIP3    H145851   2.171   4.734  14.355  1.8332 -0.1639  1.7245
 8120TIP3    H245852   2.094   4.755  14.484  0.9947 -0.4805  1.2825
 8121TIP3   OH245853   6.357   2.371   4.084 -0.3841 -0.2443  0.7063
 8121TIP3    H145854   6.353   2.308   4.157 -0.8608 -1.6279 -0.4853
 8121TIP3    H245855   6.305   2.445   4.114 -1.6770 -1.3545  1.2526
 8122TIP3   OH245856   5.802   4.545   1.535  0.1225  0.5680  0.3552
 8122TIP3    H145857   5.708   4.550   1.519 -0.0473 -1.1090  0.7322
 8122TIP3    H245858   5.835   4.487   1.466  0.9458  1.4390  0.0018
 8123TIP3   OH245859   0.013   4.293   6.336 -0.4734  0.1482  0.1453
 8123TIP3    H145860   0.016   4.197   6.336  1.5769  0.1836 -0.0625
 8123TIP3    H245861   0.075   4.318   6.267  0.6424  1.6419  1.6602
 8124TIP3   OH245862   5.920   3.953  17.282  0.6069  0.1679  0.3974
 8124TIP3    H145863   5.825   3.946  17.291  0.6458  0.8510  1.3572
 8124TIP3    H245864   5.954   3.874  17.325  0.5391  0.6287  1.2916
 8125TIP3   OH245865   1.961   0.745   2.532  0.8413 -0.0620 -0.8036
 8125TIP3    H145866   2.003   0.808   2.591  0.5582  0.4548 -1.1549
 8125TIP3    H245867   1.894   0.702   2.586  1.1124 -0.1496 -0.5334
 8126TIP3   OH245868   3.724   3.630  15.609 -0.1465 -0.5417  0.1149
 8126TIP3    H145869   3.727   3.539  15.638 -1.4370 -0.3235  1.0019
 8126TIP3    H245870   3.696   3.679  15.687  0.1370  0.5694 -0.4601
 8127TIP3   OH245871   2.569   2.226   1.189 -0.5171 -0.0080  0.0636
 8127TIP3    H145872   2.563   2.154   1.126 -0.3811  0.6924 -0.7681
 8127TIP3    H245873   2.516   2.296   1.150  2.6217  1.7809 -1.1897
 8128TIP3   OH245874   1.690   4.374  15.543  0.1114  0.2136  0.5946
 8128TIP3    H145875   1.630   4.385  15.616 -0.3704 -0.3856  0.2920
 8128TIP3    H245876   1.693   4.460  15.500 -0.3743  0.2950  0.7268
 8129TIP3   OH245877   4.880   2.480  11.000 -0.0349  0.2949 -0.8691
 8129TIP3    H145878   4.870   2.392  11.038  1.2672  1.1987  1.7119
 8129TIP3    H245879   4.801   2.527  11.026  0.1886  0.4746 -0.5055
 8130TIP3   OH245880   5.870   1.173   4.707 -0.5579 -0.1025 -0.1371
 8130TIP3    H145881   5.889   1.174   4.801 -0.9789  0.7287 -0.0550
 8130TIP3    H245882   5.787   1.221   4.699  0.7380  2.0650 -1.2009
 8131TIP3   OH245883   3.531   3.760   2.044 -0.2099 -0.5291 -0.0388
 8131TIP3    H145884   3.563   3.761   2.135  1.0754 -0.7898 -0.4860
 8131TIP3    H245885   3.607   3.735   1.992 -0.1298  2.5591 -1.5051
 8132TIP3   OH245886   3.999   5.854  13.746  0.0941  0.0474  0.4610
 8132TIP3    H145887   4.083   5.845  13.790  1.5366 -0.5183 -2.2656
 8132TIP3    H245888   3.962   5.766  13.747  0.8463 -0.3028 -0.7492
 8133TIP3   OH245889   5.490   2.527   0.161 -0.0641  0.3877  0.8693
 8133TIP3    H145890   5.574   2.490   0.188 -0.8440 -1.4051  0.9045
 8133TIP3    H245891   5.470   2.483   0.079 -0.5717  1.4402  0.4249
 8134TIP3   OH245892   0.199   1.374  15.331 -0.0588 -0.1548  0.1022
 8134TIP3    H145893   0.216   1.324  15.251  1.2125  0.3612  0.0495
 8134TIP3    H245894   0.134   1.440  15.304 -0.3237 -0.5683 -0.2780
 8135TIP3   OH245895   6.804   0.258  11.711 -0.2460  0.1834 -0.0913
 8135TIP3    H145896   6.768   0.320  11.774  2.0380 -0.6712  2.1464
 8135TIP3    H245897   6.824   0.310  11.633 -0.8091  1.7407  0.7886
 8136TIP3   OH245898   4.232   3.633   4.469 -0.3819  0.1392 -0.0947
 8136TIP3    H145899   4.140   3.612   4.486  0.5057 -2.6418  1.6610
 8136TIP3    H245900   4.245   3.718   4.510 -2.2067  0.6619 -0.5339
 8137TIP3   OH245901   0.789   6.121  16.435  0.3215  0.2684  0.1721
 8137TIP3    H145902   0.814   6.176  16.360 -2.3616 -1.6150 -2.1889
 8137TIP3    H245903   0.732   6.177  16.488  2.7002  1.8030  1.2280
 8138TIP3   OH245904   3.345   4.445   3.157  0.3225  0.1654  0.3579
 8138TIP3    H145905   3.417   4.506   3.142  1.0224 -0.7932 -0.2593
 8138TIP3    H245906   3.383   4.376   3.213 -0.7330  0.8046  1.9041
 8139TIP3   OH245907   2.287   5.563  12.867  0.4901 -0.8604  0.2245
 8139TIP3    H145908   2.356   5.597  12.810 -0.2085 -1.4774 -1.0051
 8139TIP3    H245909   2.292   5.617  12.946 -1.1165  2.6827 -1.9668
 8140TIP3   OH245910   0.848   1.834   4.235  0.0674 -0.2611  0.4250
 8140TIP3    H145911   0.890   1.865   4.316  1.3947 -2.0147  0.4364
 8140TIP3    H245912   0.818   1.746   4.256 -1.5145  0.0559 -0.3619
 8141TIP3   OH245913   6.182   5.250   1.899  0.6218  0.3290  0.0683
 8141TIP3    H145914   6.135   5.180   1.946  0.3313  0.5041  0.0394
 8141TIP3    H245915   6.132   5.329   1.918  1.8414  0.8070  1.3873
 8142TIP3   OH245916   5.419   3.236  13.008 -0.3458  0.4127  0.1188
 8142TIP3    H145917   5.467   3.302  13.057 -0.8753  0.1794  0.9684
 8142TIP3    H245918   5.470   3.223  12.928  0.7632  0.4875  0.8010
 8143TIP3   OH245919   1.787   3.839  14.230  0.0416  0.1393  0.8315
 8143TIP3    H145920   1.792   3.925  14.190 -2.3619 -0.7432 -1.5396
 8143TIP3    H245921   1.732   3.851  14.307  1.7103  1.1503  1.8982
 8144TIP3   OH245922   4.158   1.458   3.266  0.3870 -0.4728 -0.5772
 8144TIP3    H145923   4.108   1.516   3.207  0.7651  1.7490  1.1985
 8144TIP3    H245924   4.091   1.411   3.315  0.0543  0.2295 -0.3524
 8145TIP3   OH245925   0.085   4.099  14.633 -0.3815 -0.3834  0.2431
 8145TIP3    H145926   0.061   4.156  14.707  1.4172  0.1791  0.4283
 8145TIP3    H245927   0.051   4.144  14.556 -2.6966 -1.2149  0.7526
 8146TIP3   OH245928   0.894   2.805  14.107 -0.0100 -0.6748  0.5492
 8146TIP3    H145929   0.933   2.726  14.069  0.9225  0.1844 -0.2967
 8146TIP3    H245930   0.832   2.836  14.040  2.1060  1.2058 -0.5989
 8147TIP3   OH245931   6.411   6.771  14.757 -0.3435 -0.6572 -0.2064
 8147TIP3    H145932   6.500   6.739  14.770 -0.0125  0.1658 -0.4070
 8147TIP3    H245933   6.400   6.840  14.823  0.2097  1.2847 -2.0601
 8148TIP3   OH245934   4.384   1.828   1.735  0.0687 -0.0827  0.5453
 8148TIP3    H145935   4.364   1.916   1.703 -1.4216 -0.2251  1.0395
 8148TIP3    H245936   4.410   1.840   1.826 -0.0776 -0.1448  0.5957
 8149TIP3   OH245937   6.312   4.779   4.530  0.4555 -0.0983  0.4561
 8149TIP3    H145938   6.344   4.735   4.608 -2.7595 -1.7835  0.8989
 8149TIP3    H245939   6.329   4.872   4.546  0.5001 -0.4857  2.7972
 8150TIP3   OH245940   0.530   1.311  13.032  0.2055  0.2281  0.5208
 8150TIP3    H145941   0.609   1.259  13.044 -0.1159 -0.3414  0.2252
 8150TIP3    H245942   0.508   1.300  12.939  1.0006  2.1572  0.0924
 8151TIP3   OH245943   1.297   1.993  13.745  0.1393  0.3362 -0.0361
 8151TIP3    H145944   1.325   2.043  13.822 -0.7406 -0.3139  0.7245
 8151TIP3    H245945   1.335   2.040  13.671  1.5187  0.6231  0.8300
 8152TIP3   OH245946   6.771   1.822   5.528  1.0316  0.2679 -0.0957
 8152TIP3    H145947   6.787   1.916   5.516 -0.2230  0.4498 -0.4084
 8152TIP3    H245948   6.739   1.815   5.618  2.6360 -0.0741  0.4702
 8153TIP3   OH245949   5.441   1.695  15.093  0.0890 -0.2336  0.4226
 8153TIP3    H145950   5.401   1.634  15.155  2.2866 -1.1754  0.9854
 8153TIP3    H245951   5.530   1.709  15.127  0.5524  1.0814 -1.2413
 8154TIP3   OH245952   6.643   5.668   5.141  0.3631 -0.3537 -0.6789
 8154TIP3    H145953   6.667   5.738   5.081 -1.2484  0.5361 -0.3097
 8154TIP3    H245954   6.559   5.635   5.108 -0.8351  0.5275  1.3642
 8155TIP3   OH245955   5.378   5.235  10.579  0.3212  0.4276 -0.3637
 8155TIP3    H145956   5.308   5.246  10.643  1.4301 -0.2708  1.0156
 8155TIP3    H245957   5.361   5.150  10.539  0.8378 -0.1515  0.6043
 8156TIP3   OH245958   2.438   4.078  15.989  0.2211  0.2293  0.1521
 8156TIP3    H145959   2.415   4.134  15.914 -1.2429 -2.6294 -1.6103
 8156TIP3    H245960   2.358   4.076  16.042  1.0828  1.8093  1.5448
 8157TIP3   OH245961   2.208   4.454  11.870 -0.3496  0.3676  0.2943
 8157TIP3    H145962   2.170   4.533  11.907 -0.3965  1.0455 -1.1561
 8157TIP3    H245963   2.247   4.483  11.787  0.0531 -1.0304 -0.0157
 8158TIP3   OH245964   1.044   0.583   0.099 -0.0587 -0.7037  0.5500
 8158TIP3    H145965   1.088   0.656   0.055  2.1439 -1.8263  0.8033
 8158TIP3    H245966   0.994   0.541   0.029 -0.6361  0.5168  0.2127
 8159TIP3   OH245967   1.344   4.886  12.004 -0.3760 -0.3437  0.1732
 8159TIP3    H145968   1.301   4.931  11.930  1.8939 -0.4874 -1.2745
 8159TIP3    H245969   1.381   4.807  11.965 -1.4241 -1.7832  2.0354
 8160TIP3   OH245970   3.549   6.330  12.156 -0.0310 -0.6312 -0.0861
 8160TIP3    H145971   3.640   6.354  12.137 -0.8440  2.3952 -0.4803
 8160TIP3    H245972   3.510   6.314  12.070 -0.2530 -0.4025 -0.0301
 8161TIP3   OH245973   2.440   4.611   6.754  0.5056  0.4123 -0.1975
 8161TIP3    H145974   2.422   4.539   6.815  0.5650  0.3860 -0.2107
 8161TIP3    H245975   2.404   4.580   6.671  0.2772  0.5155 -0.1386
 8162TIP3   OH245976   3.590   2.633  15.995  0.5517 -0.5513  0.7757
 8162TIP3    H145977   3.590   2.558  16.055  2.0030 -1.1661  0.0462
 8162TIP3    H245978   3.678   2.671  16.006 -0.0943  0.9054  0.9593
 8163TIP3   OH245979   6.622   1.411   2.325 -0.0529  0.4066  0.6562
 8163TIP3    H145980   6.553   1.443   2.266 -1.0431  1.4255  2.3160
 8163TIP3    H245981   6.700   1.460   2.299 -0.5880  1.1836  0.4660
 8164TIP3   OH245982   3.756   2.110  11.777 -0.4201  0.3305  0.2586
 8164TIP3    H145983   3.827   2.164  11.811 -1.0883  0.4665  1.4847
 8164TIP3    H245984   3.682   2.129  11.835 -1.9567  1.4458 -2.0169
 8165TIP3   OH245985   1.381   6.421   6.059  0.3968  0.4834 -0.2268
 8165TIP3    H145986   1.367   6.369   6.138  0.8832  0.7908  0.0720
 8165TIP3    H245987   1.462   6.470   6.078  2.0491 -1.4798 -1.9956
 8166TIP3   OH245988   5.491   0.885   3.728  0.0241  0.3929  0.6087
 8166TIP3    H145989   5.414   0.842   3.691  1.5768 -0.4768 -1.7455
 8166TIP3    H245990   5.532   0.818   3.783  0.2954  0.1312  0.0914
 8167TIP3   OH245991   3.021   6.299  12.259 -0.4559  0.1431  0.2252
 8167TIP3    H145992   3.086   6.356  12.217 -1.3466  1.2682  0.3534
 8167TIP3    H245993   3.014   6.224  12.200  2.0100 -0.6835  0.9235
 8168TIP3   OH245994   3.227   2.864   0.409  0.0500 -0.2773 -0.2448
 8168TIP3    H145995   3.252   2.773   0.422  1.2065 -0.0416 -0.7570
 8168TIP3    H245996   3.289   2.914   0.463 -0.7064  0.1948  0.1938
 8169TIP3   OH245997   1.209   4.997  15.541  0.1136 -0.3404  0.2458
 8169TIP3    H145998   1.149   5.060  15.500 -1.8876 -1.4592  1.3968
 8169TIP3    H245999   1.180   4.991  15.632  2.1944 -0.6611  0.9097
 8170TIP3   OH246000   1.329   5.984  14.321  0.5050  0.2165  0.2159
 8170TIP3    H146001   1.400   6.038  14.285 -0.2822  0.8258 -0.4401
 8170TIP3    H246002   1.266   6.047  14.356 -0.1089 -0.2913  0.0384
 8171TIP3   OH246003   6.025   3.283  15.374 -0.2966  0.0719 -0.1533
 8171TIP3    H146004   6.087   3.350  15.402 -1.1820  0.3492  1.2558
 8171TIP3    H246005   6.023   3.221  15.447  0.0096 -1.1299 -1.1575
 8172TIP3   OH246006   5.307   1.164  11.049  0.5664 -0.3568  0.0580
 8172TIP3    H146007   5.385   1.207  11.013  1.7028 -1.2401  1.4274
 8172TIP3    H246008   5.314   1.073  11.021  0.3781 -0.5868  0.7424
 8173TIP3   OH246009   5.930   2.613   2.818  0.2545 -0.1477  0.0411
 8173TIP3    H146010   5.864   2.608   2.748  0.2385  0.4069  0.0109
 8173TIP3    H246011   5.923   2.529   2.864 -0.0106 -0.3581 -0.3778
 8174TIP3   OH246012   3.793   1.336   3.119 -0.1693  0.1955 -0.1899
 8174TIP3    H146013   3.816   1.426   3.094  0.4505 -0.2294 -1.2125
 8174TIP3    H246014   3.705   1.323   3.083 -0.0532  0.2264 -0.4899
 8175TIP3   OH246015   0.125   1.566   3.911  0.0472  0.0656  0.2703
 8175TIP3    H146016   0.097   1.646   3.956  1.6449  1.5431 -1.2597
 8175TIP3    H246017   0.167   1.514   3.979  0.7368  1.4145  0.9053
 8176TIP3   OH246018   5.406   3.901   5.786 -0.3095  0.2632 -0.1321
 8176TIP3    H146019   5.391   3.994   5.772  1.4683  0.4584 -0.9436
 8176TIP3    H246020   5.490   3.884   5.742 -0.8758 -1.8156 -0.4390
 8177TIP3   OH246021   0.475   0.463   1.473 -0.5543 -0.9692  0.1288
 8177TIP3    H146022   0.383   0.438   1.464 -1.0100  0.6701  0.0851
 8177TIP3    H246023   0.497   0.504   1.389 -0.8090  1.7819  1.3416
 8178TIP3   OH246024   0.340   1.677   3.277 -0.2501  0.4549 -0.4942
 8178TIP3    H146025   0.385   1.683   3.192  1.8026 -0.5346  0.4712
 8178TIP3    H246026   0.253   1.711   3.261  0.3891  1.0756 -2.8144
 8179TIP3   OH246027   2.198   2.426  13.895 -0.0730  0.5059 -0.1979
 8179TIP3    H146028   2.260   2.481  13.943  0.9511 -2.0904  1.5620
 8179TIP3    H246029   2.153   2.487  13.837  0.8681  3.2400  1.8045
 8180TIP3   OH246030   5.241   5.635   5.368  0.3235  0.4764  0.2226
 8180TIP3    H146031   5.319   5.641   5.312  0.3781  2.3403  0.4661
 8180TIP3    H246032   5.185   5.706   5.338 -0.8818 -0.2642  0.6887
 8181TIP3   OH246033   2.974   3.041   3.130  0.8671  0.3382  0.1911
 8181TIP3    H146034   3.024   2.966   3.161  1.2451  0.1352 -0.8788
 8181TIP3    H246035   3.038   3.094   3.082 -0.3155 -0.8648 -2.8311
 8182TIP3   OH246036   2.937   0.002   2.108  0.5450  0.1681  0.1192
 8182TIP3    H146037   2.887   0.009   2.027  0.5362 -0.9009  0.0193
 8182TIP3    H246038   2.930  -0.091   2.132  2.1773  0.0701  0.2884
 8183TIP3   OH246039   5.573   1.136   0.939  0.1303  0.4173 -0.8957
 8183TIP3    H146040   5.520   1.216   0.934 -2.0706 -0.9573 -0.2686
 8183TIP3    H246041   5.644   1.151   0.877 -1.0142  2.3024 -1.8073
 8184TIP3   OH246042   4.358   4.892  12.451 -0.2708  0.7250  0.4063
 8184TIP3    H146043   4.341   4.800  12.471  0.7275  0.2375 -0.9366
 8184TIP3    H246044   4.287   4.916  12.391  0.9270  0.0780 -1.3035
 8185TIP3   OH246045   5.800   0.278  14.291  0.2781  0.6516  0.0577
 8185TIP3    H146046   5.744   0.348  14.258  0.0025 -0.5144 -2.0313
 8185TIP3    H246047   5.752   0.242  14.366 -0.8273  0.9700 -0.4815
 8186TIP3   OH246048   0.363   6.471   5.324  0.7556  0.0260  0.2175
 8186TIP3    H146049   0.323   6.549   5.363  1.8488  1.4483 -1.3939
 8186TIP3    H246050   0.297   6.438   5.263 -0.3431 -1.2875  2.0841
 8187TIP3   OH246051   4.575   6.064   6.591  0.5754 -0.3519 -0.2407
 8187TIP3    H146052   4.612   5.976   6.593  0.5928 -0.3490 -0.4362
 8187TIP3    H246053   4.527   6.072   6.673  0.7074 -0.4861 -0.1509
 8188TIP3   OH246054   1.075   4.800   4.329  0.1082  0.3550  0.5711
 8188TIP3    H146055   1.030   4.846   4.258  0.6627 -0.5791 -0.3866
 8188TIP3    H246056   1.052   4.708   4.317  1.3860  0.0113  0.7319
 8189TIP3   OH246057   6.121   2.467  16.096  0.4870 -0.4863  0.5748
 8189TIP3    H146058   6.118   2.449  16.190  1.2722  0.0043  0.6882
 8189TIP3    H246059   6.123   2.562  16.089 -3.0021 -0.3703 -0.0255
 8190TIP3   OH246060   4.619   3.356   1.971  0.0493 -0.1357 -0.0729
 8190TIP3    H146061   4.580   3.273   1.999  1.7413 -1.4200 -1.3565
 8190TIP3    H246062   4.649   3.397   2.052  0.3642 -1.3982  0.4653
 8191TIP3   OH246063   4.291   6.745  11.192  0.3603 -0.2887  0.1293
 8191TIP3    H146064   4.327   6.821  11.145 -0.3148  0.8342  1.3886
 8191TIP3    H246065   4.347   6.736  11.269 -0.7952  0.2012  1.0354
 8192TIP3   OH246066   0.751   3.703   3.804  0.1548  0.4524  0.1626
 8192TIP3    H146067   0.675   3.736   3.757 -0.0064 -1.9050 -1.3006
 8192TIP3    H246068   0.826   3.743   3.761 -0.1265  0.5476 -0.2378
 8193TIP3   OH246069   4.493   3.511   3.801 -0.0759 -0.2167 -0.3637
 8193TIP3    H146070   4.417   3.454   3.814  0.5776 -1.0961 -0.3082
 8193TIP3    H246071   4.543   3.468   3.732  1.0367 -0.3654  0.5112
 8194TIP3   OH246072   6.264   0.219  14.333  0.6017 -0.3367  0.4521
 8194TIP3    H146073   6.174   0.189  14.315  0.6875 -0.0650 -0.4580
 8194TIP3    H246074   6.304   0.146  14.381  0.2032 -0.8873 -0.0346
 8195TIP3   OH246075   0.440   0.379   5.537  0.2758  0.0201  0.1242
 8195TIP3    H146076   0.475   0.291   5.551  2.5518  0.9450  0.3556
 8195TIP3    H246077   0.375   0.390   5.606 -2.1750 -2.5356 -1.6221
 8196TIP3   OH246078   4.382   0.344  15.112 -0.0917  0.3913  0.4721
 8196TIP3    H146079   4.298   0.338  15.066 -0.2932 -1.3159  1.0308
 8196TIP3    H246080   4.446   0.307  15.052  0.6368  3.4103 -0.7344
 8197TIP3   OH246081   5.895   1.932  15.394 -0.1223  0.3360 -0.3261
 8197TIP3    H146082   5.899   2.015  15.442  0.9122  0.6671 -0.9798
 8197TIP3    H246083   5.822   1.942  15.334  1.4779  1.7028 -2.0986
 8198TIP3   OH246084   5.281   0.627   2.529 -0.4715  0.8260 -0.1580
 8198TIP3    H146085   5.359   0.595   2.575 -0.3352  1.6578  0.2035
 8198TIP3    H246086   5.312   0.648   2.441 -0.7197 -0.7161 -0.6282
 8199TIP3   OH246087   0.059   5.640   1.682  0.5873 -0.2772  0.1590
 8199TIP3    H146088   0.042   5.723   1.726 -1.5594 -1.8969  2.5206
 8199TIP3    H246089  -0.027   5.599   1.674  1.9380 -3.6273  1.8852
 8200TIP3   OH246090   1.169   1.217  16.148  0.2052  0.5030 -0.1895
 8200TIP3    H146091   1.222   1.147  16.109  0.9283  0.8973  0.0780
 8200TIP3    H246092   1.231   1.267  16.201 -0.6660  0.2738  1.0661
 8201TIP3   OH246093   6.565   4.502  13.628 -0.0082 -0.1093  0.0872
 8201TIP3    H146094   6.587   4.449  13.704 -0.2119 -0.5446 -0.1503
 8201TIP3    H246095   6.517   4.442  13.570 -0.2041  0.3206 -0.2063
 8202TIP3   OH246096   4.344   1.074   5.006 -1.1166  0.1620  0.2846
 8202TIP3    H146097   4.378   1.035   5.087  1.0889  1.1349 -0.1357
 8202TIP3    H246098   4.300   1.001   4.962 -0.2418 -0.9617  1.2228
 8203TIP3   OH246099   3.810   4.725   3.191 -0.3142  0.7986 -0.5624
 8203TIP3    H146100   3.828   4.775   3.112  0.2317 -0.3460 -1.1818
 8203TIP3    H246101   3.881   4.661   3.196 -1.8278 -0.9592 -0.6918
 8204TIP3   OH246102   4.598   4.087  13.052  0.2449  0.0829 -0.5291
 8204TIP3    H146103   4.512   4.107  13.017  0.3604  0.6185 -0.5191
 8204TIP3    H246104   4.655   4.155  13.016  1.1473 -1.6486 -2.4653
 8205TIP3   OH246105   0.562   0.235   6.179  0.2667 -0.0312 -0.0340
 8205TIP3    H146106   0.623   0.165   6.157  2.4315  1.6337  0.4075
 8205TIP3    H246107   0.580   0.254   6.271 -1.6710 -0.2094  0.3948
 8206TIP3   OH246108   4.448   4.679   1.460  0.2124  0.5859 -0.2690
 8206TIP3    H146109   4.426   4.764   1.420 -1.8005  0.5063  0.6128
 8206TIP3    H246110   4.464   4.621   1.386  2.9717  2.0506 -0.8857
 8207TIP3   OH246111   1.552   0.249   5.233  0.5702  0.4648 -0.6119
 8207TIP3    H146112   1.461   0.228   5.255  0.3142  1.3944 -0.7430
 8207TIP3    H246113   1.604   0.186   5.282 -0.0860  0.9437  0.7240
 8208TIP3   OH246114   0.889   5.029  12.110  0.1595  0.0910  1.0837
 8208TIP3    H146115   0.817   4.966  12.107  0.7282 -0.5450  0.6280
 8208TIP3    H246116   0.933   5.019  12.025  1.0503  0.1552  1.5348
 8209TIP3   OH246117   2.893   6.379  11.162 -0.1115 -0.4672 -0.1340
 8209TIP3    H146118   2.806   6.363  11.125 -1.0725  2.7561  0.6170
 8209TIP3    H246119   2.880   6.371  11.257  0.1973  1.0105  0.0328
 8210TIP3   OH246120   3.238   1.263  16.621 -0.2904 -0.1239  0.2051
 8210TIP3    H146121   3.170   1.197  16.610  0.4029 -0.3018 -3.6208
 8210TIP3    H246122   3.191   1.346  16.617 -0.6116 -0.3051  0.2154
 8211TIP3   OH246123   4.237   4.991  11.987  0.2086 -0.7219  0.2890
 8211TIP3    H146124   4.204   5.070  11.943 -0.8081 -0.4775  1.4762
 8211TIP3    H246125   4.305   5.024  12.046 -1.3351 -0.5231  1.9729
 8212TIP3   OH246126   2.214   0.734   4.487  0.3858  0.1403  0.1508
 8212TIP3    H146127   2.236   0.669   4.420 -2.1270  0.1471 -0.7611
 8212TIP3    H246128   2.228   0.819   4.444  0.3465  0.1625  0.1814
 8213TIP3   OH246129   0.998   0.412  11.602 -0.0234  0.1841  0.2292
 8213TIP3    H146130   1.049   0.357  11.661 -3.9667 -2.3659  1.4347
 8213TIP3    H246131   0.955   0.475  11.660  0.2818  1.1465 -0.5768
 8214TIP3   OH246132   3.872   5.383  13.148  0.7406  0.1351  0.0324
 8214TIP3    H146133   3.864   5.446  13.076  0.2386 -0.6424 -0.5967
 8214TIP3    H246134   3.932   5.316  13.115  0.7953 -0.0362  0.4734
 8215TIP3   OH246135   3.110   2.581  11.380  0.2721 -0.0897  0.0417
 8215TIP3    H146136   3.132   2.558  11.290  1.2404 -0.4974  0.3710
 8215TIP3    H246137   3.015   2.578  11.383 -0.0464  4.2992 -2.1274
 8216TIP3   OH246138   5.293   0.887  10.982  0.3890 -0.2807 -0.2390
 8216TIP3    H146139   5.249   0.839  10.911  0.8827  1.7347 -1.9774
 8216TIP3    H246140   5.378   0.910  10.946  0.9272  0.1663  1.2927
 8217TIP3   OH246141   4.589   5.175   6.302  0.0726  0.8060 -0.0610
 8217TIP3    H146142   4.637   5.258   6.303  1.0766  0.2339  0.7660
 8217TIP3    H246143   4.599   5.141   6.391 -0.4079 -0.1603 -0.3716
 8218TIP3   OH246144   2.830   3.426  11.784 -0.1839  0.8015 -0.4969
 8218TIP3    H146145   2.769   3.415  11.857  0.5746  2.0713  0.3598
 8218TIP3    H246146   2.911   3.455  11.825 -0.0442  2.5514 -1.9167
 8219TIP3   OH246147   5.223   5.887  12.543  0.7562  0.0214  0.2028
 8219TIP3    H146148   5.214   5.972  12.500  1.4406  0.3092  0.6141
 8219TIP3    H246149   5.313   5.886  12.576  0.1953 -0.0867  1.8117
 8220TIP3   OH246150   6.468   0.793   5.935 -0.1144 -0.0325  0.0813
 8220TIP3    H146151   6.559   0.797   5.963  0.2726  0.4540 -1.2101
 8220TIP3    H246152   6.458   0.705   5.897  0.4519  0.7191 -1.8576
 8221TIP3   OH246153   6.082   1.113   3.570 -0.2782  0.1399 -0.0811
 8221TIP3    H146154   6.147   1.182   3.582 -1.7454  1.4896  0.3637
 8221TIP3    H246155   6.051   1.125   3.480 -0.3428 -0.0961 -0.0900
 8222TIP3   OH246156   4.138   1.044  13.271 -0.4610 -0.2153  0.2720
 8222TIP3    H146157   4.068   1.032  13.207  0.6446 -0.8626 -0.8599
 8222TIP3    H246158   4.133   0.966  13.326 -2.1206  0.8734  1.6887
 8223TIP3   OH246159   4.292   3.928  13.036  0.8035 -0.1838  0.0467
 8223TIP3    H146160   4.313   4.021  13.030 -0.2281  0.2678  2.9620
 8223TIP3    H246161   4.202   3.922  13.004  0.3039  0.0961  1.3509
 8224TIP3   OH246162   2.217   0.769  15.428 -0.3032  0.5547  0.3380
 8224TIP3    H146163   2.132   0.735  15.401  0.5127  0.5418 -2.3901
 8224TIP3    H246164   2.277   0.695  15.417  0.0650  0.4837  2.4836
 8225TIP3   OH246165   1.742   6.585  17.042 -0.3038 -0.0793 -0.2708
 8225TIP3    H146166   1.802   6.633  16.984  1.1242 -0.0240  1.2175
 8225TIP3    H246167   1.666   6.566  16.987  1.3092 -0.6293 -2.3544
 8226TIP3   OH246168   0.624   1.645   3.747  0.4128 -0.2889  0.4448
 8226TIP3    H146169   0.614   1.623   3.655  1.7438  0.1067  0.1889
 8226TIP3    H246170   0.606   1.739   3.751  1.5360 -0.0587  0.3711
 8227TIP3   OH246171   0.682   3.835   3.505  0.0575 -0.0738 -0.0428
 8227TIP3    H146172   0.626   3.760   3.481 -2.8097  1.9948 -0.1549
 8227TIP3    H246173   0.744   3.842   3.433 -2.1926  0.0436 -2.0468
 8228TIP3   OH246174   5.211   2.152  13.878 -0.3261  1.2609 -0.3931
 8228TIP3    H146175   5.127   2.199  13.874 -1.5944 -0.4802  3.5180
 8228TIP3    H246176   5.197   2.076  13.821 -1.2767  1.2081 -0.1128
 8229TIP3   OH246177   0.856   5.553   4.233 -0.5394 -0.2104  0.2112
 8229TIP3    H146178   0.892   5.507   4.157  0.4192  0.8130  0.0217
 8229TIP3    H246179   0.923   5.543   4.301  0.3290  2.0569 -0.2644
 8230TIP3   OH246180   4.577   2.644  15.303  0.1465  0.2047  0.5607
 8230TIP3    H146181   4.584   2.553  15.330  0.5680 -0.4614 -1.7468
 8230TIP3    H246182   4.484   2.664  15.308 -0.2300 -1.0503 -1.1165
 8231TIP3   OH246183   5.675   2.662  17.094 -0.2282 -0.7245  0.1033
 8231TIP3    H146184   5.707   2.700  17.176  1.3326 -1.2962 -0.2198
 8231TIP3    H246185   5.713   2.716  17.026  0.1943 -1.5292 -0.2989
 8232TIP3   OH246186   1.213   1.774   5.681 -0.6284 -0.5518 -0.3970
 8232TIP3    H146187   1.237   1.695   5.633 -1.9146 -2.0169  1.3064
 8232TIP3    H246188   1.290   1.794   5.734  0.1487  0.0661 -1.7342
 8233TIP3   OH246189   3.638   0.616   1.387 -0.4489 -0.0477 -0.1771
 8233TIP3    H146190   3.616   0.560   1.313  0.1106 -0.4757 -0.0217
 8233TIP3    H246191   3.570   0.684   1.387 -0.4020 -0.0002 -1.1234
 8234TIP3   OH246192   4.953   6.403   5.909  0.7763 -0.5407 -0.1536
 8234TIP3    H146193   4.895   6.378   5.981  0.7473 -1.7771 -0.5855
 8234TIP3    H246194   4.966   6.322   5.860  1.2657  0.1629 -1.2073
 8235TIP3   OH246195   6.730   5.105   6.014  0.6448 -0.5155 -0.7006
 8235TIP3    H146196   6.796   5.036   6.002  0.7116 -0.6013  0.1521
 8235TIP3    H246197   6.762   5.157   6.087  0.5823  0.4228 -1.3198
 8236TIP3   OH246198   1.938   5.682   3.421  0.2663 -0.0867  0.4201
 8236TIP3    H146199   1.997   5.716   3.488 -0.1623 -0.4802  0.9911
 8236TIP3    H246200   1.943   5.747   3.350  1.6132 -0.2613  0.3351
 8237TIP3   OH246201   3.728   0.206   2.627  0.5676 -0.2514 -0.5995
 8237TIP3    H146202   3.710   0.297   2.652  0.3157 -0.6027  0.5371
 8237TIP3    H246203   3.797   0.212   2.562  0.3985  0.7753 -0.6930
 8238TIP3   OH246204   5.329   4.772   5.959  0.0792 -0.3790 -0.4421
 8238TIP3    H146205   5.266   4.806   5.895 -1.1416 -0.2127  0.8351
 8238TIP3    H246206   5.297   4.685   5.981 -0.0164 -0.0721  0.6373
 8239TIP3   OH246207   0.377   1.634  16.474 -0.3445 -0.1255 -0.3783
 8239TIP3    H146208   0.375   1.541  16.452 -0.1458 -0.5930  1.4310
 8239TIP3    H246209   0.297   1.649  16.524  0.6848  0.1384  1.2385
 8240TIP3   OH246210   5.006   1.851  16.666  0.5359 -0.3067 -0.8031
 8240TIP3    H146211   4.968   1.792  16.601  0.6149 -1.0716 -0.1587
 8240TIP3    H246212   5.069   1.904  16.616 -1.4433  1.0668 -1.8949
 8241TIP3   OH246213   4.302   2.714  15.324  0.2178  0.6300 -0.0270
 8241TIP3    H146214   4.293   2.731  15.230  2.0310  1.2532 -0.1080
 8241TIP3    H246215   4.227   2.758  15.364 -0.3058  0.7613 -1.1315
 8242TIP3   OH246216   1.212   1.459   1.741 -0.5122 -0.4990  0.5281
 8242TIP3    H146217   1.225   1.535   1.798  0.2778 -0.4938  0.3463
 8242TIP3    H246218   1.252   1.386   1.788  2.1313 -0.0965 -0.9595
 8243TIP3   OH246219   2.218   3.202  15.853  0.0371  0.1466 -0.4347
 8243TIP3    H146220   2.189   3.154  15.931  1.1801 -1.6949 -1.1076
 8243TIP3    H246221   2.215   3.294  15.879 -0.0315 -0.4154  1.6413
 8244TIP3   OH246222   2.972   2.877   0.981  0.0726 -0.4920  0.2192
 8244TIP3    H146223   2.943   2.892   0.891 -0.5277 -1.6644  0.2066
 8244TIP3    H246224   2.963   2.961   1.024  0.7976  0.1985 -0.9388
 8245TIP3   OH246225   4.463   6.457  16.473  0.2035  0.0373  0.1259
 8245TIP3    H146226   4.438   6.534  16.422  0.6689  0.2337  0.1885
 8245TIP3    H246227   4.382   6.408  16.484  0.3809 -0.7383 -2.0174
 8246TIP3   OH246228   1.541   5.322   1.301 -0.1629  0.0451 -0.3306
 8246TIP3    H146229   1.549   5.371   1.219 -1.1887 -0.5509 -0.7958
 8246TIP3    H246230   1.630   5.322   1.337  0.4623 -0.3412 -1.8195
 8247TIP3   OH246231   2.057   0.621   5.984  0.5483 -0.2253  0.0954
 8247TIP3    H146232   2.103   0.616   5.900  0.4077 -0.1830  0.0143
 8247TIP3    H246233   2.126   0.629   6.049  0.7508 -2.3525  0.1670
 8248TIP3   OH246234   4.823   4.698  13.753  0.0365  0.7458  0.7107
 8248TIP3    H146235   4.903   4.743  13.727  0.3605  0.5327  1.3232
 8248TIP3    H246236   4.753   4.744  13.707  0.5629  0.6063 -0.2311
 8249TIP3   OH246237   2.344   5.555  10.760  0.5164 -0.0468 -0.0903
 8249TIP3    H146238   2.416   5.538  10.699  0.2622 -2.7445  0.2820
 8249TIP3    H246239   2.268   5.568  10.704  1.3379  3.2964 -0.5044
 8250TIP3   OH246240   4.501   3.662  12.504 -0.1966  0.5487 -0.2131
 8250TIP3    H146241   4.520   3.620  12.420  1.8545  0.6820  0.1607
 8250TIP3    H246242   4.434   3.607  12.544  1.2142 -1.4153 -0.4844
 8251TIP3   OH246243   6.171   6.235   3.895 -0.2605  0.0278 -0.3246
 8251TIP3    H146244   6.148   6.281   3.976  0.4298 -2.5703  1.3838
 8251TIP3    H246245   6.118   6.156   3.897  0.5034 -0.5338 -1.9389
 8252TIP3   OH246246   6.563   4.814   0.879  0.1747 -0.1848  0.1238
 8252TIP3    H146247   6.649   4.850   0.859 -0.3478  1.0275  0.0317
 8252TIP3    H246248   6.569   4.786   0.971  0.4667  0.4629  0.3001
 8253TIP3   OH246249   6.110   1.201  16.556  0.0092 -0.2978 -0.1193
 8253TIP3    H146250   6.113   1.245  16.642  0.4857 -1.5691  0.5260
 8253TIP3    H246251   6.027   1.153  16.558  0.4556 -1.0587 -0.0066
 8254TIP3   OH246252   1.875   0.185  10.729 -0.0695  0.0605 -0.1169
 8254TIP3    H146253   1.879   0.208  10.636 -1.0648  3.2897  0.5741
 8254TIP3    H246254   1.962   0.205  10.762 -0.1599  0.3368 -0.0475
 8255TIP3   OH246255   6.563   2.293  14.510 -0.3884  0.3384  0.4465
 8255TIP3    H146256   6.592   2.257  14.426 -2.1102 -1.5263  0.6286
 8255TIP3    H246257   6.564   2.219  14.570 -0.4603  1.3737  1.7529
 8256TIP3   OH246258   5.230   4.570   5.727  0.0246  0.4478 -0.0639
 8256TIP3    H146259   5.233   4.664   5.747 -1.4615  0.2123  1.3169
 8256TIP3    H246260   5.260   4.528   5.808 -0.8528 -0.3201 -0.1408
 8257TIP3   OH246261   5.878   4.647   0.485  0.1126 -0.5702 -0.5219
 8257TIP3    H146262   5.951   4.677   0.540 -0.7627 -0.9269  0.8646
 8257TIP3    H246263   5.868   4.716   0.419  0.7339  0.2123  0.1876
 8258TIP3   OH246264   2.159   1.756   0.305  0.3855 -0.3764 -0.0810
 8258TIP3    H146265   2.142   1.849   0.292  2.6505  0.1801  0.8627
 8258TIP3    H246266   2.188   1.724   0.220 -1.3699 -0.4622 -0.6652
 8259TIP3   OH246267   5.437   4.611   0.514  0.7715  0.0382  0.0528
 8259TIP3    H146268   5.461   4.529   0.557  0.8663 -0.0671 -0.1965
 8259TIP3    H246269   5.382   4.657   0.577 -2.4039 -1.8556 -1.2069
 8260TIP3   OH246270   0.092   3.097   1.494 -0.3053  0.1187  0.7695
 8260TIP3    H146271   0.002   3.062   1.493 -0.6896  0.9028  3.2666
 8260TIP3    H246272   0.088   3.175   1.439 -1.1529  0.1030  0.7979
 8261TIP3   OH246273   1.053   3.606  16.421 -0.6815  0.6415  0.0627
 8261TIP3    H146274   1.062   3.686  16.369  0.9090 -0.2654 -1.1101
 8261TIP3    H246275   0.961   3.582  16.412 -0.6241  0.9819 -1.6287
 8262TIP3   OH246276   0.532   2.993  15.469 -0.2112  0.4574 -0.0512
 8262TIP3    H146277   0.532   3.061  15.536 -0.8171 -0.8692  1.3245
 8262TIP3    H246278   0.490   2.918  15.511 -1.4722 -0.0947 -2.2233
 8263TIP3   OH246279   6.536   0.552   1.367 -0.1420  0.0285 -0.0628
 8263TIP3    H146280   6.555   0.629   1.420 -0.5005 -0.6921  1.1645
 8263TIP3    H246281   6.463   0.509   1.414 -0.2923 -0.7622 -1.0071
 8264TIP3   OH246282   4.567   4.563   4.454  0.1326  0.0005  0.3535
 8264TIP3    H146283   4.617   4.575   4.535  0.2569  1.2763  0.0931
 8264TIP3    H246284   4.632   4.531   4.391  0.2014 -0.2549  0.5550
 8265TIP3   OH246285   2.754   5.596   0.849 -0.3736 -0.5124  0.3125
 8265TIP3    H146286   2.845   5.565   0.853  0.2967  1.2475 -0.5858
 8265TIP3    H246287   2.704   5.530   0.896  1.2671 -1.9311  0.1147
 8266TIP3   OH246288   3.556   0.918  11.221  0.3474 -0.4531  0.2875
 8266TIP3    H146289   3.559   0.822  11.218 -0.8095 -0.4725 -0.5405
 8266TIP3    H246290   3.552   0.938  11.315 -1.3959 -1.2984  0.4149
 8267TIP3   OH246291   0.988   0.662   4.125  0.0425  0.9644  0.0819
 8267TIP3    H146292   0.981   0.675   4.219  1.3031  2.3393  0.0118
 8267TIP3    H246293   0.898   0.662   4.093 -0.4495 -0.7947  1.4451
 8268TIP3   OH246294   4.776   2.956   1.264  0.1935  0.1085  0.3632
 8268TIP3    H146295   4.768   2.990   1.353  1.2562  1.3540 -0.0013
 8268TIP3    H246296   4.769   3.034   1.209  0.0399 -0.5985 -0.6265
 8269TIP3   OH246297   1.838   4.557  13.245 -0.0565  0.1382  0.0438
 8269TIP3    H146298   1.823   4.565  13.151 -0.3183  1.2085  0.1589
 8269TIP3    H246299   1.906   4.622  13.264 -0.3824  0.3047  0.6690
 8270TIP3   OH246300   4.722   1.170  14.659 -0.3042  0.6732  0.3266
 8270TIP3    H146301   4.757   1.259  14.663 -0.4814  0.8561 -1.6061
 8270TIP3    H246302   4.635   1.177  14.698 -1.0694  1.7690 -1.4978
 8271TIP3   OH246303   6.092   0.020  13.342  0.0496 -0.2329  0.0994
 8271TIP3    H146304   6.029   0.009  13.413  2.2869  0.4717  2.2934
 8271TIP3    H246305   6.069   0.104  13.303  0.0630  0.3742  1.3644
 8272TIP3   OH246306   6.564   3.334   1.455  0.5676 -0.2564 -0.2254
 8272TIP3    H146307   6.486   3.293   1.417  1.0228 -0.4385 -0.9781
 8272TIP3    H246308   6.536   3.364   1.541 -0.3925 -0.1233 -0.5815
 8273TIP3   OH246309   0.331   5.728   0.305  0.6559  0.7124  0.3210
 8273TIP3    H146310   0.340   5.668   0.379  0.1893  1.5442  1.0537
 8273TIP3    H246311   0.282   5.678   0.239  1.8433 -0.3445  0.1963
 8274TIP3   OH246312   0.259   4.272   5.059 -0.0874 -0.5850  0.0688
 8274TIP3    H146313   0.316   4.319   5.119 -2.6343  2.0248  0.5396
 8274TIP3    H246314   0.227   4.197   5.110  1.5504 -1.1434  0.3201
 8275TIP3   OH246315   2.383   5.267  16.372 -0.2119  0.2877 -0.1185
 8275TIP3    H146316   2.349   5.325  16.441 -0.8481 -1.3155  0.9343
 8275TIP3    H246317   2.343   5.182  16.390  1.4060 -0.7127 -1.1108
 8276TIP3   OH246318   1.876   3.206   1.825  0.2585  0.4618  0.2296
 8276TIP3    H146319   1.949   3.205   1.886  1.0193  1.9387 -0.6279
 8276TIP3    H246320   1.909   3.163   1.746 -0.5356 -0.9158  0.6255
 8277TIP3   OH246321   4.618   5.978  14.985  0.6564 -0.1660  0.0712
 8277TIP3    H146322   4.601   6.064  14.948 -2.3645 -2.4920 -4.3476
 8277TIP3    H246323   4.569   5.977  15.067 -0.3296  1.8791 -0.4722
 8278TIP3   OH246324   2.492   3.155   3.252 -0.3370  0.3300 -0.4030
 8278TIP3    H146325   2.429   3.181   3.320 -0.5409  0.3697 -0.6055
 8278TIP3    H246326   2.440   3.104   3.190 -0.1335  0.2297 -0.4904
 8279TIP3   OH246327   5.742   1.977   4.574 -0.2810  0.0860 -0.2108
 8279TIP3    H146328   5.742   1.893   4.527 -1.7912 -0.2907  0.4392
 8279TIP3    H246329   5.797   1.961   4.651 -0.2015 -0.1828 -0.3219
 8280TIP3   OH246330   5.204   5.551   3.845 -0.0560  0.5307 -0.1500
 8280TIP3    H146331   5.179   5.549   3.938  0.7762  0.4615  0.0706
 8280TIP3    H246332   5.299   5.557   3.846 -0.0518  0.5933 -1.0062
 8281TIP3   OH246333   2.845   4.719   5.317 -0.0562 -0.2873 -0.1383
 8281TIP3    H146334   2.881   4.719   5.228  1.4125 -0.2351  0.4574
 8281TIP3    H246335   2.752   4.699   5.304  0.3292 -1.2302 -1.6108
 8282TIP3   OH246336   2.799   0.992   4.273 -0.5251  0.1040 -0.4907
 8282TIP3    H146337   2.891   0.994   4.247 -0.3439  2.1527  0.2048
 8282TIP3    H246338   2.750   1.017   4.195 -0.5672 -1.6500 -1.0522
 8283TIP3   OH246339   1.762   6.151   2.697 -0.3866 -0.5402 -0.4256
 8283TIP3    H146340   1.701   6.173   2.767 -0.9493 -1.3211 -0.6613
 8283TIP3    H246341   1.846   6.136   2.741 -0.8260 -1.4100  0.1285
 8284TIP3   OH246342   3.516   2.027   4.735 -0.6312 -0.7417 -0.0958
 8284TIP3    H146343   3.485   1.937   4.736 -0.0257 -0.9572  1.3023
 8284TIP3    H246344   3.489   2.063   4.820 -0.8586  0.3831 -0.6392
 8285TIP3   OH246345   1.643   0.584   5.720 -0.3088 -0.3047  0.5378
 8285TIP3    H146346   1.583   0.612   5.790 -0.7452  1.2675 -0.4550
 8285TIP3    H246347   1.698   0.660   5.703 -0.0059 -0.7732 -0.6267
 8286TIP3   OH246348   2.282   5.859   1.307 -0.5321 -0.0221  0.2419
 8286TIP3    H146349   2.364   5.894   1.271 -0.0243  1.1204  2.4387
 8286TIP3    H246350   2.214   5.896   1.251  0.3053  0.9544 -0.1522
 8287TIP3   OH246351   4.977   2.215  15.728  0.0741  0.0755  0.2422
 8287TIP3    H146352   4.962   2.309  15.716  2.1983  0.2670 -1.0492
 8287TIP3    H246353   4.964   2.201  15.822  0.0260  1.7077  0.4940
 8288TIP3   OH246354   6.574   2.074   2.545  0.5417  0.0606  0.4929
 8288TIP3    H146355   6.494   2.126   2.536  0.9163  0.1868 -2.5293
 8288TIP3    H246356   6.543   1.984   2.557 -0.0564  0.2253  0.2057
 8289TIP3   OH246357   5.835   0.042  15.823  0.6814  0.6379 -0.6962
 8289TIP3    H146358   5.877   0.051  15.909  0.5035  1.2008 -0.6666
 8289TIP3    H246359   5.765   0.108  15.824  0.4012  0.3480 -1.1081
 8290TIP3   OH246360   0.891   1.187  14.813  0.1775  0.3172 -0.1547
 8290TIP3    H146361   0.960   1.207  14.749  0.7748 -0.2625  0.2964
 8290TIP3    H246362   0.915   1.100  14.847 -0.5607  0.2860  0.2926
 8291TIP3   OH246363   5.145   6.481  12.361 -0.0352 -0.0743 -0.2385
 8291TIP3    H146364   5.130   6.511  12.450 -0.4418  0.4029 -0.4622
 8291TIP3    H246365   5.239   6.465  12.357 -0.4331 -2.9432  1.1292
 8292TIP3   OH246366   3.174   4.780  14.969 -0.1422  0.0603 -0.3527
 8292TIP3    H146367   3.108   4.843  14.997  0.5375  0.0125  1.4593
 8292TIP3    H246368   3.164   4.706  15.030  2.1210  0.4185  0.5113
 8293TIP3   OH246369   1.733   0.673   1.762  0.3457  0.0677  0.5655
 8293TIP3    H146370   1.651   0.624   1.751 -0.2411  1.4426 -1.6761
 8293TIP3    H246371   1.725   0.716   1.847  0.2181 -2.4686  1.8819
 8294TIP3   OH246372   0.791   3.251  15.537  0.2373  0.5763 -0.4804
 8294TIP3    H146373   0.794   3.202  15.455 -0.8026  1.1603 -0.8791
 8294TIP3    H246374   0.726   3.204  15.591 -0.9896  1.6573 -0.9757
 8295TIP3   OH246375   0.305   2.820  13.390 -0.0970  0.1715 -0.1286
 8295TIP3    H146376   0.388   2.800  13.347  0.3741  0.6867  0.5332
 8295TIP3    H246377   0.288   2.744  13.446 -0.4705 -0.2862 -0.8611
 8296TIP3   OH246378   1.230   5.215  13.263  0.2719  0.0456  0.1470
 8296TIP3    H146379   1.151   5.181  13.306  0.4655 -0.1131  0.3856
 8296TIP3    H246380   1.235   5.306  13.291 -0.1739  0.2293 -0.3778
 8297TIP3   OH246381   4.712   5.948  17.133 -0.4649 -0.1715 -0.7506
 8297TIP3    H146382   4.646   5.999  17.180  0.0404 -0.5324  0.3715
 8297TIP3    H246383   4.669   5.864  17.115 -0.4389 -0.2656 -0.3700
 8298TIP3   OH246384   2.486   2.636   3.487  0.2932 -0.4635  0.2130
 8298TIP3    H146385   2.508   2.664   3.398  2.0836 -0.2929  0.6829
 8298TIP3    H246386   2.565   2.592   3.518  0.0830  0.4500  2.1041
 8299TIP3   OH246387   0.491   0.765   5.791 -0.3083  0.1455  0.0919
 8299TIP3    H146388   0.449   0.849   5.808 -0.2277 -0.0800  1.4343
 8299TIP3    H246389   0.515   0.732   5.878 -1.5941 -1.9062 -0.2895
 8300TIP3   OH246390   2.321   1.347  13.920 -1.1241  0.4939  0.1060
 8300TIP3    H146391   2.327   1.355  14.015 -1.6716  0.0196  0.1784
 8300TIP3    H246392   2.242   1.296  13.904  0.0485 -1.1595 -0.5381
 8301TIP3   OH246393   4.775   6.317  14.384 -0.3354  0.9796 -0.0739
 8301TIP3    H146394   4.860   6.351  14.413 -0.6273  1.3632  0.3383
 8301TIP3    H246395   4.795   6.269  14.303  0.4031  0.3431  0.4860
 8302TIP3   OH246396   0.390   4.368   0.835  0.0591  0.4646 -0.5943
 8302TIP3    H146397   0.296   4.362   0.819 -0.2652  2.1328  0.5407
 8302TIP3    H246398   0.412   4.459   0.813  1.2854  0.2527 -0.2694
 8303TIP3   OH246399   1.092   5.584   5.115 -0.1562  0.1349 -0.1580
 8303TIP3    H146400   1.114   5.669   5.076 -1.8816  0.9517  0.6029
 8303TIP3    H246401   1.078   5.527   5.040 -1.7373  1.2498 -0.7322
 8304TIP3   OH246402   0.306   5.064  14.843 -0.5161  0.0235  0.0907
 8304TIP3    H146403   0.356   4.984  14.827  1.2000  1.4298 -1.7224
 8304TIP3    H246404   0.350   5.105  14.917  1.3785  1.4919 -1.7927
 8305TIP3   OH246405   2.833   4.072   0.773 -0.0361  0.0406  0.0786
 8305TIP3    H146406   2.792   4.136   0.832  0.6834  2.0328 -1.5053
 8305TIP3    H246407   2.821   4.110   0.686  1.4579 -1.4360 -0.7810
 8306TIP3   OH246408   4.535   1.717  17.110  0.2202 -0.2744 -0.1686
 8306TIP3    H146409   4.575   1.636  17.142 -0.0470  0.0730  1.0623
 8306TIP3    H246410   4.595   1.786  17.137  0.3110 -0.0274 -0.9763
 8307TIP3   OH246411   5.647   0.135  15.264  0.0776  0.0018  0.4546
 8307TIP3    H146412   5.732   0.090  15.262  0.0762 -0.0115  0.7571
 8307TIP3    H246413   5.586   0.069  15.299 -0.1661 -0.1744 -0.2926
 8308TIP3   OH246414   2.927   6.237   3.007  0.5015  0.1438 -0.1286
 8308TIP3    H146415   3.011   6.210   2.970  0.2712 -0.1428 -0.4461
 8308TIP3    H246416   2.923   6.194   3.092  1.4279  1.5052  0.6175
 8309TIP3   OH246417   5.670   1.526  16.866  0.3622 -0.0483 -0.7934
 8309TIP3    H146418   5.621   1.534  16.948 -0.6725  2.8336 -1.6328
 8309TIP3    H246419   5.758   1.501  16.893 -0.0743  0.4416  1.1775
 8310TIP3   OH246420   2.906   4.044  15.589 -0.6890  0.3658  0.4944
 8310TIP3    H146421   2.985   4.088  15.622 -1.5229  1.9942  0.3589
 8310TIP3    H246422   2.938   3.989  15.517  0.2411  1.5331 -0.0097
 8311TIP3   OH246423   3.949   6.122   3.273  0.6185 -0.1888  0.3029
 8311TIP3    H146424   3.917   6.206   3.239 -1.0179 -0.9816 -0.1374
 8311TIP3    H246425   3.976   6.141   3.362  1.1719  1.0220 -0.1071
 8312TIP3   OH246426   4.797   0.685  16.398  0.3294 -0.0794 -0.1162
 8312TIP3    H146427   4.810   0.780  16.395 -0.1338  0.0806  1.9964
 8312TIP3    H246428   4.723   0.669  16.340 -0.1381  0.9782  0.1711
 8313TIP3   OH246429   1.869   4.557  16.564  0.0372 -0.0827 -0.4181
 8313TIP3    H146430   1.829   4.593  16.485 -0.3052  2.0154  0.6983
 8313TIP3    H246431   1.910   4.631  16.606 -0.4162 -1.0417  1.7637
 8314TIP3   OH246432   4.705   4.978  11.339 -0.1187 -0.1347 -0.0440
 8314TIP3    H146433   4.668   4.891  11.330  1.1737 -1.1147  3.2295
 8314TIP3    H246434   4.789   4.973  11.293 -0.0045 -0.6752  0.2166
 8315TIP3   OH246435   5.583   3.558  12.905  0.1788 -0.4418  0.5191
 8315TIP3    H146436   5.534   3.524  12.979 -0.0508 -0.5912  0.2982
 8315TIP3    H246437   5.670   3.577  12.940  0.1055 -0.6287  0.7964
 8316TIP3   OH246438   2.073   1.895   2.841  0.7259  0.7014 -0.0688
 8316TIP3    H146439   2.005   1.834   2.812  0.9767  0.8114 -0.9221
 8316TIP3    H246440   2.104   1.860   2.924  1.7042 -1.0324 -1.1306
 8317TIP3   OH246441   2.799   4.055   2.775 -0.3310  0.1784  0.4025
 8317TIP3    H146442   2.861   3.984   2.791 -0.2029  0.0805 -0.5001
 8317TIP3    H246443   2.721   4.030   2.825 -0.0264 -0.2287  0.6821
 8318TIP3   OH246444   0.358   3.612   1.933 -0.0433  0.0628  0.0731
 8318TIP3    H146445   0.360   3.521   1.961 -1.5718  0.3556  1.2472
 8318TIP3    H246446   0.291   3.615   1.864  1.0443  0.0467 -1.0118
 8319TIP3   OH246447   2.722   1.948  12.391  0.3965  0.3980 -0.2917
 8319TIP3    H146448   2.646   1.972  12.442  1.2164  1.8830  0.2556
 8319TIP3    H246449   2.785   1.914  12.455 -0.3623 -2.3362 -0.9250
 8320TIP3   OH246450   2.212   4.072  15.238  0.4240 -0.8037  0.0865
 8320TIP3    H146451   2.207   4.168  15.236  1.4284 -0.7020  1.7766
 8320TIP3    H246452   2.253   4.049  15.154 -1.3005  0.1193 -1.0370
 8321TIP3   OH246453   2.183   6.463  17.034 -0.2720  0.2935 -0.4018
 8321TIP3    H146454   2.275   6.451  17.057 -0.1669 -0.6674 -1.2844
 8321TIP3    H246455   2.155   6.378  17.000 -1.6191  0.4393  0.2984
 8322TIP3   OH246456   3.675   6.019  16.160  0.4969  0.0862  0.5579
 8322TIP3    H146457   3.600   6.077  16.174 -0.4922 -1.6350  2.7729
 8322TIP3    H246458   3.669   5.993  16.069 -0.3753  1.6394  0.1591
 8323TIP3   OH246459   0.632   5.842  12.148 -0.2660 -0.1822 -0.4076
 8323TIP3    H146460   0.641   5.748  12.160  1.6643  0.0793  0.3597
 8323TIP3    H246461   0.668   5.880  12.228  1.6609  1.2754 -1.9359
 8324TIP3   OH246462   3.914   6.649   0.980  0.0308  0.1273 -0.4681
 8324TIP3    H146463   3.883   6.596   1.054 -0.8275  0.7498 -0.3726
 8324TIP3    H246464   3.853   6.723   0.977  0.0034  0.0534 -1.8694
 8325TIP3   OH246465   6.224   3.718  12.296  0.3071  0.5125 -0.1633
 8325TIP3    H146466   6.128   3.721  12.300  0.2534  1.2541 -1.7454
 8325TIP3    H246467   6.245   3.740  12.205  2.0663  2.1994  0.6253
 8326TIP3   OH246468   1.659   5.346   6.502  0.3568  0.6800  0.8036
 8326TIP3    H146469   1.730   5.404   6.474  0.2297  0.4406 -0.0308
 8326TIP3    H246470   1.579   5.395   6.481  0.2692  0.8733  1.5765
 8327TIP3   OH246471   5.207   6.160  12.824 -0.0885  0.8755  0.3105
 8327TIP3    H146472   5.231   6.248  12.853 -0.5421  1.8003 -1.9951
 8327TIP3    H246473   5.290   6.119  12.799 -0.2275  1.9691 -2.0556
 8328TIP3   OH246474   2.655   2.768  14.443  0.1803 -0.3831  0.4169
 8328TIP3    H146475   2.716   2.715  14.494  0.0406  0.3457  1.3558
 8328TIP3    H246476   2.686   2.858  14.455  1.0379 -0.3118 -1.9874
 8329TIP3   OH246477   0.069   0.194  10.601  0.5479  0.3440  0.2337
 8329TIP3    H146478   0.053   0.104  10.630  1.4139 -0.5319 -1.8757
 8329TIP3    H246479  -0.018   0.227  10.576  0.0635  0.4995  2.0736
 8330TIP3   OH246480   4.057   2.010  12.025 -0.2102  0.1435  0.1238
 8330TIP3    H146481   4.147   1.998  12.055 -0.1107 -0.5102 -0.4166
 8330TIP3    H246482   4.030   1.923  11.994 -0.1682  0.8925 -2.0548
 8331TIP3   OH246483   5.345   0.994  14.835  0.5636  0.3283  0.0809
 8331TIP3    H146484   5.267   0.964  14.883  0.6463  0.9845  0.6268
 8331TIP3    H246485   5.316   1.075  14.792  0.6179 -0.0262 -0.6303
 8332TIP3   OH246486   5.126   4.806   4.019 -0.1550  0.2911  0.1736
 8332TIP3    H146487   5.037   4.774   4.031  0.0791 -0.4140  0.0692
 8332TIP3    H246488   5.116   4.898   3.997 -0.8809  0.0906 -0.3358
 8333TIP3   OH246489   0.995   5.113   2.128 -0.3320  0.6347 -0.2074
 8333TIP3    H146490   1.073   5.064   2.102 -0.2573  0.1687  0.8495
 8333TIP3    H246491   1.028   5.196   2.160 -0.2297  0.3205  0.5245
 8334TIP3   OH246492   6.349   1.383  16.972  0.2031  0.0909  0.0503
 8334TIP3    H146493   6.334   1.298  17.014 -2.0108  0.5627  0.2433
 8334TIP3    H246494   6.402   1.431  17.035  0.8678 -0.8761  0.2513
 8335TIP3   OH246495   2.798   5.111  11.417 -0.0494 -0.2843 -0.4432
 8335TIP3    H146496   2.858   5.054  11.467 -1.1244 -0.5516  0.5642
 8335TIP3    H246497   2.851   5.144  11.345  1.2358 -0.7605  0.2660
 8336TIP3   OH246498   1.148   3.068   2.279  0.1607 -0.4233  0.0254
 8336TIP3    H146499   1.180   3.075   2.369  1.0185  0.8639 -0.3817
 8336TIP3    H246500   1.206   3.005   2.237  0.4827 -0.1295  0.0361
 8337TIP3   OH246501   0.114   5.514   2.816 -0.5472  0.1097 -0.1682
 8337TIP3    H146502   0.077   5.448   2.875 -2.8624  0.2052 -1.4573
 8337TIP3    H246503   0.040   5.569   2.792  0.4203  0.3140 -2.8336
 8338TIP3   OH246504   1.790   5.738   1.998 -0.1380 -0.2805 -0.2364
 8338TIP3    H146505   1.845   5.794   2.053 -0.1519  0.4608 -0.9578
 8338TIP3    H246506   1.813   5.763   1.909  0.1263 -1.7098 -0.5692
 8339TIP3   OH246507   1.261   1.017   1.175  0.5756  0.3521 -0.6565
 8339TIP3    H146508   1.223   1.061   1.099  1.2612 -1.2484 -1.9569
 8339TIP3    H246509   1.336   1.072   1.200 -0.2163  1.3874 -0.5452
 8340TIP3   OH246510   1.926   3.617   0.000  1.2516  0.5630 -0.3016
 8340TIP3    H146511   2.003   3.653  -0.043  0.7608  0.8003 -1.0044
 8340TIP3    H246512   1.952   3.603   0.091  1.9719  1.0836 -0.4284
 8341TIP3   OH246513   6.468   1.702   1.737  0.3439 -0.0733  0.2567
 8341TIP3    H146514   6.468   1.610   1.712  1.0827  0.1452 -0.6013
 8341TIP3    H246515   6.396   1.740   1.686  0.9443  0.0936 -0.4801
 8342TIP3   OH246516   0.192   0.867   0.446  0.2809  0.6960 -0.2990
 8342TIP3    H146517   0.097   0.856   0.445  0.2414  0.6633  1.8535
 8342TIP3    H246518   0.213   0.899   0.359 -1.6242  0.0313 -1.0338
 8343TIP3   OH246519   4.077   5.942   0.260  0.4960  0.1685  0.3950
 8343TIP3    H146520   4.166   5.914   0.281  0.6214  1.2084  1.2912
 8343TIP3    H246521   4.055   5.894   0.180  1.7171 -0.3772  0.3733
 8344TIP3   OH246522   6.717   4.093   1.351 -0.5464 -0.2508 -0.8202
 8344TIP3    H146523   6.638   4.124   1.395 -0.7639  0.0344 -1.4099
 8344TIP3    H246524   6.744   4.016   1.401  2.5677  3.3800  3.4299
 8345TIP3   OH246525   5.880   4.851  13.229  0.2550  0.6493  0.1603
 8345TIP3    H146526   5.849   4.761  13.225  0.8402  0.2937  2.6591
 8345TIP3    H246527   5.867   4.885  13.141  2.6750 -2.7529 -1.6364
 8346TIP3   OH246528   6.256   3.753   4.529 -0.1450  0.0109  0.3280
 8346TIP3    H146529   6.309   3.832   4.541 -0.7638  0.2452  1.5975
 8346TIP3    H246530   6.177   3.784   4.485 -0.1860  0.0244  0.4114
 8347TIP3   OH246531   2.996   1.048  12.357  0.0524  0.0029 -0.7234
 8347TIP3    H146532   3.032   0.962  12.333  1.5985 -0.0453  1.6044
 8347TIP3    H246533   3.072   1.100  12.382 -1.0984  1.2537  0.2384
 8348TIP3   OH246534   3.074   3.621  16.005  0.0476 -0.5266  0.2528
 8348TIP3    H146535   3.079   3.645  15.913  1.3663 -3.6267 -0.5476
 8348TIP3    H246536   3.000   3.560  16.010  0.7514 -1.3345  1.0015
 8349TIP3   OH246537   3.534   5.453  13.096 -0.5309 -1.0748 -0.6347
 8349TIP3    H146538   3.605   5.410  13.143  1.2108  0.3448 -1.9101
 8349TIP3    H246539   3.489   5.382  13.050  0.0352 -1.9782  0.1883
 8350TIP3   OH246540   5.379   6.197   1.227  0.2151 -0.0519 -0.2998
 8350TIP3    H146541   5.291   6.201   1.266  0.0817 -1.2107 -0.4561
 8350TIP3    H246542   5.376   6.261   1.156 -0.3561  0.2497 -0.0116
 8351TIP3   OH246543   2.646   4.382   5.937 -0.4316  0.8484 -0.0241
 8351TIP3    H146544   2.633   4.425   5.852  2.6584 -0.6091 -1.2837
 8351TIP3    H246545   2.654   4.289   5.916  2.9986  0.7250  1.5156
 8352TIP3   OH246546   4.484   0.588  12.039  0.1085 -0.5019 -0.1236
 8352TIP3    H146547   4.513   0.599  12.129  0.1406  0.8041 -0.2909
 8352TIP3    H246548   4.439   0.670  12.018 -1.3720 -1.4457 -0.7406
 8353TIP3   OH246549   3.988   2.259  11.896  0.5383  0.9984  0.1175
 8353TIP3    H146550   4.070   2.242  11.942  0.7352  1.1622 -0.1647
 8353TIP3    H246551   3.945   2.328  11.947 -0.5886 -0.8017  1.6581
 8354TIP3   OH246552   3.736   0.817   3.902 -0.0957 -0.2145 -0.6798
 8354TIP3    H146553   3.766   0.728   3.920  1.5423 -0.3783 -3.8045
 8354TIP3    H246554   3.760   0.868   3.979 -0.8270 -2.4104  1.0410
 8355TIP3   OH246555   5.096   1.834   0.469 -0.6297 -0.2808 -0.0198
 8355TIP3    H146556   5.164   1.862   0.407 -1.5649  1.6494 -0.2013
 8355TIP3    H246557   5.016   1.877   0.438 -1.4345 -0.5585  1.6384
 8356TIP3   OH246558   0.816   5.192   4.080 -0.4555 -0.0435 -0.1172
 8356TIP3    H146559   0.828   5.194   4.175  1.3162 -1.4157 -0.2988
 8356TIP3    H246560   0.792   5.102   4.061 -0.5489  0.1690 -1.0046
 8357TIP3   OH246561   3.229   5.431   0.663  0.1403  0.0301 -1.2986
 8357TIP3    H146562   3.241   5.382   0.582  3.2766  1.3760 -1.7243
 8357TIP3    H246563   3.230   5.523   0.636  2.8098  0.5486  0.3785
 8358TIP3   OH246564   5.023   1.789   5.674  0.2321 -0.3147  0.1953
 8358TIP3    H146565   5.070   1.862   5.714  0.5596  1.2412 -2.8788
 8358TIP3    H246566   4.965   1.756   5.743 -0.3493  3.2117  1.4795
 8359TIP3   OH246567   0.546   4.650   5.745  0.3911 -0.0380  0.5706
 8359TIP3    H146568   0.590   4.565   5.741  0.1301 -0.1973  1.0392
 8359TIP3    H246569   0.590   4.696   5.817 -0.5142 -0.3788  1.3577
 8360TIP3   OH246570   3.197   1.242  14.411 -0.0494 -0.0903 -0.7761
 8360TIP3    H146571   3.281   1.195  14.414  0.1957  0.4379  1.2850
 8360TIP3    H246572   3.221   1.334  14.411 -0.6305  0.0637 -0.0418
 8361TIP3   OH246573   4.549   2.015   3.356  0.1434  0.0733  0.3847
 8361TIP3    H146574   4.534   2.077   3.428 -3.2256  0.0765 -0.2509
 8361TIP3    H246575   4.571   2.071   3.281 -1.2298  0.4264  0.2287
 8362TIP3   OH246576   1.548   3.075   3.498 -0.3707 -0.0974 -0.1504
 8362TIP3    H146577   1.613   3.027   3.549  0.1880 -0.3802 -1.1004
 8362TIP3    H246578   1.598   3.113   3.426 -1.1544  0.2119 -0.5377
 8363TIP3   OH246579   4.126   0.873  13.588 -0.0744  0.2733  0.1224
 8363TIP3    H146580   4.221   0.882  13.580 -0.0890  1.2256  0.9697
 8363TIP3    H246581   4.097   0.846  13.501  0.9808 -0.1004 -0.1209
 8364TIP3   OH246582   6.220   1.566   1.464  0.0545  0.1167 -0.1939
 8364TIP3    H146583   6.156   1.537   1.399  0.4818 -0.6775 -0.2638
 8364TIP3    H246584   6.199   1.516   1.543  1.3637 -1.0959 -0.5809
 8365TIP3   OH246585   1.404   4.869  12.490 -0.0355 -0.5322 -0.5532
 8365TIP3    H146586   1.373   4.794  12.439  2.0388 -1.5245 -0.4118
 8365TIP3    H246587   1.387   4.944  12.434 -1.0768 -1.2308 -1.1911
 8366TIP3   OH246588   4.654   3.165  13.030 -0.9080  0.2443 -0.3508
 8366TIP3    H146589   4.605   3.197  12.954 -1.1316 -0.2977 -0.4323
 8366TIP3    H246590   4.714   3.100  12.993 -2.0617 -1.1086  0.1612
 8367TIP3   OH246591   3.408   6.632   2.805 -0.0422  0.4938 -0.4456
 8367TIP3    H146592   3.497   6.648   2.838 -0.1657 -1.0707  0.6822
 8367TIP3    H246593   3.379   6.554   2.852 -1.9841  0.9367 -0.9022
 8368TIP3   OH246594   2.889   0.695   2.567 -0.0314  0.7065  0.1904
 8368TIP3    H146595   2.947   0.766   2.540  0.7852  0.1555  0.4908
 8368TIP3    H246596   2.922   0.618   2.521 -1.8495  0.8032 -1.3386
 8369TIP3   OH246597   6.678   1.256   5.818 -0.2211 -0.4299 -0.1740
 8369TIP3    H146598   6.662   1.342   5.778 -0.0837  0.2793  1.2292
 8369TIP3    H246599   6.726   1.276   5.898 -0.7540 -1.7667  0.5035
 8370TIP3   OH246600   2.073   3.664   5.594  0.2077 -0.1587  0.1638
 8370TIP3    H146601   2.161   3.701   5.587  0.4628 -0.5676  1.1621
 8370TIP3    H246602   2.043   3.689   5.681 -1.4291  1.6129 -0.8774
 8371TIP3   OH246603   1.099   1.174   4.118  0.1408  0.2789  0.3591
 8371TIP3    H146604   1.020   1.204   4.163  1.1783  1.5201  1.3481
 8371TIP3    H246605   1.144   1.254   4.092  1.2894 -0.4231  0.1592
 8372TIP3   OH246606   5.342   2.324  11.182  0.1393  0.2466 -0.5364
 8372TIP3    H146607   5.374   2.247  11.229  0.3704 -0.5322 -1.9552
 8372TIP3    H246608   5.417   2.384  11.181 -0.0986  0.5871  0.7294
 8373TIP3   OH246609   3.093   1.227  12.768 -0.2013  0.5387  0.0711
 8373TIP3    H146610   3.036   1.261  12.838  0.4983  0.5288  0.6590
 8373TIP3    H246611   3.172   1.281  12.775  0.9332 -1.2148  1.0265
 8374TIP3   OH246612   4.774   1.859  16.825 -0.3093  0.4879  0.2275
 8374TIP3    H146613   4.799   1.843  16.916 -0.1689 -1.6220 -0.1475
 8374TIP3    H246614   4.857   1.877  16.780 -0.4245  1.9422  0.5848
 8375TIP3   OH246615   3.467   2.050   2.147  0.9461 -0.4037  0.4102
 8375TIP3    H146616   3.410   2.060   2.223  1.8055 -1.3249  1.1749
 8375TIP3    H246617   3.540   2.110   2.164  0.1962  0.8253 -0.6003
 8376TIP3   OH246618   2.581   5.721  13.687 -0.4468  0.4556  0.0723
 8376TIP3    H146619   2.587   5.715  13.783 -1.5250 -1.0152  0.0584
 8376TIP3    H246620   2.595   5.814  13.669  3.4390  0.2271  1.3628
 8377TIP3   OH246621   2.688   1.969   5.889 -0.0738  0.0302  0.0227
 8377TIP3    H146622   2.759   1.960   5.954 -0.0352  1.0733  0.1297
 8377TIP3    H246623   2.666   2.062   5.890 -0.3623 -0.0194 -1.1715
 8378TIP3   OH246624   6.632   2.619   0.900  0.5974 -0.4356  0.8712
 8378TIP3    H146625   6.577   2.697   0.896 -0.5603 -1.2364  0.8029
 8378TIP3    H246626   6.722   2.652   0.891  0.0310  0.7245 -0.8918
 8379TIP3   OH246627   3.118   1.423   1.841  0.4245  0.4595 -1.0794
 8379TIP3    H146628   3.135   1.329   1.850 -0.1295  0.3559 -1.0672
 8379TIP3    H246629   3.205   1.463   1.833  0.6892  0.0063 -0.4931
 8380TIP3   OH246630   3.370   6.495   4.851 -0.2523  0.2137  0.6172
 8380TIP3    H146631   3.454   6.467   4.814  0.2237 -0.3273  2.0560
 8380TIP3    H246632   3.370   6.590   4.841  1.0043  0.3323  1.5096
 8381TIP3   OH246633   2.183   3.844  15.989  0.3515  0.0981  0.1019
 8381TIP3    H146634   2.150   3.795  16.065 -1.9532  1.5627  0.0899
 8381TIP3    H246635   2.166   3.935  16.011  1.0653  0.6366 -1.5391
 8382TIP3   OH246636   0.414   0.227   2.799 -0.0369 -0.0077 -0.2156
 8382TIP3    H146637   0.392   0.203   2.888  1.9272 -0.7497  0.0889
 8382TIP3    H246638   0.347   0.184   2.745 -0.4372 -0.6647  0.7971
 8383TIP3   OH246639   1.721   0.322  16.065  0.0449 -0.0547  0.0127
 8383TIP3    H146640   1.752   0.236  16.093 -3.2885 -0.6045  2.2287
 8383TIP3    H246641   1.754   0.382  16.132  1.0369  0.2185 -0.6966
 8384TIP3   OH246642   5.948   2.583  15.446  0.5265 -0.3850  0.0354
 8384TIP3    H146643   5.855   2.604  15.437  0.7606 -0.2429 -2.5388
 8384TIP3    H246644   5.952   2.488  15.435  0.6848 -0.3791  0.0400
 8385TIP3   OH246645   0.863   5.879   3.780  0.2603 -0.1857  0.2402
 8385TIP3    H146646   0.893   5.934   3.707 -0.0873 -1.1541 -0.6449
 8385TIP3    H246647   0.937   5.821   3.798 -0.0618 -0.6994 -0.0875
 8386TIP3   OH246648   6.651   6.561  16.170 -0.4676  0.0401  0.9906
 8386TIP3    H146649   6.567   6.539  16.211  0.2020 -2.8752  0.9570
 8386TIP3    H246650   6.669   6.487  16.112  1.2046  1.5575 -0.4912
 8387TIP3   OH246651   2.215   5.921   0.925 -0.0959  0.0710  0.1918
 8387TIP3    H146652   2.158   5.916   0.848  2.0819 -2.0385 -1.3489
 8387TIP3    H246653   2.169   5.871   0.992 -2.4644  2.7038  0.6457
 8388TIP3   OH246654   0.539   0.101   3.256  0.3007  0.3432  0.8819
 8388TIP3    H146655   0.458   0.128   3.213  0.7410  0.2313 -0.0216
 8388TIP3    H246656   0.517   0.101   3.349 -0.9190 -0.3273  0.6073
 8389TIP3   OH246657   1.239   3.523  12.118  0.1295  0.3795  0.7232
 8389TIP3    H146658   1.227   3.603  12.068 -0.8662  0.7895  1.6116
 8389TIP3    H246659   1.275   3.551  12.201 -0.3757 -0.0791  1.1014
 8390TIP3   OH246660   2.777   6.809   3.967  0.0181 -0.1777 -0.0260
 8390TIP3    H146661   2.738   6.829   4.052 -2.2998  1.1467 -1.3316
 8390TIP3    H246662   2.862   6.854   3.967 -0.1651  0.1706  1.4110
 8391TIP3   OH246663   4.218   1.996   3.288  0.3500  0.3086  0.2480
 8391TIP3    H146664   4.221   2.045   3.371 -0.0414 -0.5756  0.7876
 8391TIP3    H246665   4.128   1.965   3.282  0.6010 -0.3596 -0.0870
 8392TIP3   OH246666   4.052   1.394   4.322  0.4661  0.4853 -1.0099
 8392TIP3    H146667   3.974   1.355   4.363  1.1909 -0.5080 -0.5663
 8392TIP3    H246668   4.123   1.374   4.382  1.0729  1.3813 -1.4257
 8393TIP3   OH246669   0.222   6.752   2.878 -1.0718 -0.3330 -0.5579
 8393TIP3    H146670   0.238   6.721   2.790 -1.2343 -0.5836 -0.4996
 8393TIP3    H246671   0.233   6.674   2.934 -0.4075 -0.0548 -0.2996
 8394TIP3   OH246672   1.107   5.542  14.621 -0.5255 -0.0647  0.6752
 8394TIP3    H146673   1.013   5.560  14.620 -0.8431 -1.7388 -0.5638
 8394TIP3    H246674   1.117   5.462  14.571  1.5413 -0.0989  1.1010
 8395TIP3   OH246675   6.426   1.527  15.922 -0.0246 -0.2022  0.0919
 8395TIP3    H146676   6.392   1.553  15.837  1.4465  1.1809 -0.1157
 8395TIP3    H246677   6.470   1.444  15.907 -2.1082 -1.3246  0.0900
 8396TIP3   OH246678   1.521   4.637  17.129 -0.4712 -0.2396 -0.1567
 8396TIP3    H146679   1.467   4.645  17.207 -1.2035  1.6149 -0.8208
 8396TIP3    H246680   1.604   4.601  17.160 -1.1915 -0.6816  1.2712
 8397TIP3   OH246681   3.506   4.804  14.310  0.0196  0.2786 -0.2287
 8397TIP3    H146682   3.483   4.888  14.271  1.6675  0.7265 -0.2612
 8397TIP3    H246683   3.475   4.739  14.247 -3.1912  0.7636  0.7832
 8398TIP3   OH246684   6.181   3.809  14.453  0.7075 -0.2788 -0.1031
 8398TIP3    H146685   6.234   3.768  14.522 -0.5332 -1.8508 -0.0588
 8398TIP3    H246686   6.100   3.758  14.452 -0.0505  0.9359 -1.4366
 8399TIP3   OH246687   4.720   4.265   6.421 -0.3264 -0.2937  0.1575
 8399TIP3    H146688   4.667   4.210   6.363  0.3901 -1.5806  0.7049
 8399TIP3    H246689   4.809   4.233   6.409  0.1480  0.9665  0.2539
 8400TIP3   OH246690   5.283   3.786  13.393 -0.0890 -0.0293 -0.0564
 8400TIP3    H146691   5.207   3.782  13.336 -0.3133 -0.2531  0.2538
 8400TIP3    H246692   5.265   3.720  13.461 -0.2989  0.9619  0.8573
 8401TIP3   OH246693   5.671   0.226   2.265  0.1697 -0.2813 -0.4302
 8401TIP3    H146694   5.619   0.179   2.330  0.9336  1.7334  1.7090
 8401TIP3    H246695   5.761   0.218   2.296  0.6240  0.1401 -1.6064
 8402TIP3   OH246696   1.588   1.540   0.492 -0.1267  0.1783 -0.0261
 8402TIP3    H146697   1.638   1.588   0.558 -0.1795  0.8600 -0.4825
 8402TIP3    H246698   1.649   1.526   0.420 -1.1916  2.9964 -1.5497
 8403TIP3   OH246699   0.230   2.474  10.917 -0.5337  0.1971 -0.2327
 8403TIP3    H146700   0.244   2.433  11.003  0.8786  0.1118 -0.4916
 8403TIP3    H246701   0.314   2.464  10.872 -0.9051  1.3119 -1.1831
 8404TIP3   OH246702   4.601   5.214  15.677 -0.4980 -0.2338  1.4027
 8404TIP3    H146703   4.525   5.219  15.619  0.0473  1.1641  0.8027
 8404TIP3    H246704   4.644   5.131  15.654 -0.7732 -0.1089  0.4375
 8405TIP3   OH246705   2.771   1.582  16.748 -0.3498  0.2302 -0.3858
 8405TIP3    H146706   2.750   1.491  16.728 -0.3464  0.1828 -0.1815
 8405TIP3    H246707   2.739   1.594  16.838 -0.5311  0.4885 -0.4839
 8406TIP3   OH246708   2.784   2.808  13.145  0.1295 -0.1424 -0.2203
 8406TIP3    H146709   2.795   2.778  13.055 -0.4329 -1.6746  0.2103
 8406TIP3    H246710   2.873   2.824  13.176  0.3485  0.0371 -0.9257
 8407TIP3   OH246711   2.577   5.317  15.017 -0.8487 -0.1780 -0.1082
 8407TIP3    H146712   2.534   5.277  15.093  0.0922 -1.3851 -0.2001
 8407TIP3    H246713   2.611   5.401  15.050 -1.3314 -0.2382  0.5409
 8408TIP3   OH246714   2.615   5.015  17.175 -0.1319 -0.4820  0.8839
 8408TIP3    H146715   2.541   5.029  17.234 -1.5193 -1.0452 -0.6847
 8408TIP3    H246716   2.588   5.055  17.092  1.8022  0.3496  0.6001
 8409TIP3   OH246717   3.479   0.595   4.952 -0.1685 -0.4685  0.1709
 8409TIP3    H146718   3.392   0.584   4.913  0.0133 -1.6722  0.0732
 8409TIP3    H246719   3.538   0.554   4.889  0.4951  0.5017  0.1524
 8410TIP3   OH246720   6.482   1.019   0.660 -0.0600  0.1707 -0.2199
 8410TIP3    H146721   6.496   0.973   0.742 -0.8872 -0.2627 -0.3145
 8410TIP3    H246722   6.405   1.075   0.676 -0.0306  0.3234 -0.5969
 8411TIP3   OH246723   0.358   1.166   4.970 -0.5352 -0.0225 -0.0318
 8411TIP3    H146724   0.293   1.236   4.971 -0.2401  0.2624 -0.2621
 8411TIP3    H246725   0.351   1.124   5.055 -0.8127  0.1998  0.0549
 8412TIP3   OH246726   1.449   6.623   4.011  0.0409  0.5360 -0.3848
 8412TIP3    H146727   1.529   6.583   3.975 -1.0004 -0.8637 -1.1877
 8412TIP3    H246728   1.412   6.555   4.067 -0.9313  0.9457 -0.5299
 8413TIP3   OH246729   3.882   2.769   4.046 -0.3197  1.0646 -0.5888
 8413TIP3    H146730   3.953   2.806   3.992  1.4561 -0.9778  0.2808
 8413TIP3    H246731   3.898   2.804   4.133  0.6193 -0.6727 -0.0381
 8414TIP3   OH246732   5.089   2.889  16.105  0.1806 -0.1719  0.2199
 8414TIP3    H146733   5.109   2.846  16.022  1.2547  0.9953 -0.1273
 8414TIP3    H246734   5.141   2.842  16.170 -0.5770 -1.0131  0.2342
 8415TIP3   OH246735   2.250   3.136  15.049  0.5825  0.2741  0.1207
 8415TIP3    H146736   2.320   3.075  15.073  1.0548  0.7260 -0.0912
 8415TIP3    H246737   2.265   3.156  14.957  0.2134  0.4227  0.0920
 8416TIP3   OH246738   1.226   2.457   1.258 -0.5335 -0.2156  0.8919
 8416TIP3    H146739   1.246   2.534   1.311 -1.4087  1.3302 -0.9180
 8416TIP3    H246740   1.130   2.455   1.255 -0.5046 -0.6423 -0.0515
 8417TIP3   OH246741   5.800   4.108   5.840 -0.0116 -0.0751  0.0357
 8417TIP3    H146742   5.856   4.031   5.828 -0.5095 -0.2032 -1.5036
 8417TIP3    H246743   5.716   4.072   5.870 -0.3109 -0.1522 -0.8886
 8418TIP3   OH246744   4.277   2.905  14.885  0.2565  0.2532  0.0507
 8418TIP3    H146745   4.259   2.990  14.927  0.0048  0.8658 -1.2707
 8418TIP3    H246746   4.352   2.922  14.829 -0.4467 -0.1268 -1.0215
 8419TIP3   OH246747   0.499   5.748   4.351  0.0402  0.3582  0.2107
 8419TIP3    H146748   0.512   5.807   4.426  0.1666 -0.1093  0.5633
 8419TIP3    H246749   0.440   5.796   4.293 -0.7592  0.3783  1.0132
 8420TIP3   OH246750   4.732   6.603  13.876  0.2580  0.1586 -0.1732
 8420TIP3    H146751   4.815   6.649  13.864 -0.5552  2.0741  1.2985
 8420TIP3    H246752   4.666   6.663  13.839 -0.6034 -0.8001 -0.2203
 8421TIP3   OH246753   1.252   0.459  11.542 -0.2247  0.4541 -0.3361
 8421TIP3    H146754   1.285   0.403  11.472 -1.2878  2.1178 -2.2499
 8421TIP3    H246755   1.157   0.453  11.534 -0.3950 -0.8617  2.2722
 8422TIP3   OH246756   1.982   2.039  13.210  0.0949  0.0120  0.0303
 8422TIP3    H146757   1.944   1.974  13.151 -0.1102  0.2790 -0.1304
 8422TIP3    H246758   1.972   2.122  13.165 -0.3904  0.2674  0.5948
 8423TIP3   OH246759   4.308   6.586  14.555 -0.1994 -0.2437 -0.0757
 8423TIP3    H146760   4.375   6.548  14.498 -0.1664 -0.0731 -0.1504
 8423TIP3    H246761   4.228   6.585  14.502 -0.1232  0.1034 -0.1970
 8424TIP3   OH246762   4.304   3.791  13.653  0.3179 -0.1281  0.1109
 8424TIP3    H146763   4.307   3.699  13.625 -0.9441 -0.2064  0.2132
 8424TIP3    H246764   4.225   3.826  13.613 -0.2588  0.3981  1.6746
 8425TIP3   OH246765   4.776   0.366   4.610  0.0061  0.5940  0.6661
 8425TIP3    H146766   4.824   0.446   4.632  0.5235  0.5271 -0.2053
 8425TIP3    H246767   4.778   0.362   4.514 -0.0186 -0.4557  0.7032
 8426TIP3   OH246768   6.561   5.093   5.420 -0.0640  0.4653 -0.1856
 8426TIP3    H146769   6.470   5.068   5.438 -0.5175  0.1996 -2.6759
 8426TIP3    H246770   6.592   5.129   5.503 -2.3112  0.1750  0.8336
 8427TIP3   OH246771   4.081   2.137   4.186 -0.2838 -0.2438  0.3091
 8427TIP3    H146772   4.014   2.194   4.225 -0.7594 -0.1306 -0.6609
 8427TIP3    H246773   4.120   2.092   4.261 -1.7864 -0.6861  0.8493
 8428TIP3   OH246774   5.376   0.083   3.196  0.6818  0.0784 -0.3781
 8428TIP3    H146775   5.361  -0.001   3.240  2.2872  0.0373  0.1391
 8428TIP3    H246776   5.304   0.138   3.224  0.3312 -0.7231  0.3436
 8429TIP3   OH246777   5.414   0.448   3.867  0.3664  0.1975 -0.2849
 8429TIP3    H146778   5.348   0.412   3.926  1.0842  2.6067  2.0594
 8429TIP3    H246779   5.365   0.499   3.803 -0.1245  0.9336  0.6812
 8430TIP3   OH246780   2.168   1.901  13.348  0.0571  0.3044  0.0842
 8430TIP3    H146781   2.074   1.914  13.337 -0.5255 -2.2921  1.4563
 8430TIP3    H246782   2.200   1.876  13.262 -0.6881  0.2653 -0.1826
 8431TIP3   OH246783   3.025   4.234   1.202  0.2997 -0.2893 -0.0088
 8431TIP3    H146784   3.051   4.195   1.119 -0.8585  1.4952 -1.2631
 8431TIP3    H246785   3.052   4.326   1.194 -2.7069  0.6871  0.2214
 8432TIP3   OH246786   1.878   0.987  16.105 -0.0839 -0.6568 -0.3371
 8432TIP3    H146787   1.821   0.961  16.032  2.1170 -0.4315 -2.1694
 8432TIP3    H246788   1.918   0.905  16.134  0.3979 -0.4895 -0.5373
 8433TIP3   OH246789   4.845   5.629  17.270  0.7413 -0.1336  0.1672
 8433TIP3    H146790   4.811   5.622  17.359 -1.3738  1.9371 -0.4354
 8433TIP3    H246791   4.886   5.716  17.266  1.7122 -0.6119 -0.5973
 8434TIP3   OH246792   2.947   6.269  16.314 -0.0391  0.2111  0.1808
 8434TIP3    H146793   2.907   6.184  16.298  0.6252 -0.0655 -0.0291
 8434TIP3    H246794   2.990   6.291  16.232 -1.2963  1.3569 -0.1844
 8435TIP3   OH246795   5.474   2.776   3.698 -0.1645 -0.2725  0.2141
 8435TIP3    H146796   5.558   2.818   3.719  0.2605 -1.2479  0.4923
 8435TIP3    H246797   5.490   2.733   3.614 -0.2032 -0.9506  0.5512
 8436TIP3   OH246798   3.630   5.928  15.486 -0.0001 -1.5377 -0.5501
 8436TIP3    H146799   3.681   5.888  15.556  1.6663  1.5057  0.0853
 8436TIP3    H246800   3.539   5.921  15.515  0.6847  0.0409  2.2174
 8437TIP3   OH246801   3.408   4.488  11.290  0.5793 -0.1659 -0.0495
 8437TIP3    H146802   3.436   4.448  11.372 -1.1345 -0.7565  0.2555
 8437TIP3    H246803   3.334   4.435  11.261 -0.6158  1.7429 -0.5347
 8438TIP3   OH246804   3.607   5.102  11.193 -0.4693 -0.0367  0.0797
 8438TIP3    H146805   3.565   5.079  11.110  0.4334 -0.9961 -0.1175
 8438TIP3    H246806   3.543   5.157  11.237 -1.4270 -0.4559 -0.7608
 8439TIP3   OH246807   6.602   1.204   2.520 -0.8496 -0.4527 -0.0820
 8439TIP3    H146808   6.510   1.194   2.496 -0.5873  1.5165 -2.0430
 8439TIP3    H246809   6.639   1.259   2.451  1.7171 -0.8982  0.8864
 8440TIP3   OH246810   1.852   4.892  14.713  0.2568 -0.2522  0.5326
 8440TIP3    H146811   1.893   4.973  14.683 -0.0091  0.0828  1.0732
 8440TIP3    H246812   1.818   4.912  14.800 -1.1331 -0.5041  0.0517
 8441TIP3   OH246813   1.209   4.365   5.797 -0.4243 -0.5879  0.0342
 8441TIP3    H146814   1.286   4.310   5.783 -1.5732 -2.0218 -0.8037
 8441TIP3    H246815   1.245   4.451   5.818  1.4009 -1.7696  1.9161
 8442TIP3   OH246816   2.682   2.076  13.981 -0.4326  0.3121 -0.4574
 8442TIP3    H146817   2.642   1.990  13.995  2.1749 -0.9011 -0.2452
 8442TIP3    H246818   2.695   2.111  14.069 -0.4218  0.4354 -0.5075
 8443TIP3   OH246819   1.328   5.109   4.732 -0.1779  0.3841  0.2139
 8443TIP3    H146820   1.271   5.057   4.675 -0.0619  1.6495 -1.0790
 8443TIP3    H246821   1.405   5.054   4.745 -0.1429  0.1319 -0.9723
 8444TIP3   OH246822   3.441   0.799   1.335  0.2573  0.3885 -0.1013
 8444TIP3    H146823   3.401   0.843   1.260  0.5622  1.1171  0.1563
 8444TIP3    H246824   3.474   0.870   1.390 -1.5912 -0.0573  1.6433
 8445TIP3   OH246825   5.107   5.954   3.744 -0.1034 -0.5062  0.1727
 8445TIP3    H146826   5.101   6.049   3.733 -0.3093 -0.5907 -0.4985
 8445TIP3    H246827   5.075   5.937   3.832 -3.0187 -0.2562 -0.8049
 8446TIP3   OH246828   6.609   5.432  14.256 -0.4627  0.0040 -0.8654
 8446TIP3    H146829   6.662   5.361  14.293 -3.9553 -2.1629  0.2302
 8446TIP3    H246830   6.602   5.411  14.163  0.4051  0.2355 -0.9957
 8447TIP3   OH246831   2.254   5.373   5.814  0.3756  0.3514 -0.6869
 8447TIP3    H146832   2.210   5.441   5.762  0.4877  1.5442  0.7331
 8447TIP3    H246833   2.347   5.393   5.805  0.4075  0.3953 -0.2653
 8448TIP3   OH246834   5.594   6.450   2.499 -0.0077  0.0896  0.0288
 8448TIP3    H146835   5.601   6.356   2.484  0.5415 -0.0942  1.3844
 8448TIP3    H246836   5.571   6.486   2.413 -1.3666 -1.3967 -0.2570
 8449TIP3   OH246837   1.025   0.491  14.291  0.3608  0.2708 -0.3563
 8449TIP3    H146838   0.970   0.558  14.331  1.6071  1.8475 -1.2109
 8449TIP3    H246839   0.964   0.431  14.250 -0.7406  1.9731 -1.2625
 8450TIP3   OH246840   0.026   4.813  15.028  0.6501  0.2432  0.4797
 8450TIP3    H146841  -0.012   4.900  15.043  0.9083  0.4578 -0.0881
 8450TIP3    H246842   0.028   4.804  14.933 -0.5008 -0.8940  0.5463
 8451TIP3   OH246843   2.517   4.545  14.537  0.5109 -0.1506 -0.7994
 8451TIP3    H146844   2.484   4.467  14.492 -0.5437 -0.1390 -0.0878
 8451TIP3    H246845   2.482   4.619  14.487 -1.0536 -0.1336  0.2563
 8452TIP3   OH246846   1.259   4.575   6.466 -0.0689  0.0201 -0.3927
 8452TIP3    H146847   1.347   4.552   6.496 -0.5748  0.3558  1.4216
 8452TIP3    H246848   1.242   4.660   6.506 -1.3383 -0.1765 -0.5041
 8453TIP3   OH246849   2.680   0.373   0.289 -0.2941 -0.3294 -0.1293
 8453TIP3    H146850   2.629   0.441   0.333  0.6001  0.2973 -0.0272
 8453TIP3    H246851   2.654   0.379   0.197  0.9315  1.2397 -0.3940
 8454TIP3   OH246852   5.048   2.172  13.480 -0.6319  0.1426 -0.5925
 8454TIP3    H146853   5.076   2.260  13.455 -1.1537  0.1523 -1.1808
 8454TIP3    H246854   5.123   2.116  13.459 -0.5084  0.3695 -0.7677
 8455TIP3   OH246855   4.825   3.536  11.872  0.5053  0.0482 -0.3955
 8455TIP3    H146856   4.743   3.487  11.876  0.6636 -0.1621  0.4136
 8455TIP3    H246857   4.890   3.471  11.847  0.5490  0.0532 -0.2960
 8456TIP3   OH246858   3.804   0.282   1.313 -0.0703 -0.4417 -0.0824
 8456TIP3    H146859   3.798   0.364   1.264  1.8089  0.1906  0.6999
 8456TIP3    H246860   3.855   0.224   1.257  1.1981 -0.0554  0.6403
 8457TIP3   OH246861   0.971   6.324  10.282 -0.0019  0.1440  0.1254
 8457TIP3    H146862   0.956   6.370  10.199 -2.3007  1.1760  1.0725
 8457TIP3    H246863   0.949   6.388  10.350 -0.9179 -1.5706  1.5021
 8458TIP3   OH246864   5.512   6.273  11.030 -0.7230  0.1954  0.5215
 8458TIP3    H146865   5.503   6.241  11.120  1.1523  0.5565  0.8438
 8458TIP3    H246866   5.523   6.368  11.040  2.0540 -0.0417  0.1057
 8459TIP3   OH246867   1.882   2.042  15.091 -0.0537  0.5744 -0.2974
 8459TIP3    H146868   1.885   1.983  15.017 -0.8425 -0.4035  0.4315
 8459TIP3    H246869   1.965   2.090  15.088 -0.9985  2.1561 -3.0811
 8460TIP3   OH246870   2.861   6.317   5.772 -0.7772 -0.3269 -0.2265
 8460TIP3    H146871   2.855   6.385   5.839  0.1168 -0.6813  0.2264
 8460TIP3    H246872   2.789   6.257   5.791 -1.2196  0.1881 -0.2809
 8461TIP3   OH246873   0.663   3.273  12.749  0.0656 -0.1907 -0.4231
 8461TIP3    H146874   0.699   3.184  12.744 -0.2683 -0.4225  1.0838
 8461TIP3    H246875   0.688   3.313  12.666  0.3788 -1.6311 -1.0488
 8462TIP3   OH246876   0.655   4.291   0.091 -0.5814  0.1767 -0.1817
 8462TIP3    H146877   0.707   4.346   0.149  0.4570  0.9524 -1.8260
 8462TIP3    H246878   0.698   4.297   0.006 -2.2320 -0.7303 -1.1203
 8463TIP3   OH246879   4.000   3.510  14.474  0.1196 -0.2827  0.2642
 8463TIP3    H146880   3.906   3.523  14.463  0.0178 -0.6412  0.6817
 8463TIP3    H246881   4.038   3.533  14.389 -0.2381  0.8581  0.4072
 8464TIP3   OH246882   3.705   2.405   2.897 -0.0499  0.5227 -0.5365
 8464TIP3    H146883   3.798   2.384   2.899 -0.1921 -0.0110  1.4250
 8464TIP3    H246884   3.663   2.335   2.947 -1.1719  2.3058  1.0732
 8465TIP3   OH246885   0.519   5.970   4.537 -0.0079 -0.8293 -0.2879
 8465TIP3    H146886   0.541   6.010   4.621  2.1563 -0.8625 -0.8127
 8465TIP3    H246887   0.514   6.043   4.476  0.6788 -1.0205 -0.5795
 8466TIP3   OH246888   5.808   3.726  13.862  0.2645  0.1752 -0.2306
 8466TIP3    H146889   5.847   3.713  13.776 -1.7773 -1.1027 -1.0114
 8466TIP3    H246890   5.881   3.748  13.919  1.6237  1.1396 -2.3084
 8467TIP3   OH246891   1.949   0.956  13.139  0.3496 -0.6606 -0.0059
 8467TIP3    H146892   1.969   0.995  13.224 -2.4759  0.4205  0.2333
 8467TIP3    H246893   2.005   1.002  13.077  2.2038 -1.2420  1.1916
 8468TIP3   OH246894   4.249   6.282  15.767  0.0940  0.7792 -0.4312
 8468TIP3    H146895   4.331   6.262  15.811 -0.4172  0.3717  0.3484
 8468TIP3    H246896   4.248   6.225  15.690 -0.1066 -0.2174  0.3154
 8469TIP3   OH246897   6.263   6.458  12.559  0.3069  0.6363  0.3059
 8469TIP3    H146898   6.297   6.459  12.648  2.1869  1.9205 -0.3959
 8469TIP3    H246899   6.289   6.542  12.522  0.1631 -0.1473 -1.6798
 8470TIP3   OH246900   4.714   2.648   5.792  0.3869  0.0354  0.5415
 8470TIP3    H146901   4.620   2.643   5.813  0.2540 -0.6633 -0.1966
 8470TIP3    H246902   4.734   2.741   5.796 -0.4213  0.2234  0.3561
 8471TIP3   OH246903   6.426   6.477   2.731 -0.1263  0.0606 -1.0244
 8471TIP3    H146904   6.458   6.405   2.676 -1.6155 -0.2833 -1.4696
 8471TIP3    H246905   6.502   6.504   2.782  0.3505 -2.1397 -0.5081
 8472TIP3   OH246906   4.397   3.230   2.260  0.0300 -0.3302  0.0620
 8472TIP3    H146907   4.320   3.235   2.203  0.0790  0.3453  0.0495
 8472TIP3    H246908   4.394   3.142   2.298 -1.3632  0.0793  0.9303
 8473TIP3   OH246909   0.135   0.016  11.006 -0.6212  0.0274  0.5956
 8473TIP3    H146910   0.160  -0.035  10.929  0.5873  1.7706 -0.2103
 8473TIP3    H246911   0.048   0.050  10.985 -0.5229  0.0534  0.2257
 8474TIP3   OH246912   4.344   6.592   3.218  0.4293 -0.2574 -0.3450
 8474TIP3    H146913   4.408   6.620   3.283  1.2935 -2.0387 -0.3756
 8474TIP3    H246914   4.391   6.598   3.134  0.0038  0.0535 -0.5617
 8475TIP3   OH246915   1.796   2.917  15.753  0.3523 -0.0301 -0.3892
 8475TIP3    H146916   1.868   2.900  15.692  0.7773  1.2010 -0.2563
 8475TIP3    H246917   1.810   2.855  15.825  0.4589 -0.7628 -1.0419
 8476TIP3   OH246918   5.479   0.901   6.010 -0.1603 -0.3062  0.5328
 8476TIP3    H146919   5.404   0.892   6.069 -2.0248 -1.0504 -1.8757
 8476TIP3    H246920   5.473   0.825   5.952  1.7415  0.2985 -0.4867
 8477TIP3   OH246921   4.312   5.982   3.982  0.2970  0.0243  0.0173
 8477TIP3    H146922   4.230   6.011   4.022 -0.6372 -0.0917 -1.7341
 8477TIP3    H246923   4.352   6.062   3.947  1.5952  0.2688  1.9965
 8478TIP3   OH246924   0.925   2.079  13.473  0.5454 -0.0453 -0.4114
 8478TIP3    H146925   0.937   2.173  13.458 -0.8424 -0.0550 -1.6537
 8478TIP3    H246926   0.835   2.071  13.502  1.0125 -0.8802  0.8596
 8479TIP3   OH246927   0.784   1.406   3.432 -0.3368  0.1516 -0.2548
 8479TIP3    H146928   0.737   1.416   3.349 -0.6971 -2.2921 -0.4028
 8479TIP3    H246929   0.716   1.416   3.499 -0.3555  0.4907 -0.3247
 8480TIP3   OH246930   6.144   5.087   3.643 -0.0229 -0.3843 -0.1635
 8480TIP3    H146931   6.229   5.117   3.611  0.4151 -2.8442 -1.4644
 8480TIP3    H246932   6.144   4.992   3.627 -3.0098 -0.4437 -0.2256
 8481TIP3   OH246933   6.689   5.400  15.445 -0.0034  0.1374 -0.2506
 8481TIP3    H146934   6.657   5.489  15.455 -1.3470 -0.2686 -0.7839
 8481TIP3    H246935   6.700   5.368  15.535 -2.0142 -0.0207 -0.0344
 8482TIP3   OH246936   0.681   1.463   4.760 -0.0252  0.3119 -0.3411
 8482TIP3    H146937   0.624   1.425   4.693 -0.9442  0.1518  0.5314
 8482TIP3    H246938   0.642   1.436   4.843  0.3262  1.6815  0.2727
 8483TIP3   OH246939   1.809   6.299   3.327 -0.3453  0.1055  0.8296
 8483TIP3    H146940   1.861   6.345   3.262 -1.5559 -0.2983 -0.4581
 8483TIP3    H246941   1.846   6.326   3.411  1.8383 -0.0779 -0.0400
 8484TIP3   OH246942   6.170   0.554  15.635 -0.4555  0.5757 -0.4703
 8484TIP3    H146943   6.119   0.473  15.633  0.3506  0.0653 -0.9440
 8484TIP3    H246944   6.204   0.563  15.546  1.7051 -0.0355  0.2656
 8485TIP3   OH246945   4.452   5.465   6.161  0.0909  0.3298 -0.2361
 8485TIP3    H146946   4.406   5.450   6.243  0.9377  0.6792  0.3138
 8485TIP3    H246947   4.543   5.484   6.187  0.5789 -0.4877 -1.3042
 8486TIP3   OH246948   4.145   3.558   4.850  0.0652 -0.1884 -0.5178
 8486TIP3    H146949   4.153   3.505   4.930  0.4799 -0.9586 -1.0625
 8486TIP3    H246950   4.056   3.593   4.853  0.0921 -0.1680  0.3046
 8487TIP3   OH246951   3.668   1.770  14.883 -0.1217 -0.5170 -0.1389
 8487TIP3    H146952   3.646   1.696  14.938  1.6913 -0.2583  0.9860
 8487TIP3    H246953   3.640   1.744  14.795 -3.2488 -0.8287  0.9119
 8488TIP3   OH246954   2.761   3.405  13.360  0.3490 -0.1981  0.1248
 8488TIP3    H146955   2.695   3.366  13.417  0.9651  0.1373  1.0744
 8488TIP3    H246956   2.825   3.335  13.346 -0.0622 -0.4443 -0.5955
 8489TIP3   OH246957   4.615   1.352   5.136  0.5186  0.4754 -0.5020
 8489TIP3    H146958   4.605   1.308   5.052  0.6156 -0.4610 -0.0236
 8489TIP3    H246959   4.586   1.442   5.119  0.9318  0.4045 -1.6363
 8490TIP3   OH246960   5.789   6.496  14.940 -0.0670  0.0157  0.2639
 8490TIP3    H146961   5.790   6.579  14.988  2.5559  0.3011 -0.1814
 8490TIP3    H246962   5.768   6.520  14.850 -1.3420 -0.0719  0.5305
 8491TIP3   OH246963   2.250   1.370   3.811 -0.3011  0.2398  0.0970
 8491TIP3    H146964   2.274   1.313   3.738 -0.7456  0.1819 -0.0052
 8491TIP3    H246965   2.281   1.457   3.784  0.6161  0.0082  0.3698
 8492TIP3   OH246966   2.850   5.310   4.793  0.1836  0.3666  0.2507
 8492TIP3    H146967   2.868   5.381   4.855 -1.7864  1.1980 -0.0937
 8492TIP3    H246968   2.919   5.246   4.810  1.1071  1.6766  1.6191
 8493TIP3   OH246969   6.274   4.777   6.091  0.1999  0.5202 -0.4099
 8493TIP3    H146970   6.318   4.761   6.174  1.8661 -1.6144 -1.6554
 8493TIP3    H246971   6.342   4.810   6.033 -0.9978  2.1919 -0.9029
 8494TIP3   OH246972   2.561   3.165   6.203  0.0144 -0.1324 -0.2557
 8494TIP3    H146973   2.508   3.219   6.261  1.9641  1.1566  0.3799
 8494TIP3    H246974   2.575   3.083   6.251 -1.4426 -0.5075 -0.4645
 8495TIP3   OH246975   5.453   2.794  14.970  0.1063  0.2535 -0.5861
 8495TIP3    H146976   5.391   2.817  14.900 -2.9266 -3.5026  0.7307
 8495TIP3    H246977   5.408   2.818  15.051  1.6056  0.1252  0.3075
 8496TIP3   OH246978   4.707   4.470  14.089 -0.2887  0.2965  0.2664
 8496TIP3    H146979   4.637   4.408  14.068 -0.4943  0.2192  1.1667
 8496TIP3    H246980   4.787   4.428  14.055 -0.5294 -0.1174  0.2115
 8497TIP3   OH246981   0.545   2.764   6.698  0.1748  0.2613 -0.0517
 8497TIP3    H146982   0.609   2.826   6.731  0.9663  0.0641 -1.1559
 8497TIP3    H246983   0.529   2.704   6.770  1.6874 -0.0309  0.0545
 8498TIP3   OH246984   6.116   2.073   1.383 -0.3151 -0.0050 -0.7906
 8498TIP3    H146985   6.058   2.002   1.353 -0.7392 -0.3427  0.8092
 8498TIP3    H246986   6.190   2.070   1.322 -0.1822 -2.0130 -0.5692
 8499TIP3   OH246987   5.529   6.102  13.552 -0.0784  0.2833 -0.3573
 8499TIP3    H146988   5.564   6.019  13.584  1.6936  1.3002  0.4800
 8499TIP3    H246989   5.436   6.100  13.573  0.1332 -1.1097  0.4698
 8500TIP3   OH246990   3.441   3.493  15.220 -0.1294 -0.0162 -0.7038
 8500TIP3    H146991   3.452   3.398  15.217 -0.4627 -0.1284  1.1561
 8500TIP3    H246992   3.364   3.509  15.165 -0.6266 -0.9125 -0.2837
 8501TIP3   OH246993   6.351   3.127  14.033 -0.0355  0.8443 -0.5926
 8501TIP3    H146994   6.319   3.038  14.020  0.8826  0.4431 -0.1379
 8501TIP3    H246995   6.388   3.127  14.121 -0.5018  1.8164 -0.3964
 8502TIP3   OH246996   5.727   2.394   2.378 -0.2834  0.1351  0.1478
 8502TIP3    H146997   5.736   2.417   2.285  0.9024  0.1161  0.2506
 8502TIP3    H246998   5.700   2.302   2.377  1.0821 -0.2669 -0.1548
 8503TIP3   OH246999   4.359   4.038  10.969  0.5568 -0.2731  0.3588
 8503TIP3    H147000   4.395   4.105  11.027 -0.4935 -0.3347  1.0965
 8503TIP3    H247001   4.344   4.084  10.886  0.5286  0.2274  0.6383
 8504TIP3   OH247002   3.731   1.659   3.599 -0.4445 -0.5002  0.1381
 8504TIP3    H147003   3.798   1.598   3.632 -1.8811 -1.0412  2.2065
 8504TIP3    H247004   3.722   1.724   3.669 -0.5906  0.7710 -1.0495
 8505TIP3   OH247005   4.303   5.520   5.065  0.2435  0.2418 -0.3126
 8505TIP3    H147006   4.369   5.452   5.054 -1.8175 -1.8304 -0.0108
 8505TIP3    H247007   4.302   5.539   5.159 -0.5584 -0.7332 -0.1174
 8506TIP3   OH247008   1.691   0.919   4.032  0.2002 -0.6821 -0.4537
 8506TIP3    H147009   1.603   0.942   4.060 -0.3466 -0.9749 -1.9417
 8506TIP3    H247010   1.739   1.002   4.033  0.8228 -0.9815  3.4935
 8507TIP3   OH247011   2.329   2.946  12.768 -0.1210  0.4061  0.2128
 8507TIP3    H147012   2.359   2.901  12.689  0.6347 -0.1589  0.8131
 8507TIP3    H247013   2.258   3.003  12.738  2.0663  2.3768 -1.3870
 8508TIP3   OH247014   1.163   5.603   1.934  0.0855  0.1833 -0.1232
 8508TIP3    H147015   1.179   5.695   1.911 -0.9782  0.3753 -0.1323
 8508TIP3    H247016   1.222   5.586   2.007 -0.2288  1.1010  0.3563
 8509TIP3   OH247017   5.415   1.816   4.525 -0.1120 -0.4561 -0.0048
 8509TIP3    H147018   5.470   1.740   4.542 -2.2922 -2.1927 -0.4580
 8509TIP3    H247019   5.402   1.855   4.612  1.6855 -0.0946  0.1253
 8510TIP3   OH247020   2.823   2.285  12.766  0.4592 -0.1940  0.1145
 8510TIP3    H147021   2.783   2.291  12.680  0.9416 -0.7450 -0.1512
 8510TIP3    H247022   2.751   2.262  12.825  0.0777  0.4862 -0.0927
 8511TIP3   OH247023   0.847   4.057  11.742  0.8144  0.1602  0.4488
 8511TIP3    H147024   0.802   3.986  11.696  0.1866  1.5495 -1.1680
 8511TIP3    H247025   0.776   4.110  11.778  1.3065 -0.8131  2.9034
 8512TIP3   OH247026   5.600   3.167   6.352 -0.1086  0.0790 -0.2458
 8512TIP3    H147027   5.603   3.138   6.260  1.5851  1.1040 -0.5270
 8512TIP3    H247028   5.594   3.085   6.402  2.6407 -0.6944 -1.1223
 8513TIP3   OH247029   2.669   2.826   2.966  0.0884 -0.1532  0.4041
 8513TIP3    H147030   2.612   2.750   2.980  0.4142 -0.5552 -0.4357
 8513TIP3    H247031   2.639   2.865   2.885  0.2837  0.2985  0.5445
 8514TIP3   OH247032   3.540   5.446   5.950 -0.6787 -0.5975  0.3537
 8514TIP3    H147033   3.570   5.389   5.879  0.0363 -0.1715  0.3070
 8514TIP3    H247034   3.490   5.388   6.008  0.0130 -1.2614  0.2926
 8515TIP3   OH247035   1.715   2.694  15.226 -0.8896  0.0702 -0.3175
 8515TIP3    H147036   1.648   2.715  15.161  0.2167  1.7528 -0.9514
 8515TIP3    H247037   1.666   2.680  15.307 -1.9200  3.2541 -0.3140
 8516TIP3   OH247038   4.632   6.182   1.798  0.0134 -0.2325  0.1022
 8516TIP3    H147039   4.579   6.238   1.741 -1.6818 -0.3753  1.4849
 8516TIP3    H247040   4.685   6.130   1.738 -0.7315  0.5904 -1.3009
 8517TIP3   OH247041   0.284   2.091   2.271  0.0380  0.6314  0.4137
 8517TIP3    H147042   0.223   2.164   2.261 -0.4965  0.0315 -0.8068
 8517TIP3    H247043   0.257   2.028   2.204  0.3998 -0.7555  1.5553
 8518TIP3   OH247044   6.570   3.703   3.187  0.1118  0.9404  0.3221
 8518TIP3    H147045   6.498   3.692   3.125  1.5517 -2.4747 -0.8615
 8518TIP3    H247046   6.534   3.677   3.271 -1.3066  3.7323  0.6318
 8519TIP3   OH247047   0.256   4.681   6.026  0.1477 -0.0615  0.0148
 8519TIP3    H147048   0.199   4.631   5.967 -0.2005  0.9442 -0.5286
 8519TIP3    H247049   0.344   4.652   6.005  0.0156  0.1805 -0.9116
 8520TIP3   OH247050   4.742   2.372  16.542 -0.5132  0.0280  0.0590
 8520TIP3    H147051   4.647   2.376  16.542 -0.4682  2.2047 -1.3685
 8520TIP3    H247052   4.769   2.423  16.618 -0.4755 -0.7407  0.5691
 8521TIP3   OH247053   3.525   6.519  12.899 -0.0768  0.0549 -0.5438
 8521TIP3    H147054   3.531   6.424  12.910 -0.6993  0.1814  0.9910
 8521TIP3    H247055   3.441   6.533  12.855 -1.6091  0.0948  2.2800
 8522TIP3   OH247056   1.346   5.063  17.151 -0.5503  0.2225 -0.9951
 8522TIP3    H147057   1.366   4.976  17.117 -1.2938 -0.1028 -0.6205
 8522TIP3    H247058   1.276   5.048  17.215  0.0030  0.9801 -0.2155
 8523TIP3   OH247059   3.738   6.042   4.861  0.2154  0.4181 -0.2591
 8523TIP3    H147060   3.802   5.990   4.910  0.1354  1.0623  0.5387
 8523TIP3    H247061   3.688   6.088   4.928  1.4229  2.8725 -0.9712
 8524TIP3   OH247062   0.775   5.443  17.047  0.1988 -0.2844  0.5035
 8524TIP3    H147063   0.714   5.436  16.973 -2.1289  2.2214  2.1092
 8524TIP3    H247064   0.729   5.400  17.119  1.2565 -0.1906  1.2388
 8525TIP3   OH247065   5.340   0.160  14.788 -0.5284  0.4072  0.2871
 8525TIP3    H147066   5.425   0.185  14.752 -0.6633  0.8940  0.3043
 8525TIP3    H247067   5.345   0.187  14.880  0.5065 -2.4856  1.1210
 8526TIP3   OH247068   0.356   1.561  14.117 -0.0840  0.7008 -0.0990
 8526TIP3    H147069   0.443   1.525  14.100  0.0586  0.8913  0.2292
 8526TIP3    H247070   0.313   1.558  14.031  0.7357  1.9209 -0.5728
 8527TIP3   OH247071   3.978   6.055  15.466  0.0026 -0.2589 -0.3676
 8527TIP3    H147072   3.961   6.018  15.553  1.6314 -2.6197 -1.0018
 8527TIP3    H247073   4.073   6.066  15.464  0.0336 -0.7610 -2.0494
 8528TIP3   OH247074   5.794   3.203   0.348 -0.7630 -0.0430  0.5008
 8528TIP3    H147075   5.801   3.288   0.391 -0.7335  0.1315  0.1525
 8528TIP3    H247076   5.880   3.190   0.308 -0.9131 -0.0369  0.1785
 8529TIP3   OH247077   0.681   3.190   0.406 -0.9195  0.1594  0.7878
 8529TIP3    H147078   0.676   3.121   0.471 -1.7970 -1.2596 -0.7448
 8529TIP3    H247079   0.658   3.270   0.453 -0.6849 -0.7145  2.3993
 8530TIP3   OH247080   1.861   4.926  11.533  0.0020  0.7215 -0.5884
 8530TIP3    H147081   1.907   5.004  11.567 -0.2252  0.2874  0.7316
 8530TIP3    H247082   1.836   4.877  11.611  0.2059 -0.7277 -1.4129
 8531TIP3   OH247083   2.155   5.388   0.817  0.1197 -0.1860  0.3083
 8531TIP3    H147084   2.237   5.434   0.835 -0.0164  0.1153  0.1761
 8531TIP3    H247085   2.109   5.387   0.901  0.9617 -1.7932  0.7592
 8532TIP3   OH247086   4.387   3.668   2.565  0.4027  0.4216 -0.3766
 8532TIP3    H147087   4.363   3.708   2.648  0.1313 -1.1602  0.3214
 8532TIP3    H247088   4.320   3.699   2.503 -0.3691  0.2558  0.3701
 8533TIP3   OH247089   1.717   2.886  16.390  0.9038  0.4904  0.4381
 8533TIP3    H147090   1.758   2.970  16.369  2.2102 -0.2896 -0.2103
 8533TIP3    H247091   1.623   2.901  16.380  1.3051  0.6071 -4.5838
 8534TIP3   OH247092   5.796   2.354   5.608 -0.2126 -0.6203 -0.1095
 8534TIP3    H147093   5.721   2.310   5.568  0.6757  0.7619 -3.4614
 8534TIP3    H247094   5.766   2.443   5.626  0.0185 -0.6458  0.4210
 8535TIP3   OH247095   1.355   5.954   4.521  0.0256 -0.1933 -0.2426
 8535TIP3    H147096   1.396   5.941   4.607  0.3053  1.0575 -0.1649
 8535TIP3    H247097   1.262   5.965   4.540 -0.2786 -2.4401 -0.3588
 8536TIP3   OH247098   5.125   4.126   5.196  0.7770  0.3210 -0.4121
 8536TIP3    H147099   5.110   4.188   5.268 -0.1273 -0.4322  0.0524
 8536TIP3    H247100   5.136   4.182   5.119  0.4705  1.0884  0.0896
 8537TIP3   OH247101   5.297   2.912   2.835 -0.0484  0.7072 -0.0835
 8537TIP3    H147102   5.228   2.899   2.770  2.0253  1.3201 -2.5119
 8537TIP3    H247103   5.276   2.851   2.905 -1.8074 -0.7200 -1.7933
 8538TIP3   OH247104   3.883   1.415  16.579  0.5646 -0.1188 -0.4676
 8538TIP3    H147105   3.880   1.502  16.618  2.2019  0.6584 -1.9920
 8538TIP3    H247106   3.792   1.384  16.581 -0.6106  2.9994 -2.9464
 8539TIP3   OH247107   6.398   3.548   5.153  0.4814 -0.6467 -0.5457
 8539TIP3    H147108   6.458   3.582   5.087  0.4395  1.2179  0.3366
 8539TIP3    H247109   6.316   3.596   5.138  1.1138  1.4854  2.1965
 8540TIP3   OH247110   5.065   5.178  12.527 -0.2084 -0.4946  0.0347
 8540TIP3    H147111   4.993   5.175  12.464 -0.1499 -0.8214 -0.0154
 8540TIP3    H247112   5.022   5.178  12.613 -0.3770  2.1818 -0.0141
 8541TIP3   OH247113   3.280   2.821   2.638 -0.0531 -0.3202  0.5757
 8541TIP3    H147114   3.243   2.910   2.638 -0.6827 -0.5575 -1.1282
 8541TIP3    H247115   3.330   2.816   2.719 -0.3369  1.4637  0.8881
 8542TIP3   OH247116   6.374   6.763   1.913 -0.2148 -0.5088 -0.2883
 8542TIP3    H147117   6.396   6.674   1.885 -2.1503 -1.6190  1.5721
 8542TIP3    H247118   6.407   6.768   2.003 -1.7245  0.0030  0.2537
 8543TIP3   OH247119   3.721   4.964   2.587 -0.8044  0.2016  0.7964
 8543TIP3    H147120   3.679   4.879   2.600 -1.8942  0.3822 -1.3633
 8543TIP3    H247121   3.748   4.964   2.495 -0.5240  2.0734  0.8597
 8544TIP3   OH247122   1.428   1.054   0.190  0.1856  0.1594 -0.1239
 8544TIP3    H147123   1.429   1.133   0.135  2.6248 -1.6358 -2.7316
 8544TIP3    H247124   1.465   1.084   0.273 -1.4561  2.3836 -0.1240
 8545TIP3   OH247125   3.725   3.803  14.865  0.6387  0.5611 -0.6334
 8545TIP3    H147126   3.661   3.805  14.936 -0.0398  1.8047 -1.2548
 8545TIP3    H247127   3.788   3.871  14.888  1.7712 -0.6819 -0.0109
 8546TIP3   OH247128   3.176   2.325  15.365  0.0386 -0.3658 -0.4868
 8546TIP3    H147129   3.112   2.349  15.432  0.6468 -0.3601  0.0897
 8546TIP3    H247130   3.201   2.408  15.325 -0.1264 -0.3434 -0.5442
 8547TIP3   OH247131   1.445   3.901   2.757 -0.3313  0.6646 -0.4026
 8547TIP3    H147132   1.461   3.895   2.851  0.4942  1.7383 -0.4667
 8547TIP3    H247133   1.390   3.979   2.746 -0.7389  0.3295 -0.7748
 8548TIP3   OH247134   4.730   2.135  13.431  0.1781 -0.0596 -0.8125
 8548TIP3    H147135   4.794   2.113  13.498  0.9087  0.8853 -1.1979
 8548TIP3    H247136   4.774   2.117  13.348  0.3571  1.6704 -1.1030
 8549TIP3   OH247137   0.890   6.800   2.434  0.5515  0.2937 -0.6869
 8549TIP3    H147138   0.939   6.721   2.409  1.3412  0.2002  1.0775
 8549TIP3    H247139   0.809   6.795   2.383  0.0498 -2.2836  0.3048
 8550TIP3   OH247140   6.181   0.317   0.068  0.0765 -0.0111 -0.6161
 8550TIP3    H147141   6.190   0.222   0.076  1.0308 -0.0512 -1.9683
 8550TIP3    H247142   6.106   0.329   0.010  0.7229  0.0318 -1.4485
 8551TIP3   OH247143   2.393   6.336  14.664  0.2494  0.1502  0.2334
 8551TIP3    H147144   2.311   6.387  14.669  0.3011  0.1569  0.9878
 8551TIP3    H247145   2.448   6.386  14.603  1.3534  2.5039  3.0523
 8552TIP3   OH247146   2.581   3.217  17.229  0.1991 -0.0268 -0.2548
 8552TIP3    H147147   2.507   3.160  17.247  0.4513 -0.4519 -0.5563
 8552TIP3    H247148   2.656   3.158  17.226  0.3818  0.2463 -1.0956
 8553TIP3   OH247149   3.176   0.506   3.164 -0.2245  0.0682  0.1217
 8553TIP3    H147150   3.084   0.534   3.157  0.1290  1.4326  0.6916
 8553TIP3    H247151   3.185   0.437   3.099 -2.1922 -1.5359  1.4844
 8554TIP3   OH247152   6.208   1.458  11.971  1.1750 -0.2712 -0.5702
 8554TIP3    H147153   6.164   1.479  11.889  0.3375 -0.1617 -0.1042
 8554TIP3    H247154   6.262   1.535  11.990  2.4715 -0.8691 -1.7212
 8555TIP3   OH247155   3.028   3.054  15.336  0.8139  0.1189 -0.4580
 8555TIP3    H147156   3.101   3.103  15.373  2.9365 -1.1222 -2.8188
 8555TIP3    H247157   2.978   3.119  15.286  0.4608  0.9132  0.9148
 8556TIP3   OH247158   0.997   6.589   4.991  0.2989 -0.0419 -0.4195
 8556TIP3    H147159   0.913   6.634   4.980 -1.2005 -2.6660 -0.0975
 8556TIP3    H247160   0.989   6.542   5.074  2.6101  0.7487  0.2726
 8557TIP3   OH247161   1.817   6.525   2.918 -0.4410  0.1341 -0.5996
 8557TIP3    H147162   1.740   6.498   2.867 -0.3698  0.8864 -1.1228
 8557TIP3    H247163   1.785   6.598   2.972 -1.0008 -1.8642  1.8647
 8558TIP3   OH247164   4.665   4.245   0.162 -0.2848 -0.2406 -0.1543
 8558TIP3    H147165   4.686   4.276   0.250  1.7932 -0.7167 -0.4579
 8558TIP3    H247166   4.737   4.186   0.140 -1.3960 -1.0303 -1.7181
 8559TIP3   OH247167   4.836   1.408  16.318 -0.3719 -0.2818  0.0252
 8559TIP3    H147168   4.855   1.331  16.372 -0.7381 -1.4695 -1.5144
 8559TIP3    H247169   4.778   1.461  16.372  0.5035 -0.7070  1.4094
 8560TIP3   OH247170   4.289   1.584   1.310 -0.4589  0.2866  0.0123
 8560TIP3    H147171   4.330   1.566   1.395  1.2528 -1.1992 -1.0814
 8560TIP3    H247172   4.195   1.582   1.327 -0.1597 -1.3437  1.6045
 8561TIP3   OH247173   3.721   0.212   2.119 -0.1483  0.1850  0.1476
 8561TIP3    H147174   3.636   0.186   2.155 -0.4060 -0.6548 -1.0260
 8561TIP3    H247175   3.699   0.276   2.051  0.3232  1.6700  1.3737
 8562TIP3   OH247176   2.891   5.044  16.937  0.0919 -0.2774  0.3748
 8562TIP3    H147177   2.965   4.992  16.969 -0.9254 -1.5340  0.7501
 8562TIP3    H247178   2.819   4.981  16.929 -0.7826  0.8029 -0.5525
 8563TIP3   OH247179   4.761   4.493  14.728  0.0933  0.3200 -0.4246
 8563TIP3    H147180   4.697   4.545  14.680 -2.3050 -0.1684  2.0919
 8563TIP3    H247181   4.710   4.420  14.765  2.1528 -0.2971  1.3439
 8564TIP3   OH247182   2.866   4.366  15.375  0.0683 -0.2436  0.1659
 8564TIP3    H147183   2.960   4.384  15.380  0.3975 -1.8876  0.4989
 8564TIP3    H247184   2.849   4.355  15.282  0.7686 -2.4572  0.2433
 8565TIP3   OH247185   3.813   3.248  12.098 -0.2137 -0.1550  0.1730
 8565TIP3    H147186   3.773   3.286  12.176  0.0892 -2.2550  1.3649
 8565TIP3    H247187   3.771   3.163  12.087  0.0539 -0.0710 -1.7113
 8566TIP3   OH247188   2.707   3.249  12.362  0.5189 -0.3857  0.1890
 8566TIP3    H147189   2.801   3.266  12.366  0.9008 -2.2011 -0.8770
 8566TIP3    H247190   2.675   3.275  12.449  2.0898 -0.3234  0.7670
 8567TIP3   OH247191   3.475   0.396   5.564 -0.0067 -0.5170  0.4456
 8567TIP3    H147192   3.554   0.390   5.618 -0.2338 -2.7799  0.6006
 8567TIP3    H247193   3.507   0.426   5.479  0.6194  1.2347  1.2707
 8568TIP3   OH247194   0.599   3.326   1.914 -0.0399 -0.4746 -0.1722
 8568TIP3    H147195   0.627   3.399   1.859 -0.9371 -0.6873 -0.9061
 8568TIP3    H247196   0.679   3.301   1.962  0.2556  1.0288  0.1438
 8569TIP3   OH247197   0.162   1.531  12.892 -0.4421  0.0622  0.0160
 8569TIP3    H147198   0.145   1.444  12.929  0.3604 -0.0176  0.2021
 8569TIP3    H247199   0.255   1.545  12.906 -0.5257  0.8626 -0.2237
 8570TIP3   OH247200   0.126   5.734  16.595  0.4275 -0.2440 -0.7553
 8570TIP3    H147201   0.057   5.730  16.661  2.2996  1.4682  1.3760
 8570TIP3    H247202   0.113   5.655  16.542 -1.5685 -1.2667  1.1798
 8571TIP3   OH247203   1.653   2.561  14.608 -0.2387  0.5405 -0.4720
 8571TIP3    H147204   1.740   2.531  14.583 -0.1974  0.3551 -0.1177
 8571TIP3    H247205   1.640   2.526  14.696 -2.3932 -3.0838 -2.1109
 8572TIP3   OH247206   1.767   5.587   1.424  0.0405 -0.0297 -0.0481
 8572TIP3    H147207   1.726   5.588   1.510  3.0205  0.0276  1.4119
 8572TIP3    H247208   1.821   5.508   1.424  0.0027 -0.0816 -1.9284
 8573TIP3   OH247209   6.658   5.510  10.833 -0.3218  0.0728 -0.3019
 8573TIP3    H147210   6.648   5.417  10.813 -1.7154  0.6234 -2.3257
 8573TIP3    H247211   6.752   5.527  10.820  0.0427 -1.1523  0.6393
 8574TIP3   OH247212   4.312   2.229   3.505  0.2140 -0.2543  0.4595
 8574TIP3    H147213   4.248   2.289   3.544 -1.3735 -0.8633 -1.1269
 8574TIP3    H247214   4.345   2.275   3.428  0.3640 -0.6658  0.2746
 8575TIP3   OH247215   2.359   3.531   4.978 -0.1533 -1.0480 -0.2698
 8575TIP3    H147216   2.407   3.517   5.059 -0.3231 -2.8225 -0.4598
 8575TIP3    H247217   2.425   3.565   4.917  0.0540 -0.0674  0.4816
 8576TIP3   OH247218   4.258   0.680  15.333 -0.4362 -0.0694  0.5117
 8576TIP3    H147219   4.183   0.633  15.370 -0.0746 -1.4060 -0.4113
 8576TIP3    H247220   4.334   0.632  15.366 -0.0091  0.9043  0.9404
 8577TIP3   OH247221   6.723   1.424   1.685 -0.2822 -0.3843  0.0568
 8577TIP3    H147222   6.706   1.404   1.777  1.5608  1.4008  0.8497
 8577TIP3    H247223   6.637   1.440   1.647 -0.9386  0.8275  1.9776
 8578TIP3   OH247224   3.199   4.621   1.861 -0.0333 -0.3286  0.5786
 8578TIP3    H147225   3.180   4.530   1.882  0.9878 -1.1065 -1.6844
 8578TIP3    H247226   3.275   4.617   1.802 -0.2750  1.9351  0.0495
 8579TIP3   OH247227   4.013   0.096  11.081 -0.6247 -0.2833 -0.8672
 8579TIP3    H147228   4.042   0.028  11.142 -0.7582 -1.2818 -1.8802
 8579TIP3    H247229   3.917   0.090  11.083 -0.7917  2.1909  1.5712
 8580TIP3   OH247230   6.416   5.331  12.177  0.1603 -0.3154  0.1438
 8580TIP3    H147231   6.511   5.330  12.185  0.3144  0.8580 -1.2671
 8580TIP3    H247232   6.399   5.376  12.094 -1.6725  1.2276  1.2934
 8581TIP3   OH247233   4.646   4.156  16.658  0.0493  1.0405 -0.3429
 8581TIP3    H147234   4.560   4.116  16.647 -0.0278  1.1554 -0.1598
 8581TIP3    H247235   4.669   4.188  16.570 -0.1149  1.0498 -0.3839
 8582TIP3   OH247236   0.657   4.706   0.018  0.0948  0.2049  0.0520
 8582TIP3    H147237   0.583   4.764  -0.002  0.4523  0.7912  0.4147
 8582TIP3    H247238   0.631   4.622  -0.019 -0.9801  0.2751  0.6050
 8583TIP3   OH247239   3.290   5.578   5.981  0.1094  0.1342 -0.0901
 8583TIP3    H147240   3.375   5.622   5.970  0.1357  0.4083  1.1624
 8583TIP3    H247241   3.294   5.540   6.068 -0.1245 -1.9212 -0.9550
 8584TIP3   OH247242   5.505   6.332   4.576 -0.1548  0.3391  0.2542
 8584TIP3    H147243   5.507   6.319   4.671  0.4877  0.0532  0.2041
 8584TIP3    H247244   5.447   6.407   4.563 -0.4850  0.1895  0.8515
 8585TIP3   OH247245   3.918   4.762  12.649  0.3316  0.5178 -0.3268
 8585TIP3    H147246   3.929   4.778  12.555  1.5160  1.7488  0.0096
 8585TIP3    H247247   3.839   4.811  12.672  0.2546  0.5209 -0.5916
 8586TIP3   OH247248   0.984   3.079  14.229  0.1288 -0.0046 -0.1825
 8586TIP3    H147249   1.033   3.065  14.310  2.5475 -0.4937 -1.6768
 8586TIP3    H247250   0.947   2.994  14.208  0.5205 -0.1692 -0.2167
 8587TIP3   OH247251   1.760   5.138  17.091  0.0947  0.3180  0.4713
 8587TIP3    H147252   1.838   5.160  17.040  0.3839 -2.7944 -0.5347
 8587TIP3    H247253   1.790   5.072  17.153 -1.2540  0.8468  1.7249
 8588TIP3   OH247254   6.144   4.820   3.694  0.3428  0.1803  0.1511
 8588TIP3    H147255   6.236   4.817   3.721  0.7517  0.7438 -1.1358
 8588TIP3    H247256   6.138   4.756   3.623 -0.2253  0.2586  0.1275
 8589TIP3   OH247257   4.916   4.885   2.054  0.1202  0.1498  0.8835
 8589TIP3    H147258   4.905   4.869   1.960 -1.7007 -0.2034  1.1337
 8589TIP3    H247259   4.930   4.798   2.092  0.9114  0.2982  0.9325
 8590TIP3   OH247260   2.430   5.041   4.489  0.6295 -0.1353 -0.0869
 8590TIP3    H147261   2.361   4.974   4.489  0.3801  0.1162 -1.7655
 8590TIP3    H247262   2.509   4.993   4.515  0.4982 -1.1389 -1.4662
 8591TIP3   OH247263   0.165   6.290  17.058  0.6281  0.4436  0.5581
 8591TIP3    H147264   0.232   6.315  16.995  2.8887  0.5787  2.9184
 8591TIP3    H247265   0.118   6.218  17.016  2.4327  0.1606 -1.0536
 8592TIP3   OH247266   2.594   0.836   3.920 -0.2030  0.1956  0.3715
 8592TIP3    H147267   2.521   0.813   3.864  1.0753 -0.6036 -0.9942
 8592TIP3    H247268   2.619   0.754   3.963  0.9445  0.1176 -0.4297
 8593TIP3   OH247269   2.956   2.180  14.761 -0.0006 -0.2917  0.0166
 8593TIP3    H147270   3.040   2.163  14.719 -0.3112  0.4731 -0.9440
 8593TIP3    H247271   2.975   2.180  14.855  0.9963 -0.4628 -0.1804
 8594TIP3   OH247272   6.810   3.416   5.083 -1.1087 -0.1537  1.0685
 8594TIP3    H147273   6.839   3.333   5.045 -2.3141  0.4698 -1.3496
 8594TIP3    H247274   6.887   3.473   5.079 -0.2357 -1.1669  2.8796
 8595TIP3   OH247275   2.467   1.898   5.263 -0.2565  0.1304  0.2045
 8595TIP3    H147276   2.430   1.873   5.348  2.1815 -0.7285  1.0559
 8595TIP3    H247277   2.559   1.874   5.269 -0.4911 -1.9665 -3.5036
 8596TIP3   OH247278   2.630   4.682   2.948  0.9320 -0.2125 -0.7372
 8596TIP3    H147279   2.568   4.694   2.876 -1.6697 -1.8861  1.1233
 8596TIP3    H247280   2.679   4.604   2.924 -0.4590 -1.2227 -0.3987
 8597TIP3   OH247281   1.211   1.108   5.244  0.4513 -0.1620  0.8837
 8597TIP3    H147282   1.291   1.160   5.251 -0.1925  1.0700 -0.5490
 8597TIP3    H247283   1.188   1.087   5.334  1.8615  0.2791  1.3628
 8598TIP3   OH247284   2.363   3.326  13.224  0.4111 -0.3187  0.1235
 8598TIP3    H147285   2.342   3.313  13.131 -0.4949  0.2374  0.2417
 8598TIP3    H247286   2.278   3.323  13.267  0.9445 -1.7963  1.0862
 8599TIP3   OH247287   2.656   0.992   4.651 -0.5860  0.0943 -0.4522
 8599TIP3    H147288   2.725   0.927   4.640 -0.4959  0.0220  0.5520
 8599TIP3    H247289   2.692   1.071   4.610 -0.3496 -0.2344 -0.8923
 8600TIP3   OH247290   6.158   0.754  13.598  0.1807 -0.7256  0.1671
 8600TIP3    H147291   6.070   0.737  13.565  0.7615 -0.9219 -1.3604
 8600TIP3    H247292   6.198   0.811  13.532  0.4927  1.1466  1.9156
 8601TIP3   OH247293   2.957   2.169  11.434  0.0697  0.3067 -0.1580
 8601TIP3    H147294   3.005   2.093  11.402  0.0974  0.8616 -1.4783
 8601TIP3    H247295   2.907   2.137  11.509  1.0566 -0.7081  0.0718
 8602TIP3   OH247296   6.597   5.087   4.725  0.2323 -0.5380 -0.2351
 8602TIP3    H147297   6.633   5.120   4.807 -1.0708 -0.9603  0.5037
 8602TIP3    H247298   6.520   5.036   4.750 -0.2631 -0.5519 -1.7196
 8603TIP3   OH247299   4.349   2.597   0.339 -0.5280 -0.1842  0.8443
 8603TIP3    H147300   4.443   2.610   0.329 -0.5829 -0.2490  0.1947
 8603TIP3    H247301   4.339   2.545   0.419  0.0543 -1.0376  0.3700
 8604TIP3   OH247302   4.196   4.259  12.587 -0.2826  0.0225  0.3930
 8604TIP3    H147303   4.187   4.236  12.495  1.0552 -2.2071  0.7835
 8604TIP3    H247304   4.282   4.302  12.593 -0.0808 -0.4203  0.7050
 8605TIP3   OH247305   5.801   5.080  14.344 -0.3412  1.0486  1.0713
 8605TIP3    H147306   5.762   5.081  14.431  1.5690  0.4406  1.9541
 8605TIP3    H247307   5.827   4.989  14.330 -0.8104  1.0978 -0.2310
 8606TIP3   OH247308   5.501   1.512   2.743  0.5821  0.5159  0.0543
 8606TIP3    H147309   5.547   1.582   2.697  2.9244 -0.4926  0.8213
 8606TIP3    H247310   5.511   1.534   2.835 -2.4634  1.4852  0.2386
 8607TIP3   OH247311   6.668   5.567   3.133 -0.0761 -0.2851 -0.0825
 8607TIP3    H147312   6.596   5.600   3.079  0.1190 -0.2773 -0.3367
 8607TIP3    H247313   6.669   5.624   3.210  0.6055  0.6339 -0.7757
 8608TIP3   OH247314   0.684   1.353  11.866 -0.2602 -0.0750  0.0239
 8608TIP3    H147315   0.588   1.349  11.870 -0.2986  0.0379 -0.7461
 8608TIP3    H247316   0.703   1.389  11.779  0.4803 -0.1017  0.1734
 8609TIP3   OH247317   1.528   2.001   2.517 -0.4331  0.3546 -0.6930
 8609TIP3    H147318   1.608   2.044   2.546 -0.3535 -0.3006  0.0848
 8609TIP3    H247319   1.521   2.022   2.424  1.2171 -0.4797 -1.0193
 8610TIP3   OH247320   2.715   6.631   1.561  0.4008  0.1646 -0.3912
 8610TIP3    H147321   2.643   6.688   1.589  0.7376  1.2493 -1.7075
 8610TIP3    H247322   2.673   6.547   1.542 -0.5768  0.8683 -1.4111
 8611TIP3   OH247323   1.580   6.133  11.744 -0.1829  0.1576  0.3127
 8611TIP3    H147324   1.535   6.168  11.668  0.2188 -0.6872 -0.3222
 8611TIP3    H247325   1.664   6.102  11.710 -0.6298 -1.6446  0.7959
 8612TIP3   OH247326   5.962   6.263   5.367  0.3192  0.3589  0.1414
 8612TIP3    H147327   6.040   6.248   5.313 -0.7478 -1.1604 -1.0068
 8612TIP3    H247328   5.936   6.353   5.348  1.2757  0.5797 -0.1363
 8613TIP3   OH247329   0.684   5.815   2.052 -0.3519  0.3712 -0.2383
 8613TIP3    H147330   0.619   5.803   2.122  1.5729 -3.6552  1.0078
 8613TIP3    H247331   0.753   5.868   2.093 -1.1440  1.5725 -0.4336
 8614TIP3   OH247332   1.013   2.837  13.506  0.1944  0.2702  0.4167
 8614TIP3    H147333   1.060   2.753  13.508 -1.1547 -0.5134  0.4211
 8614TIP3    H247334   1.004   2.863  13.597  1.4338  0.8945  0.3623
 8615TIP3   OH247335   2.049   6.419  15.435  0.0056  0.3070 -0.2891
 8615TIP3    H147336   1.991   6.369  15.492 -0.3837  0.6027 -0.4252
 8615TIP3    H247337   2.008   6.505  15.429  0.6104  0.6053 -0.1497
 8616TIP3   OH247338   2.681   1.563   4.962  0.7473 -0.1312  0.3610
 8616TIP3    H147339   2.744   1.547   5.032  2.0424  3.0815 -0.0075
 8616TIP3    H247340   2.628   1.637   4.993 -1.5496 -1.4789 -0.2111
 8617TIP3   OH247341   6.258   0.460   4.880 -0.6569  0.8666 -0.4690
 8617TIP3    H147342   6.266   0.509   4.962  0.0944 -0.0390  0.0233
 8617TIP3    H247343   6.170   0.478   4.849 -1.0474  0.9944  0.6940
 8618TIP3   OH247344   4.304   4.705   5.108  0.1589 -0.1487  0.5537
 8618TIP3    H147345   4.227   4.751   5.141 -0.0217 -0.6664  0.8636
 8618TIP3    H247346   4.310   4.731   5.016 -0.6610 -0.4724  0.4059
 8619TIP3   OH247347   1.689   2.394   4.560  0.3971 -0.1947  0.6172
 8619TIP3    H147348   1.722   2.468   4.611  2.0167 -0.9837  0.7244
 8619TIP3    H247349   1.637   2.344   4.623 -0.2365  0.5242  0.6847
 8620TIP3   OH247350   3.106   4.407   4.878  0.6967  0.2442 -0.9581
 8620TIP3    H147351   3.085   4.456   4.798  1.6060  0.4141 -1.0954
 8620TIP3    H247352   3.128   4.319   4.847  2.1673  0.6160 -1.0138
 8621TIP3   OH247353   0.778   1.676   0.557 -0.5532  0.4931  0.6252
 8621TIP3    H147354   0.790   1.710   0.468 -0.4878  1.0245  0.8369
 8621TIP3    H247355   0.799   1.750   0.614  0.5515 -0.1819  1.1145
 8622TIP3   OH247356   2.202   6.283   3.476 -0.4647  0.1802  0.2988
 8622TIP3    H147357   2.166   6.368   3.501 -1.4532 -0.2573  0.3946
 8622TIP3    H247358   2.194   6.280   3.380 -0.0268  0.3773  0.2582
 8623TIP3   OH247359   2.413   6.043   2.159 -0.3542 -0.1243  0.1372
 8623TIP3    H147360   2.408   6.123   2.106  0.1628  0.1849  0.5542
 8623TIP3    H247361   2.428   6.074   2.248  2.9160 -0.7649 -0.1352
 8624TIP3   OH247362   5.450   4.587   2.305  0.3914 -0.3402 -0.1890
 8624TIP3    H147363   5.511   4.554   2.371  0.8396  0.3505 -0.2531
 8624TIP3    H247364   5.496   4.573   2.222  0.0855 -0.6464 -0.3054
 8625TIP3   OH247365   2.310   3.995  14.420  0.1193 -0.0958  0.5869
 8625TIP3    H147366   2.240   4.052  14.452  0.0874  1.3619 -1.9837
 8625TIP3    H247367   2.267   3.912  14.403 -0.7154  0.3888  0.3135
 8626TIP3   OH247368   2.697   5.612  12.879 -0.3636 -0.5792 -0.2336
 8626TIP3    H147369   2.739   5.697  12.868 -0.0689 -0.4265  1.7821
 8626TIP3    H247370   2.624   5.612  12.817  0.2814  0.7034 -1.0011
 8627TIP3   OH247371   1.503   5.366  13.596  0.4237  0.0359 -0.5232
 8627TIP3    H147372   1.527   5.312  13.671  0.0121 -1.6265 -1.5461
 8627TIP3    H247373   1.533   5.454  13.619 -0.5664 -0.2336  1.9816
 8628TIP3   OH247374   3.942   1.050  11.088  0.2362 -0.1386  0.4267
 8628TIP3    H147375   3.920   0.969  11.041  0.7937  1.1452 -2.1193
 8628TIP3    H247376   3.860   1.100  11.088  0.4259  0.1750  0.1534
 8629TIP3   OH247377   3.452   6.341   0.958  0.7592  0.1488  0.1395
 8629TIP3    H147378   3.437   6.431   0.986 -0.7258 -0.2539  0.7171
 8629TIP3    H247379   3.456   6.345   0.863  1.0970  0.8889  0.1895
 8630TIP3   OH247380   4.364   1.593   1.043  0.0360  0.1872 -0.0208
 8630TIP3    H147381   4.344   1.577   1.135 -0.6573 -0.4714 -0.2834
 8630TIP3    H247382   4.320   1.675   1.022 -1.5259 -0.7084 -0.3112
 8631TIP3   OH247383   4.702   0.910   3.147 -0.4178  0.2966  0.0231
 8631TIP3    H147384   4.681   0.825   3.186 -0.6607  0.1201 -0.4907
 8631TIP3    H247385   4.625   0.932   3.095  0.9298 -0.6937 -2.4671
 8632TIP3   OH247386   4.269   0.057   2.238  0.4853 -0.1265 -0.1961
 8632TIP3    H147387   4.307  -0.031   2.235  1.1330  0.1885 -2.5469
 8632TIP3    H247388   4.261   0.083   2.146 -1.9358  1.3285  0.3851
 8633TIP3   OH247389   6.734   3.623   5.345 -0.1632  0.0952  0.1103
 8633TIP3    H147390   6.707   3.711   5.370 -0.8792  0.0243 -0.3847
 8633TIP3    H247391   6.757   3.631   5.252 -1.4573 -0.4945 -0.2768
 8634TIP3   OH247392   1.879   4.499  15.260  0.0509  0.1476  0.5788
 8634TIP3    H147393   1.939   4.523  15.189  0.8635 -2.1846  0.4495
 8634TIP3    H247394   1.792   4.506  15.222  0.4910 -1.3597 -0.7514
 8635TIP3   OH247395   1.808   0.560   4.757 -0.0105 -0.4779  0.4883
 8635TIP3    H147396   1.780   0.599   4.839 -1.6205 -1.0918  0.2553
 8635TIP3    H247397   1.900   0.584   4.748 -0.7864  2.7167  0.6690
 8636TIP3   OH247398   5.650   3.841   5.660 -0.2775 -0.0147 -0.1383
 8636TIP3    H147399   5.638   3.746   5.658  0.5695 -0.1213 -0.1120
 8636TIP3    H247400   5.740   3.854   5.689 -0.5945  0.8103  0.4954
 8637TIP3   OH247401   5.594   2.832   1.643 -0.1840 -0.2374 -0.5036
 8637TIP3    H147402   5.561   2.809   1.730 -0.3865 -0.0599 -0.5350
 8637TIP3    H247403   5.657   2.763   1.623  1.1729  0.6693  0.5390
 8638TIP3   OH247404   5.396   5.418  14.709 -0.6521  0.1650 -0.0025
 8638TIP3    H147405   5.436   5.370  14.636  0.3843  0.8369  0.1213
 8638TIP3    H247406   5.364   5.349  14.767 -1.6610 -0.3725 -1.1854
 8639TIP3   OH247407   2.924   3.432   4.960  0.0038 -0.1186  0.1873
 8639TIP3    H147408   2.963   3.345   4.952  0.6541  0.0374  1.4324
 8639TIP3    H247409   2.842   3.418   5.008 -0.4595 -0.1820 -0.6132
 8640TIP3   OH247410   1.371   1.520   1.089  0.0429  0.3625  0.2317
 8640TIP3    H147411   1.315   1.528   1.166 -0.3483  0.7218 -0.0897
 8640TIP3    H247412   1.442   1.582   1.105  1.5801 -1.6852  1.6828
 8641TIP3   OH247413   1.134   0.359   3.178 -0.1332  0.3075  0.0440
 8641TIP3    H147414   1.043   0.336   3.200  0.0678  0.0747  0.6326
 8641TIP3    H247415   1.143   0.332   3.086  0.4372 -3.0390  1.0259
 8642TIP3   OH247416   4.440   4.306   1.336 -0.1649 -0.1415 -0.4719
 8642TIP3    H147417   4.380   4.381   1.332 -0.4001 -0.4128 -2.8008
 8642TIP3    H247418   4.383   4.230   1.349 -0.0267 -0.0265  0.7781
 8643TIP3   OH247419   3.518   6.615  16.420 -0.6689  0.0852  0.1504
 8643TIP3    H147420   3.581   6.681  16.391  0.0765 -0.7459 -0.1375
 8643TIP3    H247421   3.463   6.661  16.483 -0.6428  1.1942 -0.6190
 8644TIP3   OH247422   3.295   6.758   3.264 -0.0231 -0.3025 -0.0556
 8644TIP3    H147423   3.222   6.805   3.304 -1.3920 -1.9578 -0.5703
 8644TIP3    H247424   3.368   6.819   3.269 -0.9588  0.6894  2.1564
 8645TIP3   OH247425   0.997   3.207  16.066  0.3119 -0.1342  0.5105
 8645TIP3    H147426   1.021   3.264  16.139  1.1510  0.5744 -0.3028
 8645TIP3    H247427   0.916   3.245  16.032  0.8076  0.5277  0.0435
 8646TIP3   OH247428   5.778   4.866   4.947  0.5191 -0.4201 -0.1602
 8646TIP3    H147429   5.823   4.905   5.023 -0.8839  0.3479  0.2936
 8646TIP3    H247430   5.808   4.919   4.873 -0.3348  0.6922  0.2722
 8647TIP3   OH247431   3.163   2.018  12.025 -0.3869  0.0450  0.2915
 8647TIP3    H147432   3.256   1.999  12.040  0.0576  1.2795 -0.8496
 8647TIP3    H247433   3.117   1.958  12.083  1.1604  0.7515  2.2824
 8648TIP3   OH247434   5.112   3.419   5.148 -0.2899 -0.4725 -0.3289
 8648TIP3    H147435   5.149   3.391   5.232 -0.8574 -0.9996 -0.2512
 8648TIP3    H247436   5.166   3.494   5.122  0.7447 -1.1535 -0.1568
 8649TIP3   OH247437   1.506   0.347  13.834  0.0292 -0.2267  0.7183
 8649TIP3    H147438   1.542   0.277  13.779  1.4853  0.9801  0.1242
 8649TIP3    H247439   1.569   0.356  13.905 -0.5095  0.0377  1.1677
 8650TIP3   OH247440   0.288   2.999   4.447  0.4174  0.4702 -0.1739
 8650TIP3    H147441   0.260   2.982   4.537  0.9012  1.3521  0.1530
 8650TIP3    H247442   0.377   3.033   4.456 -0.0237  1.8504 -0.8893
 8651TIP3   OH247443   6.729   2.024   0.051  0.2163  0.2689  0.3312
 8651TIP3    H147444   6.688   2.022  -0.035  0.8122 -0.6303  0.0650
 8651TIP3    H247445   6.655   2.020   0.112 -0.1933  0.6913 -0.1380
 8652TIP3   OH247446   0.227   6.734   2.207  0.2234 -0.4620 -0.3393
 8652TIP3    H147447   0.215   6.671   2.136 -0.6950  1.5166 -2.0099
 8652TIP3    H247448   0.320   6.755   2.204  0.0430  0.2446 -1.5534
 8653TIP3   OH247449   5.336   6.536  16.924 -0.0251  0.0741  0.0617
 8653TIP3    H147450   5.244   6.526  16.899 -0.3509  1.6863  0.5848
 8653TIP3    H247451   5.381   6.556  16.842 -0.3494  0.5957  0.0112
 8654TIP3   OH247452   5.070   5.189  15.214  0.1511 -0.2855  0.0577
 8654TIP3    H147453   5.146   5.241  15.241 -1.1311  0.4883  2.3074
 8654TIP3    H247454   5.034   5.237  15.139  0.4383  0.7158  0.5537
 8655TIP3   OH247455   3.640   5.706  15.031 -0.1704 -0.2904 -0.1132
 8655TIP3    H147456   3.722   5.672  14.995 -0.8739  0.8322 -2.9354
 8655TIP3    H247457   3.662   5.793  15.064  0.5279 -1.4129  2.4548
 8656TIP3   OH247458   1.266   3.152   3.517  0.7295 -0.0698  0.3114
 8656TIP3    H147459   1.361   3.157   3.505  0.7207  1.1313  0.6868
 8656TIP3    H247460   1.235   3.100   3.443  1.6693 -0.3968  0.1437
 8657TIP3   OH247461   4.078   5.756   4.633 -0.2365  0.0759 -0.0095
 8657TIP3    H147462   4.162   5.787   4.599 -0.0188 -0.1819  0.2869
 8657TIP3    H247463   4.046   5.696   4.566 -0.1808  0.1716 -0.1220
 8658TIP3   OH247464   4.375   6.450   1.131  0.5090  0.1577  0.1129
 8658TIP3    H147465   4.303   6.445   1.194  0.5839 -0.8237  0.1229
 8658TIP3    H247466   4.365   6.372   1.076 -0.0072  1.4001 -1.5824
 8659TIP3   OH247467   0.351   3.640  11.519  0.2441 -0.2550 -0.2858
 8659TIP3    H147468   0.404   3.641  11.598 -0.1496 -0.7642 -0.0142
 8659TIP3    H247469   0.303   3.723  11.521 -0.3541 -0.6095  0.4151
 8660TIP3   OH247470   0.952   5.874  12.771 -0.5893 -0.3449  0.3306
 8660TIP3    H147471   0.882   5.849  12.831 -0.2817 -0.6645  0.5545
 8660TIP3    H247472   1.031   5.838  12.810 -0.2290  0.4429  0.3332
 8661TIP3   OH247473   0.518   0.788   5.363 -0.4356  0.1464 -0.3535
 8661TIP3    H147474   0.559   0.854   5.419 -0.3059  0.0209 -0.3004
 8661TIP3    H247475   0.586   0.723   5.348 -0.7960 -0.3670  0.2209
 8662TIP3   OH247476   1.673   5.499   1.989  0.2551 -0.1449  0.7222
 8662TIP3    H147477   1.744   5.438   2.010  0.6461  0.7263  1.9668
 8662TIP3    H247478   1.717   5.582   1.974 -0.0266 -0.5953 -3.2379
 8663TIP3   OH247479   6.007   5.840  12.447 -0.2882 -0.6056 -0.6220
 8663TIP3    H147480   6.082   5.814  12.501 -0.0917 -1.3291 -1.2312
 8663TIP3    H247481   6.042   5.907  12.389  0.1082 -1.5499 -1.4852
 8664TIP3   OH247482   5.900   5.282  12.925 -0.4632 -0.5482  0.0444
 8664TIP3    H147483   5.994   5.288  12.941 -0.3998 -2.4731  0.4775
 8664TIP3    H247484   5.861   5.287  13.012 -0.7592  0.0592 -0.1210
 8665TIP3   OH247485   0.893   0.879  14.463 -0.3428 -0.0265  0.5303
 8665TIP3    H147486   0.817   0.932  14.441 -0.3462  0.2408  1.1724
 8665TIP3    H247487   0.960   0.906  14.400 -0.3972  0.6116  0.7455
 8666TIP3   OH247488   2.555   5.894   4.898 -0.4290  0.1028  0.3858
 8666TIP3    H147489   2.461   5.897   4.917 -0.5863  0.0825 -0.3862
 8666TIP3    H247490   2.597   5.903   4.984 -1.1083  3.0177  0.4457
 8667TIP3   OH247491   4.496   5.175  16.121  0.3474  0.2663 -0.2181
 8667TIP3    H147492   4.557   5.225  16.068  0.7878 -1.2031 -1.1306
 8667TIP3    H247493   4.514   5.084  16.099 -0.3877 -0.3074  1.4575
 8668TIP3   OH247494   5.659   5.095  16.379 -0.0491  0.5110  0.2325
 8668TIP3    H147495   5.691   5.154  16.448 -2.2850  1.7226  0.2977
 8668TIP3    H247496   5.588   5.046  16.421  1.2526 -1.7270 -0.0570
 8669TIP3   OH247497   2.039   2.730  16.108 -0.5189 -0.4117  0.0533
 8669TIP3    H147498   2.008   2.714  16.198 -1.0944 -0.0954 -0.0823
 8669TIP3    H247499   2.098   2.804  16.116 -2.7469  1.4498 -0.2143
 8670TIP3   OH247500   1.955   5.202   2.658  0.3136  0.0861 -0.2912
 8670TIP3    H147501   1.950   5.108   2.641  0.0647  0.4557 -2.3983
 8670TIP3    H247502   1.871   5.223   2.699  0.4924 -0.6455  0.4835
 8671TIP3   OH247503   2.419   0.580  15.350  0.0813  0.4297 -0.0049
 8671TIP3    H147504   2.430   0.500  15.299  1.5670 -0.0834  1.1021
 8671TIP3    H247505   2.462   0.648  15.298 -0.8891  0.4702 -0.7795
 8672TIP3   OH247506   1.460   0.479   0.274  0.3469 -0.4085  0.0078
 8672TIP3    H147507   1.402   0.425   0.221 -0.3014 -1.2753  1.5616
 8672TIP3    H247508   1.509   0.416   0.327 -0.4772  0.5217  1.9092
 8673TIP3   OH247509   2.179   5.162  16.722  0.3089  0.2511 -0.7743
 8673TIP3    H147510   2.270   5.167  16.693  0.2325 -0.0771 -1.0784
 8673TIP3    H247511   2.139   5.098  16.664 -0.7913  2.3350 -2.3598
 8674TIP3   OH247512   3.573   5.210   2.225  0.2072 -0.9571 -0.4008
 8674TIP3    H147513   3.529   5.199   2.141 -0.5353 -0.3422 -0.0991
 8674TIP3    H247514   3.503   5.209   2.290  0.5268  0.8782  0.0133
 8675TIP3   OH247515   6.119   5.614   0.268  0.1645 -0.3101  0.1886
 8675TIP3    H147516   6.117   5.531   0.220 -1.3318  0.1106 -0.4921
 8675TIP3    H247517   6.061   5.672   0.219  1.0505  1.0978  0.7635
 8676TIP3   OH247518   2.980   0.459  16.499 -0.0818  0.7888  0.4984
 8676TIP3    H147519   3.021   0.545  16.494  1.9325 -0.1427  0.4128
 8676TIP3    H247520   3.011   0.422  16.582 -1.3109  0.3333  0.7652
 8677TIP3   OH247521   1.373   4.611   0.857 -0.2195  0.1012 -0.3901
 8677TIP3    H147522   1.338   4.542   0.801  1.8170 -2.6323  1.5502
 8677TIP3    H247523   1.441   4.654   0.805 -0.1754 -0.6337 -0.9407
 8678TIP3   OH247524   2.988   5.255  11.767  0.0840  0.0135  0.6866
 8678TIP3    H147525   3.059   5.300  11.813 -0.1139 -0.4044  1.4008
 8678TIP3    H247526   2.985   5.168  11.806 -0.1894 -0.2922 -0.0067
 8679TIP3   OH247527   6.817   4.489   5.741  0.1979  0.3701 -0.2245
 8679TIP3    H147528   6.722   4.489   5.728  0.1555  0.5165  0.0949
 8679TIP3    H247529   6.853   4.501   5.652 -0.1319  3.1089 -0.0291
 8680TIP3   OH247530   1.908   0.557  13.908  0.1881 -0.2470 -0.4542
 8680TIP3    H147531   1.884   0.476  13.954  1.5378 -0.6376 -0.4166
 8680TIP3    H247532   1.970   0.601  13.967  1.4794 -0.4689 -1.6174
 8681TIP3   OH247533   6.488   2.653   0.071 -0.3057  0.1473  0.2817
 8681TIP3    H147534   6.455   2.563   0.076  0.1066  0.0177  0.7945
 8681TIP3    H247535   6.562   2.648   0.011 -1.5642  0.5485 -1.3173
 8682TIP3   OH247536   2.411   2.474  11.474 -0.4525  0.2241  0.0512
 8682TIP3    H147537   2.399   2.454  11.381 -1.7883 -2.6631  0.7953
 8682TIP3    H247538   2.491   2.426  11.499 -1.6184 -1.2832  0.9895
 8683TIP3   OH247539   2.106   2.592  13.694 -0.4286  0.0304 -0.1600
 8683TIP3    H147540   2.114   2.508  13.649  0.6866 -0.6724  1.3175
 8683TIP3    H247541   2.196   2.626  13.697 -1.0591  1.9989 -2.0810
 8684TIP3   OH247542   1.908   6.641   3.464  0.1360 -0.2856  0.0136
 8684TIP3    H147543   2.001   6.641   3.487 -0.1411  0.5208  1.2084
 8684TIP3    H247544   1.883   6.549   3.465  1.3243 -0.6667 -2.0771
 8685TIP3   OH247545   2.755   3.729  13.446 -0.1379  0.0316 -0.0389
 8685TIP3    H147546   2.738   3.672  13.371 -2.1635  1.0066 -0.3723
 8685TIP3    H247547   2.806   3.676  13.507  0.6904 -1.0898 -1.6798
 8686TIP3   OH247548   5.425   1.046  13.433  0.2801 -0.0012  0.2304
 8686TIP3    H147549   5.460   1.062  13.521  1.5575 -3.8281  0.4819
 8686TIP3    H247550   5.500   1.060  13.375 -0.0495  0.5295 -0.0718
 8687TIP3   OH247551   4.020   2.656   1.959  0.1462 -0.1286 -0.6182
 8687TIP3    H147552   4.025   2.718   1.886 -0.1217  1.7786  0.9614
 8687TIP3    H247553   3.927   2.643   1.974  0.2009 -0.3302 -0.4449
 8688TIP3   OH247554   6.770   5.145  15.331 -0.5007 -0.4691 -0.2134
 8688TIP3    H147555   6.756   5.127  15.238 -0.3072 -0.6074 -0.2168
 8688TIP3    H247556   6.751   5.238  15.341 -1.7184 -0.7077 -0.1591
 8689TIP3   OH247557   0.229   5.877   5.862 -0.2576  0.3346 -0.0167
 8689TIP3    H147558   0.288   5.892   5.936  1.6827  3.5109 -2.0331
 8689TIP3    H247559   0.149   5.923   5.886 -0.2708 -0.1557  0.8744
 8690TIP3   OH247560   2.552   2.078  14.854 -0.3862  0.2711 -1.1482
 8690TIP3    H147561   2.642   2.055  14.876 -0.0077 -0.5368 -3.4743
 8690TIP3    H247562   2.502   2.057  14.933  1.3235 -0.0386 -0.1298
 8691TIP3   OH247563   4.724   3.459  13.794  0.0238 -0.0961  0.3996
 8691TIP3    H147564   4.789   3.512  13.748 -0.3571  1.1630  1.2814
 8691TIP3    H247565   4.662   3.433  13.726  0.9198 -0.4809 -0.2691
 8692TIP3   OH247566   6.253   3.804  13.193 -0.1413 -0.2268 -0.1629
 8692TIP3    H147567   6.267   3.738  13.126 -1.2548 -1.2849  0.6168
 8692TIP3    H247568   6.233   3.754  13.272 -2.9572  1.0413 -0.0016
 8693TIP3   OH247569   2.846   5.613   5.839 -0.1321 -0.0034 -0.2947
 8693TIP3    H147570   2.757   5.637   5.816 -0.5067 -1.2115 -0.1282
 8693TIP3    H247571   2.859   5.650   5.927 -0.3984  0.3195 -0.3909
 8694TIP3   OH247572   5.064   0.724   0.187  0.0095 -0.9604  0.8163
 8694TIP3    H147573   5.101   0.635   0.185  1.8824 -0.1852 -0.3648
 8694TIP3    H247574   5.091   0.759   0.272 -0.5206 -1.4190  1.1804
 8695TIP3   OH247575   5.404   2.983   6.966 -0.1813 -0.3797  0.3379
 8695TIP3    H147576   5.477   2.955   6.911  0.5742  1.4267  0.3765
 8695TIP3    H247577   5.337   3.013   6.904  0.1448  0.3881  0.3425
 8696TIP3   OH247578   1.741   0.201   0.089  0.0064  0.0775 -0.2132
 8696TIP3    H147579   1.732   0.146   0.011 -0.9987  0.5173 -0.4108
 8696TIP3    H247580   1.725   0.141   0.162  1.6329 -0.4866 -0.3031
 8697TIP3   OH247581   0.633   6.206  12.737  0.6999 -0.6618 -0.3695
 8697TIP3    H147582   0.679   6.284  12.706 -0.0928 -0.7244 -1.6976
 8697TIP3    H247583   0.625   6.150  12.660 -0.2139 -1.3343  0.2073
 8698TIP3   OH247584   5.895   3.860   1.260  0.2691 -0.0418 -0.6765
 8698TIP3    H147585   5.851   3.808   1.327  0.7345  1.1605  0.5780
 8698TIP3    H247586   5.872   3.951   1.281  1.9567  0.4727 -1.0312
 8699TIP3   OH247587   2.065   2.535   5.079  0.5179  0.3146  0.1752
 8699TIP3    H147588   2.039   2.623   5.107  0.0396  0.6258 -1.1870
 8699TIP3    H247589   1.987   2.498   5.039  0.4919 -1.0463  1.4134
 8700TIP3   OH247590   2.100   2.446   5.406 -0.4612  0.4732 -0.3442
 8700TIP3    H147591   2.091   2.419   5.314  1.6363 -0.5568 -0.2734
 8700TIP3    H247592   2.083   2.367   5.457  0.9271  0.4166  0.0489
 8701TIP3   OH247593   6.130   3.215   1.143 -0.0576 -0.0588  0.3164
 8701TIP3    H147594   6.105   3.153   1.075 -0.2868 -1.5509  1.7507
 8701TIP3    H247595   6.224   3.230   1.128 -0.2635  0.2272 -0.7831
 8702TIP3   OH247596   5.091   5.956  12.948 -0.2853 -0.4627 -0.0592
 8702TIP3    H147597   5.147   6.028  12.920  0.8786 -1.0104  0.8144
 8702TIP3    H247598   5.011   5.999  12.979  0.6998  0.5260  1.1702
 8703TIP3   OH247599   4.826   6.187  16.313  0.2645  0.3919  0.2058
 8703TIP3    H147600   4.895   6.245  16.282  1.0073 -1.7780 -2.4455
 8703TIP3    H247601   4.861   6.148  16.393  1.2473  0.8599  0.0103
 8704TIP3   OH247602   0.574   2.361  14.163  0.3148 -0.0526  0.2323
 8704TIP3    H147603   0.549   2.270  14.182 -0.8679  0.1995 -0.0747
 8704TIP3    H247604   0.669   2.357  14.150 -0.0703 -1.7647 -2.5953
 8705TIP3   OH247605   2.622   1.900  11.820  0.4878 -0.0439  0.4240
 8705TIP3    H147606   2.695   1.843  11.846  0.0164 -0.8337  0.0203
 8705TIP3    H247607   2.563   1.842  11.773  0.0589  0.8143 -0.0813
 8706TIP3   OH247608   5.517   3.505   5.782  0.4503  0.0475 -0.0602
 8706TIP3    H147609   5.485   3.584   5.825 -0.1408 -0.8151  1.1417
 8706TIP3    H247610   5.466   3.499   5.701  1.2430  1.4400 -0.6660
 8707TIP3   OH247611   1.082   4.039  12.865  0.1287  0.4948 -0.3687
 8707TIP3    H147612   1.050   4.097  12.796  2.1614 -0.3561 -2.0640
 8707TIP3    H247613   1.006   4.026  12.922 -0.5885  4.1241 -0.3976
 8708TIP3   OH247614   0.379   4.259  12.879 -0.2932 -0.9155 -0.3850
 8708TIP3    H147615   0.296   4.215  12.862 -2.2113  3.2407 -2.3572
 8708TIP3    H247616   0.433   4.238  12.804 -1.4746  0.6661 -1.7018
 8709TIP3   OH247617   5.745   4.540  14.404  0.0028 -0.0759 -0.1729
 8709TIP3    H147618   5.655   4.559  14.430 -0.6953 -1.2250 -1.6751
 8709TIP3    H247619   5.783   4.496  14.480  0.2558  3.0670  1.6242
 8710TIP3   OH247620   4.837   4.685   5.571  0.3561 -0.4062  0.4143
 8710TIP3    H147621   4.858   4.692   5.664 -0.1443 -1.4774  0.6093
 8710TIP3    H247622   4.741   4.682   5.568  0.3365  0.5221 -0.1990
 8711TIP3   OH247623   1.957   5.401  16.747 -0.9194 -0.0646 -0.7904
 8711TIP3    H147624   1.941   5.323  16.799 -2.2537  0.7136 -0.0085
 8711TIP3    H247625   1.975   5.368  16.659 -0.2480 -1.3004 -0.2027
 8712TIP3   OH247626   0.501   0.651  12.104 -0.1253 -0.0630 -0.4650
 8712TIP3    H147627   0.459   0.619  12.024  2.4906  0.4332 -2.0860
 8712TIP3    H247628   0.499   0.747  12.095  2.7738 -0.0262 -1.4160
 8713TIP3   OH247629   0.837   2.818   5.407  0.1822  0.3133 -0.2291
 8713TIP3    H147630   0.869   2.728   5.413  1.6029  0.6553 -2.1253
 8713TIP3    H247631   0.749   2.811   5.371  0.5482 -0.2959 -1.0225
 8714TIP3   OH247632   4.024   2.336  15.494  0.3207 -0.4415 -0.3594
 8714TIP3    H147633   3.987   2.313  15.579 -0.1314 -0.2581 -0.5052
 8714TIP3    H247634   3.998   2.427  15.480 -0.0014 -0.6131 -0.9033
 8715TIP3   OH247635   3.842   5.918  11.258  0.2203 -0.7888  0.6053
 8715TIP3    H147636   3.853   6.003  11.300  0.4331  0.2233 -1.4712
 8715TIP3    H247637   3.926   5.900  11.217 -0.1569 -1.5056  0.1288
 8716TIP3   OH247638   2.312   0.534   5.297 -0.2103  0.2741 -0.9181
 8716TIP3    H147639   2.284   0.490   5.217  0.0050 -1.6342  0.0236
 8716TIP3    H247640   2.313   0.465   5.363  1.4298  1.4231  0.3052
 8717TIP3   OH247641   2.247   1.960   3.332 -0.7613 -0.1296 -0.1024
 8717TIP3    H147642   2.307   1.885   3.327 -0.5499 -0.0073  0.5084
 8717TIP3    H247643   2.228   1.982   3.241 -0.9332 -1.0139 -0.2871
 8718TIP3   OH247644   2.716   1.089  16.747 -0.3038  0.2692 -0.0867
 8718TIP3    H147645   2.798   1.079  16.796 -0.9260 -0.8046  0.7564
 8718TIP3    H247646   2.650   1.103  16.814 -1.0171 -0.2542 -0.6809
 8719TIP3   OH247647   4.558   3.700   0.347 -0.2077  0.1723 -0.1789
 8719TIP3    H147648   4.610   3.714   0.426  1.3866  0.9590 -1.3217
 8719TIP3    H247649   4.534   3.608   0.351  1.1187 -0.1680  0.5090
 8720TIP3   OH247650   5.443   3.001   2.599 -0.1407  0.3940  0.7879
 8720TIP3    H147651   5.414   2.984   2.688  1.0321  2.1389  1.5145
 8720TIP3    H247652   5.500   2.927   2.578  0.7212  0.7089  2.0099
 8721TIP3   OH247653   1.668   1.518  14.537  0.0180  0.3550 -0.3394
 8721TIP3    H147654   1.584   1.525  14.583  0.5788  0.6067  0.6554
 8721TIP3    H247655   1.730   1.489  14.604  0.5958 -0.4933 -1.2211
 8722TIP3   OH247656   5.425   6.034  12.026  0.0681  0.0061 -0.2847
 8722TIP3    H147657   5.383   5.964  11.976  0.3242  0.3222 -0.9494
 8722TIP3    H247658   5.358   6.063  12.087  0.9012 -2.9041  2.1457
 8723TIP3   OH247659   2.220   4.010   1.450  0.3301 -0.1394  0.3497
 8723TIP3    H147660   2.225   3.932   1.505  0.9780 -0.4126 -0.0858
 8723TIP3    H247661   2.173   4.074   1.504  0.4318 -0.5925  0.9917
 8724TIP3   OH247662   4.714   0.727  16.913 -0.1549 -0.0531 -0.6262
 8724TIP3    H147663   4.688   0.755  17.000  1.1145  0.6912 -0.4734
 8724TIP3    H247664   4.642   0.672  16.883 -0.4967 -0.5065  0.9801
 8725TIP3   OH247665   5.861   1.471  12.199  0.7543  0.5264 -0.1074
 8725TIP3    H147666   5.795   1.468  12.269  0.4182 -0.8717 -0.4586
 8725TIP3    H247667   5.810   1.473  12.118  1.1034 -2.3615 -0.4442
 8726TIP3   OH247668   5.397   1.302   4.650  0.0568 -0.1676 -0.4386
 8726TIP3    H147669   5.386   1.361   4.575 -0.7293  1.4964  0.9411
 8726TIP3    H247670   5.312   1.257   4.657 -0.1173  0.2136 -0.1007
 8727TIP3   OH247671   6.186   2.131   3.783  0.0860  0.1754  0.5983
 8727TIP3    H147672   6.232   2.214   3.772 -0.7340  0.6302  0.5924
 8727TIP3    H247673   6.243   2.080   3.841 -0.1875  1.3517  1.9216
 8728TIP3   OH247674   0.620   6.603  13.373 -0.0870  0.1963 -0.1194
 8728TIP3    H147675   0.602   6.663  13.445  0.1683 -0.7766  0.7724
 8728TIP3    H247676   0.560   6.630  13.303 -1.7957 -0.1297  1.1810
 8729TIP3   OH247677   5.026   1.516   4.017  0.7491  0.2596  0.8605
 8729TIP3    H147678   5.105   1.483   4.059  0.0494 -1.9672  0.5250
 8729TIP3    H247679   5.056   1.548   3.931  1.4118  0.2797  1.0967
 8730TIP3   OH247680   6.201   4.914   2.349 -0.5725 -0.2269 -0.7180
 8730TIP3    H147681   6.184   4.879   2.261 -0.3793 -1.4470 -0.2700
 8730TIP3    H247682   6.118   4.903   2.396 -0.2179 -0.9769 -0.2739
 8731TIP3   OH247683   4.549   2.600   0.141  0.0991 -0.3624 -0.4553
 8731TIP3    H147684   4.636   2.587   0.178 -0.0123 -0.0830 -0.0933
 8731TIP3    H247685   4.517   2.511   0.123  0.4803 -0.4613 -0.6431
 8732TIP3   OH247686   1.183   0.521   3.399 -0.3383  0.9730  0.2533
 8732TIP3    H147687   1.112   0.557   3.452 -0.4607 -1.3104  1.6958
 8732TIP3    H247688   1.139   0.470   3.331 -0.1041  0.7076  0.2994
 8733TIP3   OH247689   4.441   6.036   4.319  0.3463  0.1058 -0.4950
 8733TIP3    H147690   4.536   6.031   4.330  0.6462  3.7209 -0.8043
 8733TIP3    H247691   4.428   6.025   4.225  0.4027 -0.8416 -0.3973
 8734TIP3   OH247692   5.619   0.386   1.579  0.7994 -0.2404  0.3652
 8734TIP3    H147693   5.693   0.433   1.618 -1.1663  1.7507  1.8411
 8734TIP3    H247694   5.597   0.319   1.645 -0.0749  0.6052  0.9485
 8735TIP3   OH247695   4.859   4.054   0.072 -0.0054 -0.0352  0.1983
 8735TIP3    H147696   4.913   4.080  -0.002 -1.9250 -0.9597 -1.5963
 8735TIP3    H247697   4.913   3.992   0.121  0.8451 -0.3705 -1.1374
 8736TIP3   OH247698   4.413   3.384  15.699  0.3913  0.0388 -0.0632
 8736TIP3    H147699   4.417   3.479  15.706  0.5296 -0.1078  2.2923
 8736TIP3    H247700   4.320   3.365  15.684  0.3488  0.5366 -0.4187
 8737TIP3   OH247701   0.800   6.378  16.323 -0.0170  0.2898  0.0787
 8737TIP3    H147702   0.772   6.456  16.276 -0.1635 -0.5335 -1.2189
 8737TIP3    H247703   0.731   6.362  16.387 -1.3533 -0.3778 -1.5177
 8738TIP3   OH247704   6.820   0.989  11.742  0.1931 -0.1693 -0.5421
 8738TIP3    H147705   6.871   1.016  11.666 -0.0645  2.1964  0.0994
 8738TIP3    H247706   6.729   0.996  11.714  0.1049  0.3556 -0.1320
 8739TIP3   OH247707   0.222   0.634  13.755  0.5906 -0.1018  0.0847
 8739TIP3    H147708   0.158   0.585  13.806  0.0852  1.9411  1.4606
 8739TIP3    H247709   0.202   0.611  13.664 -0.7172 -1.1238  0.6156
 8740TIP3   OH247710   6.507   1.484  11.763 -0.6185 -0.2401 -0.0997
 8740TIP3    H147711   6.498   1.548  11.834 -2.0334  0.4805 -0.9174
 8740TIP3    H247712   6.573   1.523  11.705 -1.4074  0.4488 -0.5466
 8741TIP3   OH247713   3.362   1.913   4.166  0.4372 -0.0723  0.3946
 8741TIP3    H147714   3.443   1.918   4.216 -0.1677 -1.3196  1.5216
 8741TIP3    H247715   3.324   2.001   4.171  1.8050  0.5642 -0.3055
 8742TIP3   OH247716   5.087   4.388   0.871  0.2418 -0.1183  0.6737
 8742TIP3    H147717   5.041   4.309   0.845 -0.4521  0.4128  0.2917
 8742TIP3    H247718   5.056   4.455   0.811 -0.2113  0.7547  1.8649
 8743TIP3   OH247719   6.181   3.062  15.951  0.3287  0.1468  0.4395
 8743TIP3    H147720   6.252   3.000  15.966 -0.0503 -0.0044  1.5955
 8743TIP3    H247721   6.118   3.014  15.898 -0.6134 -0.9262  2.5005
 8744TIP3   OH247722   5.357   0.041  13.521 -0.0547  0.0299 -0.2685
 8744TIP3    H147723   5.379   0.133  13.529  0.9852 -0.1991 -0.3970
 8744TIP3    H247724   5.325   0.016  13.608 -1.0215  0.6769 -0.4303
 8745TIP3   OH247725   2.620   4.221  14.817 -0.2543  0.3553  0.1555
 8745TIP3    H147726   2.559   4.165  14.768  1.3182  0.0419 -1.4900
 8745TIP3    H247727   2.689   4.162  14.846  0.0411  0.9798  0.7299
 8746TIP3   OH247728   3.890   5.034   5.315 -0.0968  0.2936  0.0228
 8746TIP3    H147729   3.896   5.077   5.229  1.9627  0.3147  0.1441
 8746TIP3    H247730   3.888   5.106   5.378  1.1763  0.2487  0.1201
 8747TIP3   OH247731   0.065   5.537   5.585 -0.1353 -0.3167 -0.0050
 8747TIP3    H147732   0.008   5.464   5.610  0.8379 -1.1122 -0.1365
 8747TIP3    H247733   0.030   5.567   5.501  0.1312 -1.3166 -0.4745
 8748TIP3   OH247734   0.960   2.465  16.146  0.1549 -0.5402  0.2073
 8748TIP3    H147735   0.889   2.501  16.200  1.9716  2.2200  0.8952
 8748TIP3    H247736   0.982   2.381  16.186 -0.9570 -0.1930  1.5686
 8749TIP3   OH247737   2.179   1.784  16.622 -0.0727  0.7998  0.3397
 8749TIP3    H147738   2.206   1.692  16.614  1.0392  1.1942 -0.5993
 8749TIP3    H247739   2.169   1.813  16.531 -0.4551  1.5969  0.6391
 8750TIP3   OH247740   5.637   3.837  14.843 -0.6721 -0.1195  0.0025
 8750TIP3    H147741   5.654   3.744  14.825 -0.7954 -0.2866  0.7110
 8750TIP3    H247742   5.674   3.850  14.931  1.9004  1.1902 -1.2144
 8751TIP3   OH247743   1.711   1.448   4.775  0.1848 -0.3771  0.5876
 8751TIP3    H147744   1.639   1.425   4.833 -0.3168  2.6186  1.2648
 8751TIP3    H247745   1.685   1.415   4.689 -2.9915  2.3936  0.3921
 8752TIP3   OH247746   1.032   3.200  11.573 -0.0577 -0.3799 -0.4504
 8752TIP3    H147747   1.021   3.110  11.545  0.3884  0.1884 -2.5129
 8752TIP3    H247748   1.088   3.194  11.650 -3.3107 -2.1484  1.8983
 8753TIP3   OH247749   4.106   2.610   2.563  0.1140  0.0367 -0.3230
 8753TIP3    H147750   4.115   2.517   2.543 -0.0442  0.0546 -0.4749
 8753TIP3    H247751   4.196   2.641   2.570  0.1838 -0.5058  1.5183
 8754TIP3   OH247752   0.781   5.376   1.773  0.8751  0.4664  0.0787
 8754TIP3    H147753   0.861   5.357   1.822  0.0953  0.9815  1.5848
 8754TIP3    H247754   0.769   5.471   1.782 -0.4111  0.2607  0.6838
 8755TIP3   OH247755   3.654   1.084  14.174  0.0989 -0.3186  0.4942
 8755TIP3    H147756   3.693   1.171  14.170  1.0126 -0.7488 -0.3540
 8755TIP3    H247757   3.712   1.029  14.120 -0.6717 -1.3652  0.7021
 8756TIP3   OH247758   3.685   4.392   2.738 -0.6123  0.1977 -0.3751
 8756TIP3    H147759   3.689   4.376   2.832 -0.2359  1.6726 -0.1301
 8756TIP3    H247760   3.662   4.485   2.731 -0.5649  0.1095 -1.7343
 8757TIP3   OH247761   0.448   2.380   2.231  0.0293  0.1928  0.0916
 8757TIP3    H147762   0.400   2.303   2.260 -1.0920  0.8849  0.1077
 8757TIP3    H247763   0.380   2.446   2.217  0.8577  0.7973 -1.1132
 8758TIP3   OH247764   1.266   3.305  14.695 -0.0311  0.1921  0.1377
 8758TIP3    H147765   1.265   3.366  14.770 -0.6626  0.1772  0.1394
 8758TIP3    H247766   1.289   3.360  14.620 -0.8602  0.4885  0.0954
 8759TIP3   OH247767   0.999   5.153   3.452  0.5306  0.1865  0.0861
 8759TIP3    H147768   1.079   5.182   3.495  1.3355  0.3255 -1.4572
 8759TIP3    H247769   1.026   5.075   3.402 -0.0463  0.8351 -1.2582
 8760TIP3   OH247770   4.779   5.681   1.202 -0.0451 -0.8190  0.5416
 8760TIP3    H147771   4.817   5.760   1.162  0.5834 -0.4577  1.7993
 8760TIP3    H247772   4.685   5.690   1.188  0.2894 -1.6521 -2.5051
 8761TIP3   OH247773   5.968   6.767   2.120 -0.4596 -0.5429 -0.0776
 8761TIP3    H147774   5.899   6.753   2.055 -1.3039 -0.8867  0.8880
 8761TIP3    H247775   5.922   6.801   2.196  0.6440  0.6705  0.0557
 8762TIP3   OH247776   2.028   6.163   2.807 -0.0525  0.8660 -0.2863
 8762TIP3    H147777   2.033   6.113   2.725 -0.4010  0.2227  0.0794
 8762TIP3    H247778   2.113   6.205   2.815  0.1358  0.5750 -0.7568
 8763TIP3   OH247779   4.161   4.852  14.273 -0.4128 -0.2617  0.1283
 8763TIP3    H147780   4.149   4.757  14.264 -0.2424 -0.2026 -0.7038
 8763TIP3    H247781   4.182   4.864  14.366 -1.0284 -0.9751  0.3703
 8764TIP3   OH247782   4.680   3.247   0.346  0.0203  0.8037 -0.5272
 8764TIP3    H147783   4.736   3.287   0.412  0.7383  0.9325 -1.2161
 8764TIP3    H247784   4.647   3.167   0.388  1.7356  0.0554 -0.5873
 8765TIP3   OH247785   1.366   5.506  15.403 -0.3636 -0.4248 -0.4079
 8765TIP3    H147786   1.332   5.517  15.491 -0.8207  0.2711 -0.6641
 8765TIP3    H247787   1.458   5.531  15.409 -0.3745 -0.4600 -0.1072
 8766TIP3   OH247788   2.624   5.388   6.633  0.2410  0.1118  0.1396
 8766TIP3    H147789   2.541   5.436   6.632  0.0807 -0.1420  0.7429
 8766TIP3    H247790   2.607   5.314   6.692  1.1817  0.5707  0.9939
 8767TIP3   OH247791   6.618   3.390  17.136  0.2946  0.5491  0.5413
 8767TIP3    H147792   6.548   3.427  17.082  0.3347 -0.1946 -0.0315
 8767TIP3    H247793   6.683   3.459  17.142 -0.9573  1.6222  1.9525
 8768TIP3   OH247794   6.126   4.695  14.907 -0.0438  0.3429  0.4441
 8768TIP3    H147795   6.065   4.689  14.833  1.5679 -0.0070 -0.8873
 8768TIP3    H247796   6.087   4.640  14.975 -1.1329 -0.0120 -0.4502
 8769TIP3   OH247797   1.179   1.134  15.435  0.7181 -0.3041  0.4594
 8769TIP3    H147798   1.179   1.198  15.506 -0.2749  0.2244 -0.0019
 8769TIP3    H247799   1.272   1.121  15.414  1.0594 -1.0182  2.3293
 8770TIP3   OH247800   5.647   1.205  15.582  0.0190  0.4274 -0.1773
 8770TIP3    H147801   5.669   1.205  15.675  0.8991  2.4532 -0.3754
 8770TIP3    H247802   5.699   1.133  15.546 -0.3576 -0.3949  0.8808
 8771TIP3   OH247803   1.476   4.493   4.979  0.0558 -0.0267  0.5657
 8771TIP3    H147804   1.426   4.466   5.056  2.7592 -0.0015  2.3839
 8771TIP3    H247805   1.555   4.439   4.982  0.6213  0.6427 -1.6967
 8772TIP3   OH247806   1.207   2.532   3.202  0.3787 -0.7827  0.1154
 8772TIP3    H147807   1.163   2.578   3.273 -0.8034  0.4486 -1.3514
 8772TIP3    H247808   1.270   2.596   3.168  0.8384 -1.3044 -0.0109
 8773TIP3   OH247809   4.328   1.821  12.291 -0.1089  0.3258  0.2249
 8773TIP3    H147810   4.276   1.858  12.362  0.5231  1.9379 -0.1340
 8773TIP3    H247811   4.391   1.763  12.335 -0.3772  0.5307  0.8821
 8774TIP3   OH247812   2.992   4.118  13.008  0.0760  0.3460  0.2122
 8774TIP3    H147813   2.995   4.054  12.936 -0.3928  0.4783  0.0766
 8774TIP3    H247814   3.009   4.067  13.087 -0.2461  0.0654  0.0981
 8775TIP3   OH247815   1.649   3.536   0.277 -0.0720 -0.2274 -0.0777
 8775TIP3    H147816   1.711   3.582   0.334  2.8581 -1.5925 -2.0051
 8775TIP3    H247817   1.606   3.473   0.335  1.7556 -0.5566  0.9913
 8776TIP3   OH247818   0.811   0.852   5.506  0.0873  0.4455  0.5096
 8776TIP3    H147819   0.783   0.798   5.580  0.6577  0.7608  0.9612
 8776TIP3    H247820   0.836   0.789   5.438 -0.0309  0.1502  0.7393
 8777TIP3   OH247821   2.343   5.134  10.695 -0.0562 -0.2662 -0.3661
 8777TIP3    H147822   2.432   5.169  10.699 -0.0924  0.1725 -2.7348
 8777TIP3    H247823   2.342   5.065  10.761  1.3652  1.2061  1.2336
 8778TIP3   OH247824   2.980   0.293  12.911  0.1246  0.3714 -0.5118
 8778TIP3    H147825   3.030   0.258  12.837  1.3427  0.0077  0.4664
 8778TIP3    H247826   3.039   0.286  12.985 -1.4244 -0.1696  0.7022
 8779TIP3   OH247827   6.501   3.462   2.791 -0.0162  0.7077  0.1541
 8779TIP3    H147828   6.538   3.414   2.865 -1.8846 -1.8305 -0.4919
 8779TIP3    H247829   6.532   3.552   2.803  0.7659  0.0821  3.2878
 8780TIP3   OH247830   4.327   4.077   3.470 -0.1291  0.2765  0.7647
 8780TIP3    H147831   4.418   4.096   3.492  0.1379 -0.5962  0.4693
 8780TIP3    H247832   4.292   4.159   3.437  1.4027 -0.0981 -1.9269
 8781TIP3   OH247833   0.829   3.154   0.119  0.4263  0.3200  0.0935
 8781TIP3    H147834   0.874   3.223   0.071  0.4912  0.9979  1.1081
 8781TIP3    H247835   0.740   3.154   0.083  0.7291  0.1951 -0.6588
 8782TIP3   OH247836   4.040   2.090   5.028  0.3287 -0.2255  0.3790
 8782TIP3    H147837   4.125   2.134   5.026  0.8219 -0.8896  3.4216
 8782TIP3    H247838   3.982   2.153   5.072 -0.8295  0.2916 -1.8314
 8783TIP3   OH247839   4.304   3.288  12.521  0.3510  0.3282  0.1808
 8783TIP3    H147840   4.292   3.382  12.514  0.5123  0.5917  2.8105
 8783TIP3    H247841   4.217   3.255  12.546  0.1889 -0.2816 -1.1552
 8784TIP3   OH247842   4.169   3.132  15.755  0.1167  0.2547 -0.2569
 8784TIP3    H147843   4.177   3.137  15.660  1.7001  3.1279 -0.0164
 8784TIP3    H247844   4.251   3.091  15.783  0.2185  0.5922 -0.0557
 8785TIP3   OH247845   0.091   0.448   3.946 -0.0892 -0.1290 -0.0614
 8785TIP3    H147846   0.103   0.541   3.967 -0.3767 -0.6503  2.5615
 8785TIP3    H247847  -0.002   0.439   3.928 -0.3267 -0.1482  1.1049
 8786TIP3   OH247848   1.402   4.359  16.344 -0.7695 -0.1134 -0.8553
 8786TIP3    H147849   1.398   4.280  16.290 -1.2194 -1.3975  1.0067
 8786TIP3    H247850   1.319   4.404  16.329 -0.4825  0.0520 -1.9731
 8787TIP3   OH247851   2.600   4.593   3.977  0.2125 -0.2076 -0.3638
 8787TIP3    H147852   2.539   4.547   3.919 -1.3370 -0.1842  1.2074
 8787TIP3    H247853   2.610   4.680   3.937 -0.0820 -0.5149 -1.1225
 8788TIP3   OH247854   6.535   3.844  16.749  0.1640 -0.1240 -0.1749
 8788TIP3    H147855   6.522   3.884  16.835 -0.6606 -0.4613 -0.1348
 8788TIP3    H247856   6.448   3.810  16.725  0.3034  0.2899 -1.3005
 8789TIP3   OH247857   3.010   5.858   4.967  0.2598  0.1811 -0.6543
 8789TIP3    H147858   2.941   5.793   4.960 -0.5210  0.8833  0.5316
 8789TIP3    H247859   2.970   5.939   4.937  0.0954  0.9232  1.5198
 8790TIP3   OH247860   0.413   0.978  16.679 -0.0592  0.0274 -0.0108
 8790TIP3    H147861   0.482   0.968  16.613 -0.0961 -4.0230  0.4241
 8790TIP3    H247862   0.459   1.006  16.758  0.8135 -0.7702 -0.2299
 8791TIP3   OH247863   0.019   6.144   5.584 -0.3841  0.0095  0.1649
 8791TIP3    H147864   0.013   6.053   5.612 -0.0324 -0.4371 -1.1899
 8791TIP3    H247865   0.108   6.153   5.549 -1.1139  0.2929 -1.6669
 8792TIP3   OH247866   1.249   5.539   2.362  0.4404  0.3455  0.2337
 8792TIP3    H147867   1.176   5.581   2.317  0.2547 -1.2756 -1.0071
 8792TIP3    H247868   1.304   5.612   2.392 -0.7298  1.5105 -0.4216
 8793TIP3   OH247869   1.292   0.321  16.939 -0.3297 -0.2257 -0.3450
 8793TIP3    H147870   1.224   0.348  17.001 -0.8675 -0.1959 -0.9367
 8793TIP3    H247871   1.307   0.229  16.959 -1.9202 -0.7516 -1.4530
 8794TIP3   OH247872   6.729   4.048   4.941 -0.2732  0.1050  0.5398
 8794TIP3    H147873   6.658   4.035   5.003 -0.8925 -1.0546 -0.3918
 8794TIP3    H247874   6.709   3.990   4.868  1.8613 -0.5976  0.4533
 8795TIP3   OH247875   5.428   3.518   1.981 -0.3852  0.6107 -0.5050
 8795TIP3    H147876   5.415   3.613   1.991  1.3354  1.0207 -1.7094
 8795TIP3    H247877   5.474   3.510   1.897  1.3171 -1.1097  0.5582
 8796TIP3   OH247878   4.775   4.712   2.272 -0.3474 -0.1357 -0.0125
 8796TIP3    H147879   4.751   4.714   2.179  0.1414 -2.9329 -0.2433
 8796TIP3    H247880   4.693   4.693   2.317 -0.7159  1.9019  0.2109
 8797TIP3   OH247881   2.410   2.590   0.283  0.3800 -0.6708  0.0159
 8797TIP3    H147882   2.439   2.626   0.367 -0.6259  2.2027 -0.8222
 8797TIP3    H247883   2.315   2.602   0.284  0.5589  1.3571 -2.3891
 8798TIP3   OH247884   4.640   4.488   1.798  0.3542 -0.1614  0.5907
 8798TIP3    H147885   4.562   4.432   1.798 -0.7283  1.3038 -0.6849
 8798TIP3    H247886   4.708   4.434   1.838 -0.7968 -2.2048 -0.1197
 8799TIP3   OH247887   1.113   1.859  16.115  0.2294  0.4402  0.5986
 8799TIP3    H147888   1.101   1.942  16.162 -0.8973  0.5097  0.2035
 8799TIP3    H247889   1.057   1.867  16.038  0.6556 -0.4178  0.1950
 8800TIP3   OH247890   6.532   0.812  16.414 -0.3555  0.1795  0.1145
 8800TIP3    H147891   6.513   0.868  16.338  0.9995  0.0717 -0.3313
 8800TIP3    H247892   6.528   0.723  16.379  3.3637  0.2275 -0.6273
 8801TIP3   OH247893   4.334   5.920   5.042  0.1458 -0.1151 -0.0416
 8801TIP3    H147894   4.375   5.864   4.976  1.4512 -1.1062  1.5835
 8801TIP3    H247895   4.382   6.003   5.036 -0.2970  0.0921 -0.8892
 8802TIP3   OH247896   5.373   5.180  14.515 -0.5970 -0.0399 -1.2708
 8802TIP3    H147897   5.441   5.150  14.575 -1.0694  2.5185  0.6380
 8802TIP3    H247898   5.420   5.213  14.439  0.1010 -1.4976 -1.4814
 8803TIP3   OH247899   6.200   0.424   4.435 -0.5902  0.6978 -0.2525
 8803TIP3    H147900   6.159   0.364   4.498  0.6339 -0.9931 -1.0248
 8803TIP3    H247901   6.263   0.474   4.487  0.8903 -1.1509 -0.2349
 8804TIP3   OH247902   5.212   2.807  13.286 -0.4123  0.0230  0.2379
 8804TIP3    H147903   5.258   2.856  13.218 -0.5855  0.4427  0.4182
 8804TIP3    H247904   5.177   2.875  13.345 -2.8024 -0.1831 -0.8609
 8805TIP3   OH247905   5.840   3.701  15.327 -0.3083 -0.3603 -0.7741
 8805TIP3    H147906   5.819   3.794  15.335  0.2944 -0.1940 -1.1091
 8805TIP3    H247907   5.935   3.698  15.321 -0.1285 -1.2161  1.9839
 8806TIP3   OH247908   2.213   1.020  17.267 -0.2325  0.1287 -0.6579
 8806TIP3    H147909   2.140   0.963  17.246  0.0863 -0.1684 -0.9733
 8806TIP3    H247910   2.274   1.008  17.194  0.7280 -0.6267  0.2580
 8807TIP3   OH247911   6.285   5.364  16.543 -0.1154  0.3638 -0.0235
 8807TIP3    H147912   6.319   5.294  16.600 -0.3576  0.2227 -0.0515
 8807TIP3    H247913   6.244   5.317  16.470  0.5786  0.5544 -0.5380
 8808TIP3   OH247914   0.288   6.012   3.506 -0.0574 -0.2492 -0.2685
 8808TIP3    H147915   0.321   5.939   3.558  3.3707  1.5682  0.2591
 8808TIP3    H247916   0.298   5.984   3.415  1.6378 -0.3123 -0.0776
 8809TIP3   OH247917   2.833   4.849  10.430  0.4234  1.0379 -0.0743
 8809TIP3    H147918   2.917   4.811  10.458 -0.4124 -0.9688 -0.2235
 8809TIP3    H247919   2.803   4.792  10.360 -1.2932  1.4721  0.2893
 8810TIP3   OH247920   2.845   0.147  15.795 -0.5381 -0.2800  0.1322
 8810TIP3    H147921   2.889   0.067  15.820 -0.7208 -0.6785 -0.8038
 8810TIP3    H247922   2.867   0.159  15.703 -0.1963  0.9504  0.3601
 8811TIP3   OH247923   6.376   1.571  16.697 -0.1349  0.0471  0.2957
 8811TIP3    H147924   6.296   1.557  16.648 -0.7057  0.0551  1.2062
 8811TIP3    H247925   6.417   1.485  16.702 -0.7679 -0.2199  0.9832
 8812TIP3   OH247926   4.944   0.822  13.357 -0.1768 -0.2106 -0.8126
 8812TIP3    H147927   4.949   0.908  13.399  0.0557 -0.1681 -0.9284
 8812TIP3    H247928   5.032   0.807  13.322 -0.3351 -0.3088 -1.1692
 8813TIP3   OH247929   5.772   4.643   3.332  0.0074 -0.2742 -0.3207
 8813TIP3    H147930   5.714   4.603   3.268  1.0255  0.8728 -1.9971
 8813TIP3    H247931   5.722   4.715   3.369 -0.1444 -0.1846 -0.7033
 8814TIP3   OH247932   5.778   4.873  10.679  0.0695 -0.2903 -0.7230
 8814TIP3    H147933   5.709   4.907  10.622 -0.4119 -0.5259 -0.2781
 8814TIP3    H247934   5.798   4.945  10.739  1.1469  0.2518 -1.6847
 8815TIP3   OH247935   3.185   3.965   3.340  0.2530  0.1453 -0.5176
 8815TIP3    H147936   3.212   3.875   3.362 -2.0075 -0.1938  1.1177
 8815TIP3    H247937   3.089   3.961   3.340  0.1362  2.4716 -0.9135
 8816TIP3   OH247938   6.432   5.297  11.448 -0.1846 -0.1627  0.1665
 8816TIP3    H147939   6.386   5.214  11.458 -0.3059 -0.0343  0.7048
 8816TIP3    H247940   6.363   5.360  11.430  0.0032 -0.3371 -1.1969
 8817TIP3   OH247941   3.982   1.323   4.018  0.2946 -0.1914  0.6605
 8817TIP3    H147942   4.016   1.236   3.999  2.0202  0.3322  1.2903
 8817TIP3    H247943   4.039   1.357   4.087 -1.1993  0.9129  1.3804
 8818TIP3   OH247944   6.701   2.777  12.262  0.4502  0.5678  0.5887
 8818TIP3    H147945   6.674   2.866  12.238 -0.2148  0.4792  0.9853
 8818TIP3    H247946   6.627   2.743  12.313  0.5113 -0.3762  0.0540
 8819TIP3   OH247947   4.518   5.012   2.870  0.3030 -0.0001  0.1748
 8819TIP3    H147948   4.524   5.060   2.787 -1.6741 -2.9324 -1.8164
 8819TIP3    H247949   4.433   5.036   2.906  0.5321  0.1646  0.6066
 8820TIP3   OH247950   2.083   4.675   4.122  0.2913 -0.9706  0.0823
 8820TIP3    H147951   2.138   4.750   4.100  0.2875 -1.1153 -0.4372
 8820TIP3    H247952   2.111   4.649   4.210  0.6552 -0.6916  0.0479
 8821TIP3   OH247953   6.486   3.607  12.953 -0.1902 -0.1828 -0.1087
 8821TIP3    H147954   6.448   3.522  12.975  0.7354 -0.6661 -0.3812
 8821TIP3    H247955   6.546   3.626  13.025  0.7524 -0.4740 -0.8081
 8822TIP3   OH247956   2.977   4.191   0.169  0.3137  0.4338  0.0063
 8822TIP3    H147957   2.953   4.265   0.224  0.8214  1.1076 -0.6720
 8822TIP3    H247958   3.005   4.124   0.231  0.9512  1.2093  0.5708
 8823TIP3   OH247959   5.135   3.625   4.397  0.6746  0.7398  0.2196
 8823TIP3    H147960   5.102   3.608   4.309  0.3576 -1.8514  0.7927
 8823TIP3    H247961   5.226   3.597   4.394  0.5787  0.3556  0.7858
 8824TIP3   OH247962   0.399   0.384   4.730 -0.2800 -0.3413 -0.3712
 8824TIP3    H147963   0.473   0.389   4.791 -0.7474  3.4185  0.0015
 8824TIP3    H247964   0.358   0.300   4.750  1.6747 -0.8094  2.0111
 8825TIP3   OH247965   3.986   3.636   1.616 -0.1418 -0.2216  0.4831
 8825TIP3    H147966   4.032   3.661   1.696 -0.5573 -0.4901  0.8104
 8825TIP3    H247967   4.054   3.630   1.549  0.0842  0.8508  0.6148
 8826TIP3   OH247968   4.624   4.270   2.330 -0.2280 -0.2739  0.1740
 8826TIP3    H147969   4.706   4.317   2.316  0.7174 -2.2335 -1.0053
 8826TIP3    H247970   4.625   4.249   2.424  0.1305  0.5769  0.3699
 8827TIP3   OH247971   0.076   3.762   4.853 -0.1876  0.3253  0.2065
 8827TIP3    H147972   0.157   3.805   4.880 -1.0728  2.7884 -0.9400
 8827TIP3    H247973   0.105   3.692   4.795  1.1159  1.3885 -0.4557
 8828TIP3   OH247974   4.708   0.397  16.997  0.1729  0.0190  0.1970
 8828TIP3    H147975   4.796   0.430  17.013  0.6889 -0.0157 -2.3938
 8828TIP3    H247976   4.651   0.449  17.054  1.6881  1.1070  0.7264
 8829TIP3   OH247977   0.512   5.052   1.622  0.3149 -0.3080 -0.1431
 8829TIP3    H147978   0.450   5.123   1.601  0.1833 -0.5271 -0.5013
 8829TIP3    H247979   0.567   5.088   1.692  0.0448  0.0356 -0.1065
 8830TIP3   OH247980   3.315   4.520  12.939  0.5208 -0.0458  0.5253
 8830TIP3    H147981   3.220   4.529  12.931  0.4741  1.2447  2.1228
 8830TIP3    H247982   3.328   4.459  13.012  0.9402 -1.3577 -0.6101
 8831TIP3   OH247983   4.536   3.934   0.237 -0.4959 -0.1660 -0.2746
 8831TIP3    H147984   4.553   3.904   0.147  1.5096 -0.4955  0.1842
 8831TIP3    H247985   4.551   3.856   0.291 -0.6721  0.2972  0.4412
 8832TIP3   OH247986   0.466   3.707  11.758  0.0081 -0.1306 -0.8703
 8832TIP3    H147987   0.548   3.720  11.712  0.0612 -1.0138 -1.0285
 8832TIP3    H247988   0.469   3.769  11.831 -0.0819  1.2819 -2.0510
 8833TIP3   OH247989   3.396   4.926  15.110  0.4386 -0.1718  0.1241
 8833TIP3    H147990   3.354   5.010  15.091 -0.6540 -0.3524  1.6283
 8833TIP3    H247991   3.354   4.864  15.051 -1.5257 -0.3664  1.6797
 8834TIP3   OH247992   4.286   4.632  12.465  0.0313  0.2873 -0.0567
 8834TIP3    H147993   4.342   4.594  12.398 -0.1527  0.4155 -0.2842
 8834TIP3    H247994   4.198   4.599  12.446  0.0528 -0.0387  0.3909
 8835TIP3   OH247995   4.803   1.141   2.613  0.3371 -0.7550 -0.4373
 8835TIP3    H147996   4.820   1.134   2.519 -1.4527  1.8623 -1.0212
 8835TIP3    H247997   4.856   1.216   2.641 -0.3456 -0.5496  0.3271
 8836TIP3   OH247998   1.364   0.334  11.021 -0.1004  0.2518  0.7084
 8836TIP3    H147999   1.300   0.379  10.965  1.3666  0.8370 -0.5343
 8836TIP3    H248000   1.443   0.388  11.015  0.6930 -0.7840  1.7497
 8837TIP3   OH248001   6.029   2.625  15.718  0.0487  0.2316  0.3983
 8837TIP3    H148002   5.950   2.577  15.743 -1.6442  2.3486 -0.8095
 8837TIP3    H248003   6.014   2.652  15.627  2.2093  0.5813  0.1058
 8838TIP3   OH248004   6.150   1.729  16.373  0.2638 -0.3101  0.0606
 8838TIP3    H148005   6.233   1.693  16.342  0.2594 -1.0283  0.8630
 8838TIP3    H248006   6.175   1.802  16.430  0.3104  0.0535 -0.4173
 8839TIP3   OH248007   2.765   6.074   3.463  0.3203  0.6025 -0.1540
 8839TIP3    H148008   2.780   5.981   3.446 -1.1193  0.4308 -0.6212
 8839TIP3    H248009   2.787   6.086   3.555  1.1046 -0.0706 -0.2499
 8840TIP3   OH248010   1.485   2.674   0.246 -0.2935  0.0053  0.1781
 8840TIP3    H148011   1.526   2.760   0.246  0.1981 -0.2313  0.3452
 8840TIP3    H248012   1.411   2.684   0.186 -0.5155  0.6736  0.5538
 8841TIP3   OH248013   3.749   6.134  17.054  0.0681 -0.1150  0.0843
 8841TIP3    H148014   3.819   6.069  17.052  0.1665 -0.0253  0.4954
 8841TIP3    H248015   3.765   6.189  16.977  0.4429 -0.1008  0.1704
 8842TIP3   OH248016   5.203   6.702  13.740 -0.2973 -0.2026 -0.1358
 8842TIP3    H148017   5.189   6.773  13.803  0.9234  0.3439 -0.4715
 8842TIP3    H248018   5.116   6.665  13.727 -0.5626 -0.4381  2.0055
 8843TIP3   OH248019   2.199   3.390   3.653  0.4211  0.2188  0.8924
 8843TIP3    H148020   2.284   3.418   3.687  1.2131  2.0686 -2.4057
 8843TIP3    H248021   2.154   3.472   3.632 -0.5336 -0.7907 -1.1438
 8844TIP3   OH248022   4.762   2.600  11.318 -0.2295 -0.0983 -0.2790
 8844TIP3    H148023   4.775   2.684  11.362 -0.8469 -0.6591  0.9865
 8844TIP3    H248024   4.717   2.623  11.237  0.3274  0.8694 -0.3350
 8845TIP3   OH248025   1.035   3.079   4.525 -0.0771  0.3087  0.1064
 8845TIP3    H148026   1.098   3.013   4.496  0.5171  0.1309  1.7321
 8845TIP3    H248027   1.076   3.163   4.504  0.3612  0.1832  0.4545
 8846TIP3   OH248028   5.359   4.406  13.328  0.1254  0.1539 -0.3666
 8846TIP3    H148029   5.347   4.487  13.279  1.2819  0.8684  0.5060
 8846TIP3    H248030   5.361   4.433  13.419  2.4497 -0.5960 -0.1546
 8847TIP3   OH248031   3.814   5.123  15.511 -0.0205 -0.2600  0.7688
 8847TIP3    H148032   3.872   5.083  15.446  0.2299 -0.7431  1.2946
 8847TIP3    H248033   3.864   5.124  15.592 -0.4310  0.1075  1.0215
 8848TIP3   OH248034   3.107   1.423  15.783 -0.0797 -0.3409  0.4405
 8848TIP3    H148035   3.147   1.384  15.861  0.8547  0.6460  0.4663
 8848TIP3    H248036   3.086   1.348  15.727  0.2805 -0.9809  1.1446
 8849TIP3   OH248037   0.041   6.747   5.759 -0.5097  0.4879  0.2025
 8849TIP3    H148038   0.094   6.692   5.701 -1.6697  0.7097 -1.1003
 8849TIP3    H248039  -0.049   6.721   5.740 -1.0153  2.1272  0.2975
 8850TIP3   OH248040   6.702   1.406  13.844 -0.1042  0.2553  0.1599
 8850TIP3    H148041   6.626   1.347  13.844  0.1306 -0.0515  0.8208
 8850TIP3    H248042   6.778   1.347  13.850  0.1828  0.5631 -0.4652
 8851TIP3   OH248043   4.913   2.838   4.593  0.0862  0.4537 -0.2324
 8851TIP3    H148044   4.856   2.843   4.670 -0.1667  2.3446 -0.5333
 8851TIP3    H248045   5.001   2.843   4.629  0.0308 -0.5760  0.0751
 8852TIP3   OH248046   5.934   4.016  14.773  0.1584  0.3626 -0.0683
 8852TIP3    H148047   5.872   4.013  14.846  1.9705  0.6235  1.5424
 8852TIP3    H248048   5.880   4.024  14.695 -1.9199 -1.7998  1.0837
 8853TIP3   OH248049   2.956   4.349   5.141  0.1649 -0.5189 -0.6817
 8853TIP3    H148050   2.879   4.338   5.085  1.0693  1.7116 -2.4235
 8853TIP3    H248051   3.026   4.375   5.081  1.2737  1.4393  1.3796
 8854TIP3   OH248052   3.990   1.199   3.733 -0.5413 -0.2388 -0.4348
 8854TIP3    H148053   3.976   1.106   3.719 -0.2034 -0.2711 -0.5526
 8854TIP3    H248054   4.084   1.211   3.723 -0.6150  0.1550 -0.6530
 8855TIP3   OH248055   3.486   1.933   0.494 -0.0551  0.4202 -0.3393
 8855TIP3    H148056   3.516   1.934   0.585 -2.0096 -0.3633  0.3429
 8855TIP3    H248057   3.445   2.018   0.482 -0.3842  0.2663 -0.2905
 8856TIP3   OH248058   2.038   0.891   3.040  0.1398 -0.2437 -0.5757
 8856TIP3    H148059   2.055   0.819   3.101 -2.1860  0.6867  1.2352
 8856TIP3    H248060   1.956   0.868   2.996 -0.4614  1.1189 -0.2123
 8857TIP3   OH248061   0.973   2.168  11.469  0.0859  0.4719 -0.0064
 8857TIP3    H148062   0.915   2.234  11.433  1.3540  1.6891  0.1030
 8857TIP3    H248063   1.053   2.216  11.492  0.4582 -0.8111  1.5310
 8858TIP3   OH248064   6.365   2.995  17.279  0.6381  0.1559 -0.5593
 8858TIP3    H148065   6.417   3.074  17.288 -0.3754  0.7019  0.4966
 8858TIP3    H248066   6.274   3.024  17.286  0.2730 -1.1640  0.4769
 8859TIP3   OH248067   6.673   3.692   2.841  0.0905 -0.0119  0.3994
 8859TIP3    H148068   6.722   3.667   2.920 -0.4166  0.8722  0.9948
 8859TIP3    H248069   6.723   3.765   2.805  0.4930 -0.6108 -0.2828
 8860TIP3   OH248070   2.089   5.702  16.607 -0.0609 -0.5698  0.0319
 8860TIP3    H148071   2.112   5.701  16.700 -0.2325  0.7228  0.0901
 8860TIP3    H248072   1.993   5.697  16.605 -0.1135  0.3169 -0.0401
 8861TIP3   OH248073   4.882   4.830   5.820  0.1701  0.5817  0.0778
 8861TIP3    H148074   4.917   4.886   5.751  0.0903  1.5144  0.7848
 8861TIP3    H248075   4.901   4.877   5.901 -0.5479 -0.0684  0.6299
 8862TIP3   OH248076   5.272   4.848  13.992 -0.6514  0.8929 -0.3551
 8862TIP3    H148077   5.326   4.772  13.969  0.2979  1.8872 -1.4695
 8862TIP3    H248078   5.253   4.890  13.909 -1.6244  1.5945  0.2087
 8863TIP3   OH248079   6.459   5.500  16.179 -0.1652 -0.5035 -0.4569
 8863TIP3    H148080   6.458   5.594  16.161  1.0233 -0.7786 -2.0612
 8863TIP3    H248081   6.552   5.479  16.190 -0.4060 -1.5552 -0.3743
 8864TIP3   OH248082   1.722   2.209  11.439  0.2859 -0.0642  0.0960
 8864TIP3    H148083   1.736   2.177  11.349  1.5958  0.3383  0.1411
 8864TIP3    H248084   1.811   2.219  11.474 -0.2217 -0.5844  1.5709
 8865TIP3   OH248085   4.997   6.312   5.296  0.0856 -0.2843 -0.2118
 8865TIP3    H148086   5.093   6.307   5.293  0.0743  0.0094 -1.1213
 8865TIP3    H248087   4.977   6.331   5.387  0.9160  0.0715 -0.1022
 8866TIP3   OH248088   0.959   0.956  13.271 -0.4028  0.5115  0.0353
 8866TIP3    H148089   0.981   1.036  13.320 -0.8555  0.7497 -0.1408
 8866TIP3    H248090   0.951   0.986  13.180  0.7955  0.0031 -0.2446
 8867TIP3   OH248091   2.793   6.756  10.978  0.0783 -1.0455  0.2496
 8867TIP3    H148092   2.779   6.679  10.924  1.3906 -2.8311  2.3620
 8867TIP3    H248093   2.870   6.799  10.940  0.7058 -2.0326  0.3862
 8868TIP3   OH248094   0.114   2.798  16.247 -0.8978 -0.7948 -0.0294
 8868TIP3    H148095   0.128   2.815  16.340 -3.9570  0.4757  0.2561
 8868TIP3    H248096   0.196   2.822  16.205  0.4736 -1.2621  2.3329
 8869TIP3   OH248097   6.580   6.348  15.532  0.1036 -0.1708  0.4366
 8869TIP3    H148098   6.623   6.275  15.487  0.9909  0.7292 -0.2086
 8869TIP3    H248099   6.537   6.397  15.463  0.3610  0.4827  0.7409
 8870TIP3   OH248100   5.208   3.404  14.194 -0.1002  0.1730  0.0645
 8870TIP3    H148101   5.185   3.349  14.268  0.3656 -1.8241 -1.2071
 8870TIP3    H248102   5.302   3.420  14.204  0.8568 -3.4098 -2.0827
 8871TIP3   OH248103   3.870   3.029   5.360  0.0566  0.1390 -0.4667
 8871TIP3    H148104   3.966   3.031   5.365 -0.0040  0.1964  0.9016
 8871TIP3    H248105   3.846   3.114   5.325  0.5298 -0.0469 -1.2465
 8872TIP3   OH248106   2.921   5.876  13.094 -0.5730  0.1108 -0.3001
 8872TIP3    H148107   2.914   5.868  13.190  1.1503 -1.2622 -0.2748
 8872TIP3    H248108   2.831   5.891  13.065 -1.1670  0.1815  1.4994
 8873TIP3   OH248109   0.564   1.565  10.958 -0.0567  0.0984  0.1000
 8873TIP3    H148110   0.535   1.512  10.884  0.9009  0.6709 -0.6928
 8873TIP3    H248111   0.652   1.594  10.934  0.1599  0.5037  1.3468
 8874TIP3   OH248112   1.464   2.207  14.244  0.8667 -0.0036  0.4286
 8874TIP3    H148113   1.551   2.211  14.205  0.9793  0.2990  0.7083
 8874TIP3    H248114   1.458   2.119  14.281  0.5043 -0.5328 -0.8502
 8875TIP3   OH248115   4.280   0.748   4.991  0.2384  0.2529 -0.2738
 8875TIP3    H148116   4.347   0.752   4.922  0.0892  1.3251 -0.3595
 8875TIP3    H248117   4.330   0.730   5.071  0.6541  1.2061 -0.3124
 8876TIP3   OH248118   1.133   2.349  10.528 -0.2170 -0.0854  0.0226
 8876TIP3    H148119   1.117   2.262  10.493 -0.4772 -0.1976  0.4178
 8876TIP3    H248120   1.048   2.378  10.562 -0.8286  1.5494 -2.7690
 8877TIP3   OH248121   6.183   4.016   5.523 -0.2980  0.0640  0.1715
 8877TIP3    H148122   6.256   4.003   5.584 -0.3540  0.2599  0.2812
 8877TIP3    H248123   6.129   3.938   5.533 -1.5347  1.1202  2.0686
 8878TIP3   OH248124   1.071   5.835  14.667 -0.2872 -0.1763  0.6807
 8878TIP3    H148125   1.029   5.794  14.592  0.3894 -2.4752  1.5252
 8878TIP3    H248126   1.068   5.929  14.648 -0.4682 -0.6978 -2.0356
 8879TIP3   OH248127   5.185   4.336  15.062  0.0657  0.0450 -0.0359
 8879TIP3    H148128   5.240   4.263  15.033  1.9737  1.4299 -0.0008
 8879TIP3    H248129   5.100   4.295  15.081 -0.5251 -1.3604 -4.8815
 8880TIP3   OH248130   1.398   3.689  15.653 -0.7944 -0.4172  0.0799
 8880TIP3    H148131   1.378   3.705  15.561  0.3910 -2.6617 -0.5990
 8880TIP3    H248132   1.333   3.623  15.680  0.0769 -1.2023  0.2904
 8881TIP3   OH248133   1.533   5.098  14.385 -0.3738  0.2586  0.2124
 8881TIP3    H148134   1.486   5.059  14.459  1.2861  0.9661  1.6806
 8881TIP3    H248135   1.610   5.043  14.373 -0.3725  0.4390 -0.6829
 8882TIP3   OH248136   5.040   3.362   2.340  0.0917  0.2883  0.2822
 8882TIP3    H148137   5.107   3.313   2.292 -0.2724  0.5175 -0.4616
 8882TIP3    H248138   4.992   3.295   2.388 -0.0936 -0.0452 -0.3525
 8883TIP3   OH248139   5.448   6.196   6.635  0.1168 -0.0232  0.4635
 8883TIP3    H148140   5.473   6.269   6.579 -0.8085  0.0705  0.1656
 8883TIP3    H248141   5.495   6.211   6.717  0.8832  0.2454 -0.0251
 8884TIP3   OH248142   4.361   2.617   1.929  0.1291 -0.8308 -0.4304
 8884TIP3    H148143   4.294   2.613   1.996  1.3528  1.6845  1.0150
 8884TIP3    H248144   4.323   2.573   1.853 -1.9700 -2.0704  1.3122
 8885TIP3   OH248145   0.794   6.708   1.917  0.2160  0.1814 -0.3405
 8885TIP3    H148146   0.803   6.788   1.969  2.2779  0.3467 -0.8975
 8885TIP3    H248147   0.814   6.637   1.977 -0.5187  0.1404 -0.1323
 8886TIP3   OH248148   2.398   3.635   0.240 -0.4375 -0.5770 -0.3312
 8886TIP3    H148149   2.371   3.724   0.219 -0.7054 -1.2955 -3.1901
 8886TIP3    H248150   2.466   3.646   0.306 -0.4681  1.7456 -0.6397
 8887TIP3   OH248151   2.782   1.782  14.386 -0.5194 -0.1903  0.3996
 8887TIP3    H148152   2.692   1.805  14.367 -0.5198  0.4148  1.1104
 8887TIP3    H248153   2.791   1.796  14.481  0.8369  1.5687  0.0480
 8888TIP3   OH248154   2.173   5.572   0.201 -0.0088  0.0755  0.5114
 8888TIP3    H148155   2.225   5.495   0.178  0.8572  0.5732  0.7771
 8888TIP3    H248156   2.091   5.561   0.154  1.2878  0.4877 -1.9346
 8889TIP3   OH248157   6.323   1.088   5.394 -0.5509 -0.2436  0.4100
 8889TIP3    H148158   6.356   1.028   5.328  1.8732 -1.3140  2.4982
 8889TIP3    H248159   6.400   1.140   5.420 -1.4216  0.1140  2.4044
 8890TIP3   OH248160   0.997   6.261   4.995 -0.4381 -0.6787 -0.0560
 8890TIP3    H148161   1.039   6.176   4.991  0.2512 -0.3426 -0.0269
 8890TIP3    H248162   0.920   6.248   5.051 -0.3354 -1.2814 -0.0615
 8891TIP3   OH248163   0.410   2.827   4.264 -0.0185 -0.1246  0.4665
 8891TIP3    H148164   0.459   2.789   4.337  1.4561 -0.8512 -0.8653
 8891TIP3    H248165   0.402   2.920   4.287  1.1909 -0.1739  1.1532
 8892TIP3   OH248166   4.218   3.770  16.779 -0.4682  0.4213  0.4688
 8892TIP3    H148167   4.245   3.773  16.871  1.5693  0.0745 -0.0891
 8892TIP3    H248168   4.300   3.757  16.731 -1.7586 -1.6466 -1.2439
 8893TIP3   OH248169   3.301   5.297   5.977  0.4282 -0.1955 -0.4891
 8893TIP3    H148170   3.306   5.368   5.913 -1.4968 -0.1731 -0.6392
 8893TIP3    H248171   3.270   5.222   5.926  2.0212 -1.0294 -0.2396
 8894TIP3   OH248172   0.303   1.005   3.339  0.2382 -0.2154  0.3955
 8894TIP3    H148173   0.376   1.058   3.307  0.5516 -0.5695  0.5262
 8894TIP3    H248174   0.249   1.066   3.389  0.4427  0.0467  0.2947
 8895TIP3   OH248175   4.741   2.244  12.014  0.0131 -0.2434  0.2778
 8895TIP3    H148176   4.778   2.159  11.991  2.1788  0.4990  0.8799
 8895TIP3    H248177   4.796   2.307  11.968  0.1858  0.9377  2.0682
 8896TIP3   OH248178   0.640   3.562  11.157  0.1229 -0.7086  0.1873
 8896TIP3    H148179   0.578   3.505  11.112  0.3488 -0.6257 -0.2286
 8896TIP3    H248180   0.722   3.550  11.110  0.4815 -0.9979  0.8878
 8897TIP3   OH248181   0.741   2.829  14.492 -0.4114 -0.3461  0.0506
 8897TIP3    H148182   0.822   2.822  14.543 -1.0379 -0.3988  1.0711
 8897TIP3    H248183   0.713   2.739  14.479  1.1997 -0.4810 -2.8266
 8898TIP3   OH248184   1.676   6.633   0.806  0.3246  0.2917 -0.1168
 8898TIP3    H148185   1.770   6.628   0.822  0.5357  0.7563 -1.1441
 8898TIP3    H248186   1.659   6.563   0.742 -0.1493 -0.2466  0.5930
 8899TIP3   OH248187   2.216   3.962   3.966 -0.1411 -0.8406  0.2082
 8899TIP3    H148188   2.209   4.033   3.902  0.1654 -0.8683  0.1405
 8899TIP3    H248189   2.143   3.976   4.026  0.3896  0.0060  0.6690
 8900TIP3   OH248190   6.457   3.571  10.347 -0.2180  0.0354 -0.1599
 8900TIP3    H148191   6.434   3.624  10.424  0.3445 -1.2870  0.9475
 8900TIP3    H248192   6.537   3.525  10.373 -0.4763 -1.0487 -1.2418
 8901TIP3   OH248193   6.342   1.540   3.665  0.5349  0.1665  0.3729
 8901TIP3    H148194   6.329   1.632   3.688  1.6833 -0.0247  1.8881
 8901TIP3    H248195   6.437   1.528   3.669  0.5275 -0.6611 -1.5545
 8902TIP3   OH248196   1.694   2.453  12.726 -0.3013 -0.1340  0.2320
 8902TIP3    H148197   1.731   2.535  12.694 -0.1067 -0.2896  0.0597
 8902TIP3    H248198   1.716   2.388  12.659 -0.3510 -0.3520  0.4252
 8903TIP3   OH248199   1.296   4.809   5.226 -0.2981  0.3930 -0.6806
 8903TIP3    H148200   1.366   4.825   5.163  0.8193  1.1767  0.7277
 8903TIP3    H248201   1.335   4.751   5.292 -1.1085  0.4667 -0.1303
 8904TIP3   OH248202   5.610   1.206  11.018 -0.3643  0.0183  0.7988
 8904TIP3    H148203   5.681   1.265  10.992 -1.3534  1.4477  1.2583
 8904TIP3    H248204   5.614   1.205  11.114 -0.0712 -1.0304  0.7815
 8905TIP3   OH248205   3.676   5.441   0.961  0.6597  0.0950  0.1075
 8905TIP3    H148206   3.658   5.362   1.011 -0.7623  0.8096  0.7398
 8905TIP3    H248207   3.694   5.508   1.027  1.0822  0.4912 -0.4020
 8906TIP3   OH248208   4.821   4.562   1.548  0.3451  0.3667  0.4549
 8906TIP3    H148209   4.906   4.523   1.529 -0.0683 -0.3392  0.0443
 8906TIP3    H248210   4.757   4.500   1.513 -0.3015  1.6643 -0.7273
 8907TIP3   OH248211   3.976   1.842   0.755  0.0123 -0.2088 -0.1450
 8907TIP3    H148212   3.890   1.802   0.744 -0.1755  0.2239 -0.2543
 8907TIP3    H248213   3.961   1.936   0.745  0.3742 -0.0687  0.5743
 8908TIP3   OH248214   6.345   6.637   1.234  0.1548  0.1141  0.2148
 8908TIP3    H148215   6.307   6.550   1.247  1.0214 -0.5359 -1.4259
 8908TIP3    H248216   6.310   6.666   1.150  1.4462  0.4757 -0.2193
 8909TIP3   OH248217   4.437   4.408  14.580  0.7132 -0.0704  0.1421
 8909TIP3    H148218   4.479   4.335  14.626  0.0662  1.0594  2.5581
 8909TIP3    H248219   4.495   4.483  14.594  0.6453  0.2338 -1.1344
 8910TIP3   OH248220   4.610   4.656  13.292  0.9708  0.2049 -0.1804
 8910TIP3    H148221   4.579   4.644  13.202  0.9241  0.6824 -0.2306
 8910TIP3    H248222   4.533   4.687  13.339  1.0714  0.2365 -0.0376
 8911TIP3   OH248223   3.944   1.832   1.538 -0.4153  0.1649 -0.0890
 8911TIP3    H148224   3.953   1.739   1.517  0.3166  0.5154 -1.3909
 8911TIP3    H248225   3.852   1.852   1.523 -0.5287 -0.2962 -0.0130
 8912TIP3   OH248226   1.749   4.316  17.074  0.6113 -0.4451  0.0861
 8912TIP3    H148227   1.767   4.226  17.101 -2.2814 -0.6218  1.6245
 8912TIP3    H248228   1.832   4.362  17.088  1.5237 -2.3920  1.3617
 8913TIP3   OH248229   3.414   5.773  12.083 -0.1078 -0.0825 -0.0035
 8913TIP3    H148230   3.446   5.850  12.128 -0.2575 -0.0715  0.0862
 8913TIP3    H248231   3.337   5.804  12.034  0.4731  0.0573 -0.8311
 8914TIP3   OH248232   2.649   6.075  14.235  0.4911 -0.1265  0.0643
 8914TIP3    H148233   2.595   6.008  14.277  1.3906 -0.8782  0.0431
 8914TIP3    H248234   2.589   6.121  14.176 -0.3396 -0.3147  0.7381
 8915TIP3   OH248235   1.589   0.135   6.020  0.2320 -0.2789  0.6688
 8915TIP3    H148236   1.671   0.158   5.977  2.2208 -5.2566  1.4361
 8915TIP3    H248237   1.615   0.113   6.110 -1.8511 -2.2190  0.8284
 8916TIP3   OH248238   3.911   6.305  15.370 -0.1483 -0.5845  0.0074
 8916TIP3    H148239   3.923   6.342  15.458 -1.8222  0.1548 -0.0498
 8916TIP3    H248240   3.915   6.210  15.383  2.7823 -0.4704  0.3708
 8917TIP3   OH248241   4.156   5.356   5.802  0.5638  0.0664  0.8847
 8917TIP3    H148242   4.147   5.299   5.726 -1.1502 -0.3379  1.3559
 8917TIP3    H248243   4.245   5.342   5.833  0.7316 -1.0163 -0.0657
 8918TIP3   OH248244   0.061   2.627   0.049 -0.9787  0.5300 -0.3097
 8918TIP3    H148245   0.043   2.698   0.110  2.6802 -0.2506  1.7511
 8918TIP3    H248246   0.088   2.554   0.104  1.9829 -0.3231 -2.7974
 8919TIP3   OH248247   5.089   6.681  16.687 -0.2948 -0.2582  0.1261
 8919TIP3    H148248   5.104   6.771  16.715 -1.4739 -0.6165  2.0031
 8919TIP3    H248249   5.113   6.680  16.594  0.1265  1.8724  0.1937
 8920TIP3   OH248250   6.742   1.270   4.438 -0.3565 -0.0368 -0.7909
 8920TIP3    H148251   6.833   1.250   4.458 -0.0296  0.8978 -1.3326
 8920TIP3    H248252   6.695   1.253   4.520  0.7310  2.1866  0.3406
 8921TIP3   OH248253   4.759   2.596   3.363  0.5363  0.4157 -0.1729
 8921TIP3    H148254   4.754   2.658   3.290  0.9447  0.6080 -0.0395
 8921TIP3    H248255   4.850   2.567   3.363 -0.0799 -1.6704 -1.4516
 8922TIP3   OH248256   4.321   2.316   0.785  0.4677  0.6586 -0.3864
 8922TIP3    H148257   4.358   2.332   0.872  0.4311  1.3051 -0.4865
 8922TIP3    H248258   4.273   2.234   0.795 -0.6052  1.3742  0.5571
 8923TIP3   OH248259   2.396   6.339   4.171  0.7828 -0.6551 -0.1823
 8923TIP3    H148260   2.358   6.319   4.086  0.3846  0.1373 -0.2008
 8923TIP3    H248261   2.322   6.374   4.222  0.8804 -1.6783  0.6817
 8924TIP3   OH248262   3.059   3.429   1.491  0.4711  0.3356 -0.0817
 8924TIP3    H148263   3.080   3.447   1.399 -0.1897 -1.1950 -0.5492
 8924TIP3    H248264   3.141   3.397   1.529  0.4538 -0.1137 -0.4259
 8925TIP3   OH248265   2.100   3.392  17.166  0.1298  0.1227 -0.4406
 8925TIP3    H148266   2.014   3.370  17.201  1.1675 -0.4330  1.8734
 8925TIP3    H248267   2.135   3.457  17.228  2.4126 -1.6224  0.1750
 8926TIP3   OH248268   5.121   0.798   5.228 -0.6321  0.2149  0.0332
 8926TIP3    H148269   5.056   0.835   5.169 -0.9125  1.5015  1.1377
 8926TIP3    H248270   5.083   0.805   5.315  0.4237 -0.2483  0.5530
 8927TIP3   OH248271   0.074   0.841   6.460 -0.0465 -0.6633 -0.6882
 8927TIP3    H148272   0.073   0.937   6.458  0.4333 -0.6584 -0.5531
 8927TIP3    H248273   0.030   0.816   6.379 -0.4421 -0.3310 -0.5846
 8928TIP3   OH248274   1.273   5.627  16.782  0.2986 -0.3486 -0.0356
 8928TIP3    H148275   1.179   5.639  16.791  0.1333 -1.4538 -0.1826
 8928TIP3    H248276   1.309   5.716  16.778 -0.8957  0.0842 -1.6724
 8929TIP3   OH248277   1.203   1.116  14.349 -0.4294 -0.7814  0.6718
 8929TIP3    H148278   1.263   1.093  14.278 -1.2765 -0.3902 -0.1946
 8929TIP3    H248279   1.224   1.206  14.371 -3.4935  0.9008 -2.6272
 8930TIP3   OH248280   1.246   1.023  17.196  0.4590  0.7679  0.7231
 8930TIP3    H148281   1.258   0.964  17.122  1.8308  2.7241 -0.6618
 8930TIP3    H248282   1.268   0.969  17.273  2.3809 -0.3429 -0.5488
 8931TIP3   OH248283   0.816   3.391   2.118 -0.4595 -0.1072  0.2880
 8931TIP3    H148284   0.810   3.360   2.208 -0.3906  2.0280  1.0543
 8931TIP3    H248285   0.834   3.312   2.067  0.8742 -1.1450  2.3014
 8932TIP3   OH248286   6.231   5.367   4.483 -0.1034  0.2877  0.7217
 8932TIP3    H148287   6.295   5.295   4.479  1.3666  1.4367  2.6581
 8932TIP3    H248288   6.226   5.400   4.393  1.2292 -0.5156  0.3427
 8933TIP3   OH248289   3.636   2.845  15.096 -0.0602  0.1235 -0.4262
 8933TIP3    H148290   3.549   2.882  15.111  0.6684  1.8214 -0.3188
 8933TIP3    H248291   3.642   2.835  15.001 -0.4384 -0.1676 -0.4222
 8934TIP3   OH248292   1.328   5.764   0.249  0.3524  0.0438 -0.6255
 8934TIP3    H148293   1.307   5.839   0.303  0.5613  0.3778 -1.0048
 8934TIP3    H248294   1.263   5.698   0.272  2.5559 -1.1151  2.6456
 8935TIP3   OH248295   0.360   2.887  14.571 -0.0631 -0.0203  0.2340
 8935TIP3    H148296   0.435   2.945  14.584 -0.3041  0.8793 -2.1157
 8935TIP3    H248297   0.391   2.822  14.508 -0.6327 -0.8960  0.8351
 8936TIP3   OH248298   5.079   4.133  16.232 -0.2714  0.0266  0.0679
 8936TIP3    H148299   5.101   4.207  16.289  1.3662 -0.2715 -0.1442
 8936TIP3    H248300   5.095   4.166  16.143 -1.4427  0.0411 -0.1405
 8937TIP3   OH248301   0.289   4.587  17.063 -0.0085 -0.2525 -0.4840
 8937TIP3    H148302   0.368   4.585  17.117 -0.6497 -0.5814  0.4519
 8937TIP3    H248303   0.218   4.565  17.123 -0.6662 -1.2528 -1.6029
 8938TIP3   OH248304   2.742   4.919   5.665 -0.7024  0.4639 -0.1479
 8938TIP3    H148305   2.719   4.863   5.739 -2.0015  1.1320 -0.0307
 8938TIP3    H248306   2.772   5.001   5.705  0.1759  0.2277 -0.3309
 8939TIP3   OH248307   3.395   0.120  13.057  0.1800  0.4245  0.4658
 8939TIP3    H148308   3.433   0.035  13.081 -2.7091 -0.7159  1.1548
 8939TIP3    H248309   3.426   0.135  12.967  0.0626 -1.7804  0.0092
 8940TIP3   OH248310   5.927   4.706   5.641  0.2894 -0.4803 -0.0062
 8940TIP3    H148311   5.976   4.730   5.720  1.7495 -3.6654  0.1350
 8940TIP3    H248312   5.985   4.727   5.569  0.2877 -0.5987 -0.0429
 8941TIP3   OH248313   3.162   3.042   2.568  0.4085  0.0624  0.0017
 8941TIP3    H148314   3.078   3.062   2.610 -0.1394 -1.2451 -0.4694
 8941TIP3    H248315   3.222   3.106   2.606 -0.5594  0.3223  1.1566
 8942TIP3   OH248316   2.711   0.557  11.621  0.3763  0.7316  0.1275
 8942TIP3    H148317   2.752   0.536  11.537  0.1863 -0.9481  0.4257
 8942TIP3    H248318   2.783   0.551  11.684 -0.5358 -4.1340  0.9369
 8943TIP3   OH248319   3.274   0.648  14.300 -0.1997 -0.1717 -0.5809
 8943TIP3    H148320   3.345   0.625  14.240  0.3986  0.1688 -0.0063
 8943TIP3    H248321   3.198   0.658  14.243  0.3860  0.2489 -1.3052
 8944TIP3   OH248322   4.345   2.760  16.630 -0.8327  0.0051  0.6159
 8944TIP3    H148323   4.288   2.810  16.688 -0.1746  0.9950  0.4382
 8944TIP3    H248324   4.315   2.782  16.542  0.0621  0.8339  0.5115
 8945TIP3   OH248325   5.791   2.529  12.498 -0.5984  0.0054 -0.3022
 8945TIP3    H148326   5.753   2.441  12.501  1.1018 -0.7289  1.3806
 8945TIP3    H248327   5.737   2.581  12.557 -0.4144 -0.4432  0.2723
 8946TIP3   OH248328   4.684   1.725  15.601  0.3091 -0.4590  0.2532
 8946TIP3    H148329   4.650   1.659  15.661  1.2688 -1.1644  0.0433
 8946TIP3    H248330   4.688   1.806  15.652 -0.5684 -0.6348  0.6079
 8947TIP3   OH248331   2.062   0.496   5.479 -0.1819 -0.9628  0.3155
 8947TIP3    H148332   2.015   0.510   5.397 -3.0420 -0.8029  1.8990
 8947TIP3    H248333   2.154   0.487   5.454 -0.8013  0.6875 -2.7276
 8948TIP3   OH248334   6.127   1.403  12.950 -0.8046  0.6193 -0.2346
 8948TIP3    H148335   6.145   1.430  13.040 -0.4829  0.6791 -0.3165
 8948TIP3    H248336   6.073   1.324  12.959 -0.7396  0.6018  0.0097
 8949TIP3   OH248337   4.872   1.014   4.549  0.9688 -0.2769  0.2003
 8949TIP3    H148338   4.874   1.099   4.594  0.7766 -0.5231  0.6751
 8949TIP3    H248339   4.929   0.958   4.601 -2.0360 -1.5998  2.2409
 8950TIP3   OH248340   4.419   1.599  16.393 -0.2428 -0.1991 -0.4057
 8950TIP3    H148341   4.384   1.681  16.427  0.0350 -0.7144  1.1839
 8950TIP3    H248342   4.513   1.614  16.384  0.1756 -0.9940  2.0242
 8951TIP3   OH248343   2.639   2.814  14.045 -0.5501 -0.6046  0.0912
 8951TIP3    H148344   2.555   2.791  14.004 -0.3922 -0.7697 -0.1440
 8951TIP3    H248345   2.699   2.744  14.017 -0.2796 -0.3657  0.0721
 8952TIP3   OH248346   0.130   5.825   5.216  0.4333 -0.0901  0.4292
 8952TIP3    H148347   0.224   5.803   5.214  0.5634  0.5009 -0.2467
 8952TIP3    H248348   0.127   5.916   5.245 -0.0013 -0.4389  1.4938
 8953TIP3   OH248349   0.850   0.731   2.024 -0.4738 -0.0528  0.1189
 8953TIP3    H148350   0.825   0.666   1.958  0.7272 -0.9627  0.5450
 8953TIP3    H248351   0.945   0.737   2.016 -0.4931  1.0230  0.6730
 8954TIP3   OH248352   4.002   2.313   5.872  0.2948  0.0768 -0.7779
 8954TIP3    H148353   3.998   2.337   5.965  1.0609  2.3233 -1.2865
 8954TIP3    H248354   3.916   2.275   5.853 -1.1488  2.8053  0.0215
 8955TIP3   OH248355   3.901   0.158   1.046 -0.1650 -0.3377 -0.0897
 8955TIP3    H148356   3.904   0.231   0.985 -0.1769  1.6185  2.1724
 8955TIP3    H248357   3.808   0.136   1.053 -0.2726  0.1672  0.0624
 8956TIP3   OH248358   2.973   5.790   4.648 -0.7530  0.0232  0.4127
 8956TIP3    H148359   2.983   5.757   4.738  0.7240 -0.2415  0.1670
 8956TIP3    H248360   2.882   5.774   4.626 -1.4452  1.1973  2.3111
 8957TIP3   OH248361   1.832   5.404   3.514 -0.0084  0.5009  0.4233
 8957TIP3    H148362   1.757   5.401   3.572 -0.8069  1.3845 -0.5338
 8957TIP3    H248363   1.844   5.497   3.495  1.3635  0.3816  0.5992
 8958TIP3   OH248364   0.327   0.604  14.968 -0.4802 -0.2701 -0.5730
 8958TIP3    H148365   0.289   0.692  14.963  0.7434  0.1844 -2.5729
 8958TIP3    H248366   0.387   0.608  15.042  1.2085  1.2632 -1.9911
 8959TIP3   OH248367   2.987   5.263  12.125 -0.0350 -0.0964 -0.4090
 8959TIP3    H148368   2.919   5.196  12.120 -1.6087  1.3359  0.9557
 8959TIP3    H248369   3.061   5.219  12.167 -1.7938 -0.4805  2.4749
 8960TIP3   OH248370   5.004   6.066   4.565  0.7277 -0.1741  0.5810
 8960TIP3    H148371   5.008   6.156   4.532 -0.2095 -0.4165 -0.1941
 8960TIP3    H248372   4.984   6.013   4.489  1.3432 -1.0604  1.0266
 8961TIP3   OH248373   0.069   3.896  13.952  0.0490  0.3003 -0.3265
 8961TIP3    H148374   0.121   3.974  13.935  1.6455 -1.0041 -1.5884
 8961TIP3    H248375   0.085   3.876  14.045  1.2398  0.3276 -0.5190
 8962TIP3   OH248376   4.671   5.872   3.601 -0.1522  0.4603  0.5850
 8962TIP3    H148377   4.689   5.915   3.685  2.3676 -0.2003  0.4015
 8962TIP3    H248378   4.700   5.782   3.613 -0.7510  0.0925 -0.6709
 8963TIP3   OH248379   1.363   3.798  16.537  0.0948  0.5179 -0.0151
 8963TIP3    H148380   1.401   3.878  16.573 -1.3698  1.1908  0.0880
 8963TIP3    H248381   1.274   3.823  16.511  0.5151 -0.3887 -2.4839
 8964TIP3   OH248382   5.240   4.705  11.634 -0.1327 -0.3031 -0.1343
 8964TIP3    H148383   5.160   4.737  11.592  0.5123 -0.2867 -1.3925
 8964TIP3    H248384   5.219   4.615  11.659  0.0927 -1.0006 -2.3103
 8965TIP3   OH248385   3.062   3.944  12.245  0.1790  0.5218 -0.6022
 8965TIP3    H148386   3.116   3.985  12.313  2.0776  0.9796 -2.3179
 8965TIP3    H248387   3.086   3.852  12.248 -1.7575  0.0397  1.1379
 8966TIP3   OH248388   0.234   0.918  13.413 -0.4320 -0.2681 -0.3895
 8966TIP3    H148389   0.315   0.892  13.459 -1.3378 -2.1080  0.2156
 8966TIP3    H248390   0.264   0.948  13.327  0.9732 -0.0319  0.1550
 8967TIP3   OH248391   0.508   1.480  15.323 -0.0550 -0.2481 -0.2321
 8967TIP3    H148392   0.413   1.479  15.318 -0.0455  0.1974 -0.5645
 8967TIP3    H248393   0.536   1.400  15.279 -0.2836 -0.5018  0.0822
 8968TIP3   OH248394   2.814   5.204   5.754 -0.1341  0.2119 -0.0250
 8968TIP3    H148395   2.794   5.187   5.846 -0.3305 -0.1253 -0.1300
 8968TIP3    H248396   2.837   5.297   5.751  1.2211 -0.0919  0.5977
 8969TIP3   OH248397   2.620   6.307  14.421  0.5855  1.0472 -0.1562
 8969TIP3    H148398   2.663   6.231  14.383 -2.5177 -1.6097  1.3637
 8969TIP3    H248399   2.531   6.304  14.385 -0.5021  2.1216  2.3658
 8970TIP3   OH248400   4.988   1.685  14.873 -0.9272  0.1262  0.0264
 8970TIP3    H148401   5.066   1.727  14.910  0.2913 -1.1860 -0.9661
 8970TIP3    H248402   4.916   1.745  14.892  0.2174  1.0244  1.5884
 8971TIP3   OH248403   4.376   2.708   2.535 -0.1835  0.1480  0.0279
 8971TIP3    H148404   4.388   2.769   2.608  1.6478  1.2572 -1.1776
 8971TIP3    H248405   4.438   2.637   2.552 -1.3899 -0.7552  0.7402
 8972TIP3   OH248406   2.937   1.859  15.275  0.3254  0.2607  0.1967
 8972TIP3    H148407   2.937   1.953  15.295 -1.0780  0.5758 -1.1894
 8972TIP3    H248408   2.952   1.817  15.360  1.5152  1.7343  0.7545
 8973TIP3   OH248409   0.529   2.491  11.367 -0.1972 -0.3101 -0.4823
 8973TIP3    H148410   0.584   2.423  11.406 -0.4416 -0.7751 -0.9412
 8973TIP3    H248411   0.579   2.572  11.377  0.7748 -0.8032 -1.3125
 8974TIP3   OH248412   6.513   6.048  14.706 -0.5470 -0.0300 -0.1940
 8974TIP3    H148413   6.535   6.047  14.799 -0.2246 -1.7321 -0.2575
 8974TIP3    H248414   6.447   6.117  14.697 -0.5042  0.2163  1.2774
 8975TIP3   OH248415   6.539   0.431  12.130  0.3281  0.2348  0.2481
 8975TIP3    H148416   6.495   0.489  12.192 -0.0639  0.5182 -0.2902
 8975TIP3    H248417   6.591   0.372  12.184 -1.6609 -0.8987  0.9306
 8976TIP3   OH248418   4.226   0.746   1.673  0.0398  0.0637  0.4180
 8976TIP3    H148419   4.236   0.685   1.600 -0.8537  0.1310  0.2412
 8976TIP3    H248420   4.261   0.829   1.640  0.6559 -0.1804  0.4432
 8977TIP3   OH248421   4.644   2.881   2.480 -0.0891  0.5562  0.4635
 8977TIP3    H148422   4.597   2.962   2.500 -0.7271  0.3822 -0.2768
 8977TIP3    H248423   4.593   2.841   2.409  1.4217  0.5852 -0.6554
 8978TIP3   OH248424   4.996   5.261   0.790 -0.2191 -0.0708  0.5167
 8978TIP3    H148425   4.977   5.213   0.710 -0.3405  1.5102 -0.4226
 8978TIP3    H248426   5.089   5.281   0.784  0.2379 -1.7209  1.7669
 8979TIP3   OH248427   2.609   0.507  14.910  0.1450  0.0517 -0.4545
 8979TIP3    H148428   2.640   0.541  14.826 -1.3885  1.1458 -0.6016
 8979TIP3    H248429   2.688   0.474  14.953  1.6436  3.2044 -0.6025
 8980TIP3   OH248430   2.630   1.773  12.159 -0.1447 -0.2525 -0.0500
 8980TIP3    H148431   2.562   1.834  12.132  1.1770  1.6733  0.9129
 8980TIP3    H248432   2.647   1.794  12.251  0.3093 -2.0751  0.3053
 8981TIP3   OH248433   1.145   1.747   1.029  0.7847  0.0365  0.1777
 8981TIP3    H148434   1.159   1.713   0.940 -0.0669 -0.3360  0.1776
 8981TIP3    H248435   1.231   1.780   1.056  1.0806  0.0340 -0.7330
 8982TIP3   OH248436   0.330   1.909  13.778 -0.3730 -0.6413  0.7001
 8982TIP3    H148437   0.366   1.873  13.697 -0.2199 -1.6721  1.2090
 8982TIP3    H248438   0.403   1.957  13.817 -0.2450 -0.7222  0.5627
 8983TIP3   OH248439   5.940   1.604   5.885 -0.3292  0.3640  0.5019
 8983TIP3    H148440   5.915   1.641   5.969  2.9505 -0.0805  1.7318
 8983TIP3    H248441   5.956   1.511   5.903 -1.3287 -0.1401 -1.0246
 8984TIP3   OH248442   3.319   1.700  12.605 -0.2133 -0.5735 -0.4160
 8984TIP3    H148443   3.325   1.712  12.510  1.0508  2.2296 -0.0334
 8984TIP3    H248444   3.403   1.732  12.638 -1.0068 -0.6678  1.7239
 8985TIP3   OH248445   1.124   1.103   3.493  0.4871 -0.8545  0.0641
 8985TIP3    H148446   1.192   1.037   3.476 -1.5377 -2.8723 -0.4193
 8985TIP3    H248447   1.053   1.081   3.432  0.5330  2.9993 -1.5129
 8986TIP3   OH248448   5.503   3.450   1.535 -0.1450 -0.2164 -0.3631
 8986TIP3    H148449   5.537   3.444   1.446 -1.1795 -0.6575 -0.7327
 8986TIP3    H248450   5.408   3.455   1.525 -0.2296  0.4451  0.6846
 8987TIP3   OH248451   6.670   1.087   2.136 -0.3571  0.5453 -0.5995
 8987TIP3    H148452   6.577   1.082   2.158 -0.7751  3.2173 -1.6877
 8987TIP3    H248453   6.713   1.034   2.204 -2.7142 -1.4066 -0.5846
 8988TIP3   OH248454   6.416   3.882  12.993 -0.1680 -0.5167  0.4268
 8988TIP3    H148455   6.361   3.885  13.071 -2.4942  0.7899 -1.2104
 8988TIP3    H248456   6.430   3.789  12.977  0.2672 -0.7924  2.3466
 8989TIP3   OH248457   5.745   3.623  13.325  0.5287  0.0169  0.3069
 8989TIP3    H148458   5.679   3.603  13.259  0.0913  2.2005  0.0576
 8989TIP3    H248459   5.709   3.697  13.374  2.9213  1.4904 -0.0845
 8990TIP3   OH248460   2.239   5.009  16.458  0.4220 -0.1147 -0.4167
 8990TIP3    H148461   2.299   4.984  16.529 -0.9561 -1.2423  0.3752
 8990TIP3    H248462   2.158   4.962  16.478 -1.3122  2.7413 -0.4697
 8991TIP3   OH248463   0.849   1.847   4.783 -0.0682 -0.0878 -0.7047
 8991TIP3    H148464   0.827   1.816   4.695  1.0990  0.4478 -1.1788
 8991TIP3    H248465   0.812   1.935   4.788  0.7261  0.2612 -1.0009
 8992TIP3   OH248466   3.911   5.763  12.721  0.4273 -0.1425 -0.5635
 8992TIP3    H148467   3.928   5.739  12.630 -0.3132 -0.4838 -0.6135
 8992TIP3    H248468   3.996   5.792  12.754  0.5613  0.5859 -1.5403
 8993TIP3   OH248469   0.880   0.246   5.286 -0.3867  0.2131  0.8288
 8993TIP3    H148470   0.821   0.290   5.225  0.9518  0.0380 -0.6390
 8993TIP3    H248471   0.877   0.299   5.365 -2.3387  0.3201  0.7007
 8994TIP3   OH248472   4.572   1.662  12.322 -0.2599  0.5885 -0.1644
 8994TIP3    H148473   4.659   1.700  12.336  0.1287 -0.9049  1.7637
 8994TIP3    H248474   4.566   1.592  12.387 -1.6039 -1.5376 -2.5104
 8995TIP3   OH248475   5.902   0.201   6.094  0.1767 -0.1233  0.0028
 8995TIP3    H148476   5.927   0.276   6.148  3.1939 -2.0923  1.4963
 8995TIP3    H248477   5.920   0.125   6.150  0.1765 -2.0724 -2.5713
 8996TIP3   OH248478   3.248   3.717  15.747  0.7069  1.0568 -0.5327
 8996TIP3    H148479   3.290   3.700  15.662 -0.7668  1.4576 -1.3667
 8996TIP3    H248480   3.160   3.746  15.724 -0.0372  0.2128  1.1787
 8997TIP3   OH248481   4.818   4.626  14.965  0.2707  0.2788 -0.5109
 8997TIP3    H148482   4.812   4.583  14.879  1.8534 -1.0904  0.0537
 8997TIP3    H248483   4.875   4.702  14.950 -0.3652  0.6837 -0.9099
 8998TIP3   OH248484   0.310   4.522   1.275 -0.2307  0.3157 -0.2707
 8998TIP3    H148485   0.282   4.513   1.366  0.7204 -2.4884 -0.2052
 8998TIP3    H248486   0.308   4.433   1.240  0.2397  1.2330 -2.7497
 8999TIP3   OH248487   5.430   6.014   4.170 -0.4898 -0.6744  0.5073
 8999TIP3    H148488   5.421   6.067   4.091 -0.1224 -0.2466  0.7535
 8999TIP3    H248489   5.431   6.077   4.242  0.8252 -0.9375  0.7384
 9000TIP3   OH248490   0.322   2.147  16.551  0.5443  0.2772 -0.5992
 9000TIP3    H148491   0.245   2.129  16.606 -0.8987  1.1421 -2.2655
 9000TIP3    H248492   0.349   2.236  16.577 -0.7777  1.1069 -1.9687
 9001TIP3   OH248493   1.858   3.399  15.874 -0.6492 -0.6729  0.4926
 9001TIP3    H148494   1.892   3.486  15.894  0.9220 -1.3472  0.7745
 9001TIP3    H248495   1.889   3.381  15.785 -3.0472  0.0546 -0.5397
 9002TIP3   OH248496   4.118   6.304  12.537  0.2831  0.2070 -0.3934
 9002TIP3    H148497   4.188   6.355  12.497  0.3870  1.1380  0.9349
 9002TIP3    H248498   4.073   6.365  12.595  0.6214 -1.2954  1.5070
 9003TIP3   OH248499   4.406   5.533   3.385  0.7628 -0.0911  0.0064
 9003TIP3    H148500   4.447   5.450   3.360  0.4884 -0.2723  0.1523
 9003TIP3    H248501   4.465   5.600   3.350  1.0034 -0.3462 -0.0842
 9004TIP3   OH248502   5.501   2.505  12.372 -0.5543  0.4864 -0.3406
 9004TIP3    H148503   5.538   2.513  12.460 -0.6680 -1.1864 -0.1097
 9004TIP3    H248504   5.501   2.594  12.337  2.6512  0.7018  0.0618
 9005TIP3   OH248505   2.055   2.166   4.913 -0.1824 -0.6278 -0.4626
 9005TIP3    H148506   2.105   2.102   4.964  1.6322 -0.0530 -1.4560
 9005TIP3    H248507   2.119   2.235   4.894 -2.1062  1.5133  0.6268
 9006TIP3   OH248508   5.659   2.799   1.997 -0.0565 -0.1696  0.0608
 9006TIP3    H148509   5.580   2.760   1.961  0.9309 -1.8122 -0.4029
 9006TIP3    H248510   5.635   2.890   2.015 -1.8325 -0.4597 -0.7115
 9007TIP3   OH248511   0.471   0.589  15.198 -0.6520 -0.4418  0.3251
 9007TIP3    H148512   0.486   0.585  15.293  0.4427  1.5118  0.2696
 9007TIP3    H248513   0.538   0.650  15.166  0.8665 -3.1967 -2.1115
 9008TIP3   OH248514   3.145   6.691   5.161 -0.0538 -0.1104 -0.0402
 9008TIP3    H148515   3.221   6.749   5.151 -0.3673  0.2004 -0.7031
 9008TIP3    H248516   3.078   6.746   5.201  0.6131 -0.8617  2.1757
 9009TIP3   OH248517   1.366   4.798   0.048 -0.5003 -0.0579  0.0876
 9009TIP3    H148518   1.295   4.735   0.038 -0.9085  0.2162  1.1973
 9009TIP3    H248519   1.325   4.875   0.086  0.0295  0.8387 -1.1443
 9010TIP3   OH248520   3.104   5.676   6.253  0.8823 -0.4859 -0.5396
 9010TIP3    H148521   3.095   5.762   6.294  1.4703 -0.2594 -0.8844
 9010TIP3    H248522   3.157   5.626   6.315 -3.3665 -2.1628  2.0162
 9011TIP3   OH248523   6.811   0.259  10.859  0.2049 -0.4844 -0.3133
 9011TIP3    H148524   6.803   0.350  10.833 -1.0310 -0.6560 -0.5801
 9011TIP3    H248525   6.871   0.221  10.795  0.5855  0.0975 -0.3051
 9012TIP3   OH248526   1.519   1.269  17.103  0.0628 -0.5023  0.8776
 9012TIP3    H148527   1.426   1.284  17.088  0.4957  1.5746  0.0819
 9012TIP3    H248528   1.563   1.312  17.030  1.7172  0.2019  2.2223
 9013TIP3   OH248529   3.013   1.822  14.808  0.3036 -0.1157 -0.5208
 9013TIP3    H148530   3.031   1.809  14.715 -1.4809 -1.7074 -0.6999
 9013TIP3    H248531   2.968   1.906  14.813  0.6080  0.0772 -1.0631
 9014TIP3   OH248532   3.054   1.825   0.469  0.9311  0.5073 -0.0113
 9014TIP3    H148533   3.138   1.800   0.431  0.3660 -1.4947 -0.0127
 9014TIP3    H248534   2.997   1.750   0.452  0.3036  0.0804  3.5634
 9015TIP3   OH248535   6.458   1.447  13.715  0.7674  0.1035 -0.8072
 9015TIP3    H148536   6.546   1.486  13.713  0.2074  1.3627 -1.0352
 9015TIP3    H248537   6.423   1.464  13.628 -0.6504  1.8113  0.0598
 9016TIP3   OH248538   5.463   4.883  16.542 -0.6017 -1.0394  0.1293
 9016TIP3    H148539   5.542   4.890  16.595  0.3246  0.0232 -1.3479
 9016TIP3    H248540   5.393   4.866  16.605  0.6753 -1.1973  1.5338
 9017TIP3   OH248541   2.500   0.449   2.861  0.1949  0.2941 -0.0445
 9017TIP3    H148542   2.552   0.373   2.833 -1.5193 -0.4146 -1.4477
 9017TIP3    H248543   2.551   0.525   2.833  1.4056 -0.3641  0.3644
 9018TIP3   OH248544   2.243   5.156  13.156 -0.1528 -0.1077 -0.5200
 9018TIP3    H148545   2.245   5.210  13.077 -0.8176 -0.2419 -0.6346
 9018TIP3    H248546   2.265   5.216  13.227 -0.5458  0.2394 -0.6906
 9019TIP3   OH248547   4.694   2.198   5.723  0.0944 -0.2367 -0.3661
 9019TIP3    H148548   4.746   2.124   5.754  1.4370  0.2439 -1.4325
 9019TIP3    H248549   4.703   2.263   5.793  0.1358 -0.5078 -0.1122
 9020TIP3   OH248550   0.666   1.478   5.872  0.1715 -0.6038  0.7288
 9020TIP3    H148551   0.601   1.548   5.874  1.2229  0.4190 -0.0819
 9020TIP3    H248552   0.727   1.501   5.943  2.1598  0.9618 -1.3886
 9021TIP3   OH248553   4.205   1.941  13.151 -0.3253  0.1778 -0.0781
 9021TIP3    H148554   4.234   1.982  13.233 -0.6424  1.1957 -0.4690
 9021TIP3    H248555   4.219   2.009  13.085 -2.9203  0.4495 -0.3950
 9022TIP3   OH248556   2.864   0.286   1.866  0.4407 -0.0510  0.1253
 9022TIP3    H148557   2.955   0.295   1.896  0.8503 -0.4680 -0.9596
 9022TIP3    H248558   2.824   0.227   1.929  0.6790  0.8408  1.1198
 9023TIP3   OH248559   4.096   0.457  16.870 -0.4341  0.7269  0.3884
 9023TIP3    H148560   4.079   0.373  16.912 -2.3952  1.7682  1.7750
 9023TIP3    H248561   4.057   0.449  16.783 -1.1763  0.4135  0.7484
 9024TIP3   OH248562   3.842   0.937   6.075  0.3562  0.0002 -0.0098
 9024TIP3    H148563   3.857   1.019   6.124  0.3559  1.0207 -1.6934
 9024TIP3    H248564   3.889   0.871   6.125  0.9709  1.1598  0.9845
 9025TIP3   OH248565   4.859   1.964  15.269 -0.6915  0.0610  0.0795
 9025TIP3    H148566   4.893   1.962  15.359  2.0431 -1.0825 -0.9165
 9025TIP3    H248567   4.828   1.875  15.254  1.0106 -0.3935 -0.8583
 9026TIP3   OH248568   4.697   1.592  16.746  0.9336  0.0059 -0.0927
 9026TIP3    H148569   4.787   1.624  16.742  0.8602  0.5521  1.9676
 9026TIP3    H248570   4.645   1.670  16.768  0.0782 -0.4680 -0.4300
 9027TIP3   OH248571   3.602   1.350   1.577  0.3949  0.7367  0.8690
 9027TIP3    H148572   3.536   1.417   1.593 -0.8660 -0.4346  0.6985
 9027TIP3    H248573   3.602   1.338   1.482  0.5914  0.4753  0.8996
 9028TIP3   OH248574   0.508   2.541   2.437 -0.8312 -0.2807  0.2744
 9028TIP3    H148575   0.518   2.621   2.385 -0.8273 -0.1407  0.4941
 9028TIP3    H248576   0.498   2.472   2.371 -2.9952  0.1774  0.0863
 9029TIP3   OH248577   3.237   3.676   4.447 -0.2937 -0.0968  0.0105
 9029TIP3    H148578   3.242   3.602   4.387 -0.6172  0.1358 -0.3044
 9029TIP3    H248579   3.146   3.707   4.439 -0.5136 -0.4477  1.0661
 9030TIP3   OH248580   4.223   4.151   4.491  0.1150 -0.3811 -0.3174
 9030TIP3    H148581   4.220   4.077   4.429 -0.4391  0.1086 -0.8757
 9030TIP3    H248582   4.309   4.190   4.477 -0.0068 -0.2773 -0.7765
 9031TIP3   OH248583   0.399   6.123  11.841 -0.2114  0.3828  0.6813
 9031TIP3    H148584   0.369   6.048  11.893 -3.5243  0.8363 -0.5162
 9031TIP3    H248585   0.418   6.086  11.755 -1.8078  0.8977  0.1012
 9032TIP3   OH248586   4.471   3.773  16.649  0.1795  0.2380 -0.1568
 9032TIP3    H148587   4.504   3.731  16.570 -0.5080 -1.2685  0.3289
 9032TIP3    H248588   4.548   3.781  16.705  0.3422 -0.2740 -0.3077
 9033TIP3   OH248589   6.115   5.959   2.436 -0.0031 -0.2731 -0.2781
 9033TIP3    H148590   6.160   6.041   2.458 -1.3947  0.5473 -0.3976
 9033TIP3    H248591   6.164   5.891   2.483 -1.0949  1.0666  2.9764
 9034TIP3   OH248592   0.598   1.071  14.684 -0.4338 -0.6531 -0.3529
 9034TIP3    H148593   0.544   1.100  14.757  0.6325 -1.8973  0.9416
 9034TIP3    H248594   0.664   1.139  14.675  1.4481 -2.0963  2.0233
 9035TIP3   OH248595   5.079   0.487   2.649  0.4644  0.2886  0.3481
 9035TIP3    H148596   5.122   0.445   2.723  3.5882  0.6683 -1.1810
 9035TIP3    H248597   5.149   0.535   2.604 -1.3228  0.0546 -2.8545
 9036TIP3   OH248598   2.818   2.178  15.245 -0.1053 -0.0870  0.6582
 9036TIP3    H148599   2.859   2.228  15.315  1.6688 -1.4145  0.6105
 9036TIP3    H248600   2.852   2.218  15.165 -0.6628  0.2302  0.5775
 9037TIP3   OH248601   0.528   4.538   1.556  0.1156 -0.2641 -0.0845
 9037TIP3    H148602   0.589   4.612   1.563  0.4200 -0.3374 -1.7179
 9037TIP3    H248603   0.545   4.502   1.469 -1.3452 -1.0988 -0.0315
 9038TIP3   OH248604   1.939   6.733  15.723 -0.1310  0.6346 -0.2267
 9038TIP3    H148605   1.980   6.692  15.799  0.4712 -0.3424 -1.0567
 9038TIP3    H248606   1.952   6.827  15.735  0.3134  0.4608  0.6704
 9039TIP3   OH248607   6.175   2.067   6.141  0.4850 -0.1381 -0.3259
 9039TIP3    H148608   6.100   2.046   6.196  0.3278  1.3088  0.0237
 9039TIP3    H248609   6.224   1.985   6.136  0.0078 -0.5327  1.1833
 9040TIP3   OH248610   6.275   2.725   5.194 -0.3479 -0.7421 -0.7279
 9040TIP3    H148611   6.331   2.778   5.250 -1.9235  0.1918  0.0201
 9040TIP3    H248612   6.276   2.639   5.234  1.1198 -0.9317 -1.1449
 9041TIP3   OH248613   0.509   6.689   0.627  0.4337 -0.3473 -0.2715
 9041TIP3    H148614   0.486   6.606   0.668  2.2006 -1.3334 -1.1962
 9041TIP3    H248615   0.492   6.755   0.695 -3.9822 -1.0514 -0.5752
 9042TIP3   OH248616   2.584   3.058  15.163  0.1182  0.1886 -0.2969
 9042TIP3    H148617   2.533   3.028  15.088  0.4826  0.6239 -0.7189
 9042TIP3    H248618   2.596   3.152  15.149  2.2333 -0.1439 -0.9202
 9043TIP3   OH248619   5.920   3.049   3.854  0.3185 -0.4394  0.4329
 9043TIP3    H148620   5.939   2.993   3.930  0.1796 -1.4251 -0.2492
 9043TIP3    H248621   5.843   3.099   3.880 -0.6947 -1.9354  0.3324
 9044TIP3   OH248622   1.066   4.561   6.063  0.2430 -0.3961 -0.3755
 9044TIP3    H148623   1.136   4.500   6.088  1.2497  0.9250  0.1322
 9044TIP3    H248624   1.024   4.585   6.146 -0.1222 -0.3744 -0.5671
 9045TIP3   OH248625   6.238   5.815   4.601  0.4845  0.0120 -1.0380
 9045TIP3    H148626   6.185   5.761   4.542 -0.5471 -0.7718  0.5642
 9045TIP3    H248627   6.262   5.756   4.673 -0.7784  1.7111  0.8258
 9046TIP3   OH248628   1.421   6.176  15.192 -0.0886  0.2056  0.9548
 9046TIP3    H148629   1.403   6.270  15.184 -0.8690  0.0128  0.4642
 9046TIP3    H248630   1.387   6.138  15.111  1.0393 -0.3815  0.7536
 9047TIP3   OH248631   4.210   5.021  17.135 -0.1334 -0.0992  0.2235
 9047TIP3    H148632   4.185   5.072  17.057  0.5926  0.2739  0.2312
 9047TIP3    H248633   4.255   5.084  17.191 -0.5673 -0.3914  0.9112
 9048TIP3   OH248634   3.732   1.408  11.007 -0.0394 -0.2720  0.2148
 9048TIP3    H148635   3.697   1.354  11.079  0.4921 -1.2101 -0.2175
 9048TIP3    H248636   3.802   1.355  10.970 -1.7684 -0.7970 -2.4384
 9049TIP3   OH248637   2.046   5.466  13.255  0.2372  0.0283  0.3132
 9049TIP3    H148638   1.979   5.428  13.313  0.9321  1.1478  1.8892
 9049TIP3    H248639   2.127   5.424  13.283  0.9652  2.4114  1.8607
 9050TIP3   OH248640   6.781   4.070   3.435 -0.2822 -0.8158 -0.2226
 9050TIP3    H148641   6.764   4.096   3.525 -0.1187  1.5381 -0.8583
 9050TIP3    H248642   6.698   4.084   3.390  0.1720 -0.1661 -0.8575
 9051TIP3   OH248643   0.006   5.893   0.246  0.0652  0.9237 -0.2172
 9051TIP3    H148644  -0.018   5.823   0.306  0.0698  0.8934 -0.2509
 9051TIP3    H248645   0.075   5.941   0.292  1.7663 -0.5308 -1.1980
 9052TIP3   OH248646   0.403   3.493   5.425  0.2687 -0.0002 -0.4282
 9052TIP3    H148647   0.494   3.487   5.398  0.0309  2.0348 -1.8845
 9052TIP3    H248648   0.364   3.409   5.402  1.4961 -0.4360 -0.9050
 9053TIP3   OH248649   2.356   0.537   2.020 -0.2707 -0.0758 -0.3036
 9053TIP3    H148650   2.444   0.511   1.992  0.2852  1.6231 -0.2052
 9053TIP3    H248651   2.321   0.460   2.065  1.2143 -0.7189 -0.2291
 9054TIP3   OH248652   2.046   6.031   3.297  0.1520 -0.2256 -0.1272
 9054TIP3    H148653   2.013   6.092   3.231  0.2108  0.2100  0.2370
 9054TIP3    H248654   2.132   6.004   3.265  0.8646  1.2030  0.5321
 9055TIP3   OH248655   6.450   2.819  13.707 -0.3754 -0.3446 -0.5088
 9055TIP3    H148656   6.395   2.743  13.691  0.1678 -0.7424 -0.5015
 9055TIP3    H248657   6.489   2.803  13.793 -0.0177 -0.2106 -0.6425
 9056TIP3   OH248658   6.543   6.133   0.941  0.3931 -0.1022 -0.4140
 9056TIP3    H148659   6.600   6.157   1.014  0.5452 -3.0166  0.4779
 9056TIP3    H248660   6.602   6.099   0.874  0.1099  1.2459 -1.3825
 9057TIP3   OH248661   0.425   4.172  14.957 -0.0663  0.4502  0.2082
 9057TIP3    H148662   0.340   4.127  14.953 -0.0211  0.2384  1.4084
 9057TIP3    H248663   0.423   4.219  15.040  1.2066  0.0023  0.4967
 9058TIP3   OH248664   2.719   2.485   4.258 -0.0201 -0.1428 -0.3240
 9058TIP3    H148665   2.797   2.485   4.202 -1.1676 -3.8192 -2.0875
 9058TIP3    H248666   2.657   2.541   4.212  0.4748  0.2416 -0.5344
 9059TIP3   OH248667   4.461   6.398  13.808  0.0666 -0.4045 -0.1780
 9059TIP3    H148668   4.524   6.461  13.843 -0.5679 -0.9123  1.9498
 9059TIP3    H248669   4.391   6.452  13.771  0.1344  0.1514  0.4880
 9060TIP3   OH248670   5.862   5.287  11.800 -0.6073 -0.2383 -0.8822
 9060TIP3    H148671   5.799   5.215  11.796 -0.3367 -0.6183  1.2217
 9060TIP3    H248672   5.812   5.360  11.839  0.8314 -1.2372  2.9878
 9061TIP3   OH248673   1.289   1.236  13.223 -0.1015 -0.1984  0.1632
 9061TIP3    H148674   1.358   1.191  13.174 -0.2520 -1.3378  0.9804
 9061TIP3    H248675   1.234   1.277  13.156  0.3802 -0.7283 -0.5594
 9062TIP3   OH248676   3.065   1.953  12.432 -0.6941  1.1758 -0.7548
 9062TIP3    H148677   3.029   2.032  12.393  0.8083  2.7002  0.8568
 9062TIP3    H248678   3.158   1.972  12.443 -0.5421 -0.3157  0.8004
 9063TIP3   OH248679   2.253   3.293  12.974 -0.1133 -0.4407 -0.1687
 9063TIP3    H148680   2.172   3.336  13.003  0.8829  2.6328 -1.8311
 9063TIP3    H248681   2.251   3.300  12.879  2.3631  0.1371 -0.1982
 9064TIP3   OH248682   2.599   4.456   1.543  0.3443 -0.1726  0.5439
 9064TIP3    H148683   2.523   4.401   1.563 -1.1642  1.0711 -1.5988
 9064TIP3    H248684   2.563   4.530   1.495  2.7643  1.1234  0.6603
 9065TIP3   OH248685   1.636   3.793  14.485  0.1570  0.0458  0.4255
 9065TIP3    H148686   1.716   3.741  14.478 -0.7649 -1.4186  0.5607
 9065TIP3    H248687   1.623   3.804  14.580  0.3889  0.5916  0.3955
 9066TIP3   OH248688   3.221   0.931   3.584  0.7352  0.0189  0.8519
 9066TIP3    H148689   3.230   0.869   3.512  1.1462 -1.4807  2.1625
 9066TIP3    H248690   3.285   1.000   3.566  0.3334  0.0342 -0.5663
 9067TIP3   OH248691   4.725   1.545   2.993  0.1541 -0.7156 -0.2004
 9067TIP3    H148692   4.759   1.625   2.954 -1.3185  0.1532  0.2353
 9067TIP3    H248693   4.714   1.485   2.919 -0.8047  0.2559 -0.8605
 9068TIP3   OH248694   6.553   0.465   3.512  0.0629  0.3111  0.3784
 9068TIP3    H148695   6.538   0.370   3.518 -0.5435  0.3637 -0.1814
 9068TIP3    H248696   6.613   0.484   3.584  0.0952 -0.4808  0.5729
 9069TIP3   OH248697   1.401   1.466  13.862 -0.1102  0.3101  0.9548
 9069TIP3    H148698   1.370   1.556  13.859  1.2792  0.8437  1.8827
 9069TIP3    H248699   1.413   1.448  13.956  0.9131 -0.3665  0.7009
 9070TIP3   OH248700   6.287   1.107   3.139  0.0306 -0.3299 -0.2992
 9070TIP3    H148701   6.346   1.182   3.133 -0.0038 -0.2892 -0.1122
 9070TIP3    H248702   6.286   1.070   3.051 -0.7427  0.4812 -0.6291
 9071TIP3   OH248703   1.014   4.514   6.316  0.3069 -0.6365 -0.7475
 9071TIP3    H148704   1.083   4.548   6.372 -0.0830 -0.3963 -0.4047
 9071TIP3    H248705   0.976   4.442   6.367 -0.1283 -0.3389 -0.6436
 9072TIP3   OH248706   6.111   5.311   5.547 -0.4963  0.2091  0.0715
 9072TIP3    H148707   6.192   5.262   5.561 -0.1285  1.0906  1.1371
 9072TIP3    H248708   6.081   5.283   5.461  0.6880 -0.4867 -0.1372
 9073TIP3   OH248709   5.350   1.049  13.741 -0.1195 -0.2486  0.5355
 9073TIP3    H148710   5.445   1.035  13.745  0.2712  2.2054  0.6702
 9073TIP3    H248711   5.341   1.136  13.702 -2.3609 -0.8494 -0.3314
 9074TIP3   OH248712   0.894   0.229  13.002 -0.5371  0.3283  0.3141
 9074TIP3    H148713   0.946   0.299  13.041 -0.2841  1.1702 -1.4857
 9074TIP3    H248714   0.956   0.158  12.987 -0.5783  0.1101  1.1530
 9075TIP3   OH248715   0.229   1.366   1.863 -0.6490  0.1455 -0.5337
 9075TIP3    H148716   0.224   1.321   1.778 -2.1208 -2.8496  1.0807
 9075TIP3    H248717   0.175   1.313   1.922 -1.2816  3.2684  1.8416
 9076TIP3   OH248718   6.182   5.948   4.350  0.2551  0.0563  0.0565
 9076TIP3    H148719   6.090   5.972   4.354  0.0236 -0.6041 -0.9930
 9076TIP3    H248720   6.183   5.861   4.311  1.3039 -0.1053  0.4073
 9077TIP3   OH248721   1.057   4.359   1.194 -0.3023  0.0700  0.3100
 9077TIP3    H148722   1.084   4.401   1.113 -0.1469  0.1221  0.3882
 9077TIP3    H248723   0.991   4.296   1.168 -0.2625  0.0974  0.1442
 9078TIP3   OH248724   4.610   2.085  14.749 -0.4387 -0.3708  0.3943
 9078TIP3    H148725   4.689   2.037  14.725 -0.2182 -0.2342  0.8331
 9078TIP3    H248726   4.556   2.085  14.670  0.0104 -0.4456  0.0895
 9079TIP3   OH248727   2.995   0.150  16.132 -0.2812  0.5118  0.0062
 9079TIP3    H148728   3.031   0.069  16.098 -0.1029  1.5550 -2.3416
 9079TIP3    H248729   3.072   0.206  16.147 -0.5494  0.9533 -0.2564
 9080TIP3   OH248730   4.323   3.114  10.887  0.2932 -0.1980 -0.1775
 9080TIP3    H148731   4.380   3.086  10.815 -0.6489 -2.8102  0.0560
 9080TIP3    H248732   4.384   3.143  10.955  1.2948 -0.8826 -0.7644
 9081TIP3   OH248733   3.091   6.218  14.977  0.2660 -0.2277 -0.4420
 9081TIP3    H148734   3.143   6.186  15.050 -0.6867 -1.5462 -0.3146
 9081TIP3    H248735   3.087   6.313  14.990  1.2141 -0.3070  0.4685
 9082TIP3   OH248736   6.232   2.161  15.742 -0.1054 -0.1440  0.0383
 9082TIP3    H148737   6.144   2.125  15.749 -0.7847  1.7647  1.9143
 9082TIP3    H248738   6.287   2.100  15.793 -0.5630 -0.5833  0.0084
 9083TIP3   OH248739   2.411   4.676  12.780 -0.3850 -0.2517  0.0468
 9083TIP3    H148740   2.321   4.708  12.773  0.2416  1.5531  0.0965
 9083TIP3    H248741   2.402   4.591  12.823 -1.9794  0.4290  1.1458
 9084TIP3   OH248742   5.399   4.554   2.635  0.0778 -0.1619  0.2584
 9084TIP3    H148743   5.377   4.603   2.715 -0.8363 -2.2572  1.3142
 9084TIP3    H248744   5.463   4.489   2.664 -0.0455 -0.7465 -0.7864
 9085TIP3   OH248745   3.162   3.280  13.170 -0.3834  0.2626  0.7661
 9085TIP3    H148746   3.183   3.351  13.230  0.2432 -1.0457  2.1241
 9085TIP3    H248747   3.210   3.300  13.090  1.5953  0.2041  1.9227
 9086TIP3   OH248748   6.560   2.021   1.386  0.0766 -0.0509  0.2907
 9086TIP3    H148749   6.594   1.940   1.422  0.0672 -0.0111  0.3896
 9086TIP3    H248750   6.478   2.036   1.434 -0.1818 -0.2513 -0.0850
 9087TIP3   OH248751   2.371   0.226  15.366 -0.1586  0.6966 -0.1646
 9087TIP3    H148752   2.387   0.220  15.460  2.9028 -0.2469 -0.7045
 9087TIP3    H248753   2.299   0.164  15.350  0.6923 -0.6951  1.2582
 9088TIP3   OH248754   4.382   0.841   3.826  0.3503 -0.3243  0.1332
 9088TIP3    H148755   4.457   0.876   3.777 -0.6219  0.9763 -0.4407
 9088TIP3    H248756   4.419   0.768   3.876  1.6582 -0.7629 -1.4123
 9089TIP3   OH248757   2.675   6.342   3.746  0.1871 -0.1076  0.1406
 9089TIP3    H148758   2.597   6.365   3.696  0.0681 -2.5053 -0.8405
 9089TIP3    H248759   2.668   6.394   3.826 -1.8656  0.4899 -0.3909
 9090TIP3   OH248760   2.436   1.190   4.673  0.7474  0.1654 -0.1458
 9090TIP3    H148761   2.519   1.213   4.632  1.1589  0.7896  1.0059
 9090TIP3    H248762   2.458   1.117   4.732  0.0399 -1.1677 -1.4971
 9091TIP3   OH248763   6.402   1.316   1.214  0.1137  0.6099  0.3637
 9091TIP3    H148764   6.445   1.382   1.267 -0.4872  1.4510 -0.1818
 9091TIP3    H248765   6.355   1.366   1.147 -0.6341 -0.3523  0.1605
 9092TIP3   OH248766   4.965   5.070  11.200 -0.3682  0.1339 -0.2232
 9092TIP3    H148767   5.022   5.031  11.134 -1.2231  0.1895 -1.0052
 9092TIP3    H248768   5.019   5.073  11.279 -0.2280 -2.5008 -0.1585
 9093TIP3   OH248769   2.678   6.329   4.520  0.3039 -0.0109  0.3922
 9093TIP3    H148770   2.700   6.244   4.483 -0.9443  0.0240 -0.4832
 9093TIP3    H248771   2.762   6.374   4.528  0.8434 -0.8755 -0.2844
 9094TIP3   OH248772   3.974   5.368   4.894  0.5869 -0.4141  0.4820
 9094TIP3    H148773   3.921   5.446   4.913  0.4744 -0.9436  2.5013
 9094TIP3    H248774   4.029   5.393   4.820 -1.3875  0.6635 -0.6451
 9095TIP3   OH248775   3.919   6.087  16.287  0.1773 -0.3693  0.1421
 9095TIP3    H148776   3.829   6.059  16.271 -0.4799  1.4714  0.5677
 9095TIP3    H248777   3.951   6.025  16.352 -0.7237 -1.1210 -0.1135
 9096TIP3   OH248778   1.937   2.870  12.472  0.1311 -0.0300  0.5008
 9096TIP3    H148779   1.969   2.837  12.387 -2.0131 -1.1690  0.0947
 9096TIP3    H248780   1.881   2.944  12.449  1.1064  0.8988  1.0827
 9097TIP3   OH248781   2.174   1.308  10.440  0.1504  0.3273 -0.4801
 9097TIP3    H148782   2.230   1.249  10.389  0.7936  0.8189 -0.3471
 9097TIP3    H248783   2.191   1.394  10.403  2.0096  0.9685  1.7519
 9098TIP3   OH248784   1.338   4.457   1.866  0.1320 -0.1887  0.0291
 9098TIP3    H148785   1.285   4.427   1.940 -0.7480  1.0399 -0.0964
 9098TIP3    H248786   1.335   4.384   1.803 -3.5529  0.8140 -1.0832
 9099TIP3   OH248787   0.654   1.597  16.473  0.1742  0.1535  0.5863
 9099TIP3    H148788   0.572   1.605  16.521  0.5432  1.1632  1.0797
 9099TIP3    H248789   0.629   1.605  16.381 -0.3678 -0.3477  0.6901
 9100TIP3   OH248790   0.693   5.243   4.337  0.4438  0.9757  0.0420
 9100TIP3    H148791   0.611   5.255   4.289  0.3317 -2.1871 -0.7010
 9100TIP3    H248792   0.667   5.193   4.415  1.4006  1.6263  0.7835
 9101TIP3   OH248793   0.429   4.718  16.118 -0.1641 -0.3924  0.1512
 9101TIP3    H148794   0.429   4.702  16.024  2.7923  0.0023  0.0283
 9101TIP3    H248795   0.512   4.763  16.134 -0.7259 -0.2678  2.9151
 9102TIP3   OH248796   4.142   0.326   1.981 -0.2898 -0.0478  0.2297
 9102TIP3    H148797   4.194   0.246   1.979  1.8608  1.3435 -0.1753
 9102TIP3    H248798   4.092   0.323   1.899  0.9338 -0.2187 -0.5201
 9103TIP3   OH248799   5.662   4.850   4.583 -0.0515  0.1645 -0.0187
 9103TIP3    H148800   5.675   4.935   4.625 -0.1656  0.7340 -1.1257
 9103TIP3    H248801   5.575   4.857   4.543  0.9627  0.4465 -2.2514
 9104TIP3   OH248802   3.117   3.613  15.282  0.3887  0.2133 -0.2710
 9104TIP3    H148803   3.112   3.694  15.333  0.7857  0.7917 -1.1423
 9104TIP3    H248804   3.034   3.609  15.235 -0.3577 -0.7802  1.0785
 9105TIP3   OH248805   1.817   3.761   1.613 -0.8091  0.8345 -0.2022
 9105TIP3    H148806   1.854   3.849   1.605 -0.6034  0.7056 -0.6391
 9105TIP3    H248807   1.872   3.706   1.557 -1.1187  0.4820 -0.1621
 9106TIP3   OH248808   6.168   1.563   5.566  0.5121  0.1028  0.1603
 9106TIP3    H148809   6.116   1.636   5.534 -0.5504 -0.8074 -0.2263
 9106TIP3    H248810   6.145   1.556   5.659 -1.6093 -1.5691 -0.4692
 9107TIP3   OH248811   6.278   0.281   5.593 -0.5899  0.5240 -0.3436
 9107TIP3    H148812   6.237   0.344   5.533 -1.8218  0.4250  0.3887
 9107TIP3    H248813   6.206   0.228   5.626 -0.2205  1.9958  2.9495
 9108TIP3   OH248814   6.349   5.447  11.181 -0.1609 -0.8344  1.0374
 9108TIP3    H148815   6.320   5.419  11.094 -0.9277  0.2180  0.9532
 9108TIP3    H248816   6.377   5.538  11.169 -0.0664 -0.7549  1.8481
 9109TIP3   OH248817   3.458   5.474   5.389  0.3097 -0.1207 -0.0339
 9109TIP3    H148818   3.542   5.431   5.371  0.1853 -0.2416 -0.3198
 9109TIP3    H248819   3.452   5.474   5.484 -0.4377 -2.1862 -0.0636
 9110TIP3   OH248820   2.726   1.079   0.158 -0.3261  0.8435  0.1570
 9110TIP3    H148821   2.820   1.083   0.174 -0.1507 -0.5066 -0.4505
 9110TIP3    H248822   2.688   1.054   0.242 -0.3209  2.9449  0.8273
 9111TIP3   OH248823   1.131   3.087   5.579 -0.2893 -0.5790  0.3527
 9111TIP3    H148824   1.175   3.123   5.503 -2.7524  0.9065 -0.4465
 9111TIP3    H248825   1.201   3.058   5.637  1.6687  0.9470 -1.2057
 9112TIP3   OH248826   6.602   4.486  12.709  0.0352  0.2812 -0.0701
 9112TIP3    H148827   6.628   4.396  12.690 -1.5163 -0.1628 -0.1277
 9112TIP3    H248828   6.550   4.512  12.633  1.0945  1.4990 -0.4010
 9113TIP3   OH248829   5.072   2.866   4.892  0.3868 -0.1400  0.8394
 9113TIP3    H148830   5.168   2.871   4.893  0.3780 -0.0218  1.0031
 9113TIP3    H248831   5.044   2.920   4.965  0.1325  1.1787 -0.2170
 9114TIP3   OH248832   0.227   0.389   4.254  0.1867  0.4526  0.5786
 9114TIP3    H148833   0.278   0.347   4.185 -0.5854  1.1039 -0.3946
 9114TIP3    H248834   0.253   0.481   4.250  2.3835  0.0299  3.1439
 9115TIP3   OH248835   0.322   1.825  12.523  0.0358  0.1461  0.7530
 9115TIP3    H148836   0.277   1.754  12.478  0.5268  0.0133  0.4690
 9115TIP3    H248837   0.391   1.852  12.463  1.0512 -0.4073  1.6584
 9116TIP3   OH248838   5.645   4.960   2.383 -0.9291  0.5890  0.1224
 9116TIP3    H148839   5.595   4.889   2.424 -0.9255  0.5385  0.0395
 9116TIP3    H248840   5.619   5.038   2.431  0.6721  0.2208  1.6163
 9117TIP3   OH248841   2.913   5.137  15.305 -0.8500  0.8896  0.5809
 9117TIP3    H148842   2.846   5.072  15.327  1.5680 -2.6300 -1.7916
 9117TIP3    H248843   2.921   5.131  15.209  0.7426  3.4391  0.5069
 9118TIP3   OH248844   1.801   3.025  10.596  0.6387 -0.5729  0.1138
 9118TIP3    H148845   1.872   3.008  10.658  1.0091  1.6075  0.3364
 9118TIP3    H248846   1.845   3.060  10.518  0.0745 -2.1658 -0.9367
 9119TIP3   OH248847   0.041   3.454   5.534  0.2289 -0.0604 -0.0093
 9119TIP3    H148848   0.094   3.520   5.578  1.2615 -0.6692 -0.3326
 9119TIP3    H248849  -0.008   3.504   5.468  1.3056  0.3276 -0.5258
 9120TIP3   OH248850   5.198   5.310   4.933  0.3124 -0.2205  0.0186
 9120TIP3    H148851   5.182   5.334   5.025 -0.5826 -1.3953  0.1752
 9120TIP3    H248852   5.294   5.305   4.927  0.3916  0.1367  0.8178
 9121TIP3   OH248853   5.746   2.211  14.859 -0.0126  0.0045  0.3131
 9121TIP3    H148854   5.785   2.277  14.917  1.6048  0.2050 -0.9797
 9121TIP3    H248855   5.704   2.262  14.790 -0.2658 -0.2761  0.2597
 9122TIP3   OH248856   0.769   2.079   3.918  0.0789 -0.0044  0.0585
 9122TIP3    H148857   0.861   2.058   3.903  0.8734  1.0280  3.1574
 9122TIP3    H248858   0.763   2.173   3.903 -0.4635 -0.0471 -0.0166
 9123TIP3   OH248859   3.780   5.155   3.328  0.1532 -0.0180 -0.4205
 9123TIP3    H148860   3.699   5.118   3.295  0.7565 -0.1723 -1.7493
 9123TIP3    H248861   3.756   5.194   3.412 -1.2237 -0.3239 -0.6635
 9124TIP3   OH248862   4.980   2.552   5.726 -0.4083  0.5153  0.3028
 9124TIP3    H148863   5.019   2.628   5.683 -2.2916  0.2039 -2.0751
 9124TIP3    H248864   4.887   2.573   5.732 -1.0319 -1.7299 -0.7820
 9125TIP3   OH248865   5.973   6.045  16.310  0.5907 -0.3544 -0.2579
 9125TIP3    H148866   5.963   5.964  16.260 -3.1275  1.2802 -2.3877
 9125TIP3    H248867   5.903   6.041  16.376  0.9875  0.6783  0.2383
 9126TIP3   OH248868   4.963   4.182   6.043 -0.1018  0.5721 -0.4985
 9126TIP3    H148869   5.030   4.115   6.033 -0.8564 -0.6104  1.8878
 9126TIP3    H248870   5.012   4.265   6.043  1.2150 -0.1893 -0.1840
 9127TIP3   OH248871   0.113   3.557   0.863  0.9166 -0.3463 -0.1924
 9127TIP3    H148872   0.194   3.566   0.813  0.9006 -1.8018 -0.5132
 9127TIP3    H248873   0.119   3.470   0.903  0.3002  0.2348  1.2123
 9128TIP3   OH248874   4.615   4.259  11.923 -0.2586  0.2915 -0.3097
 9128TIP3    H148875   4.676   4.238  11.994 -1.1661 -1.2064  0.0491
 9128TIP3    H248876   4.531   4.226  11.953 -0.9757  1.0938 -1.4064
 9129TIP3   OH248877   1.777   0.855  11.169  0.5730  0.2889  0.3853
 9129TIP3    H148878   1.861   0.824  11.135  1.2918  0.8642  1.6076
 9129TIP3    H248879   1.762   0.803  11.247 -0.0542  0.4081  0.3409
 9130TIP3   OH248880   0.907   4.821   2.193 -0.5045  0.1891  0.2630
 9130TIP3    H148881   0.925   4.910   2.163  0.6890  0.2333  1.0693
 9130TIP3    H248882   0.857   4.833   2.274 -1.4703  0.1016 -0.3127
 9131TIP3   OH248883   6.757   2.075   2.311  0.6105  0.2327  0.2248
 9131TIP3    H148884   6.814   2.151   2.302 -1.1923  1.5406 -0.3061
 9131TIP3    H248885   6.714   2.087   2.396 -2.3294  1.6926 -1.3854
 9132TIP3   OH248886   3.305   5.753   5.452  0.4993 -0.0733 -0.4162
 9132TIP3    H148887   3.346   5.762   5.366  1.0927  0.6332 -0.0609
 9132TIP3    H248888   3.372   5.713   5.507  0.0185 -0.7951 -0.3585
 9133TIP3   OH248889   4.730   4.590  10.937 -0.0239  0.2791  0.4572
 9133TIP3    H148890   4.818   4.563  10.962 -0.8275 -0.2588  2.8333
 9133TIP3    H248891   4.740   4.627  10.849  2.2526 -1.3798 -0.0154
 9134TIP3   OH248892   6.333   4.128   3.198  0.1485 -0.4963  0.0151
 9134TIP3    H148893   6.312   4.205   3.145  0.8837  1.6797  2.7831
 9134TIP3    H248894   6.259   4.119   3.258  1.5916  0.0502  1.8957
 9135TIP3   OH248895   0.586   3.627   1.456  0.1106 -0.2743 -0.1860
 9135TIP3    H148896   0.598   3.565   1.528 -0.9147  0.9991  1.0980
 9135TIP3    H248897   0.670   3.672   1.449  0.2164 -0.4054  0.2160
 9136TIP3   OH248898   3.938   5.768  15.898  0.1545 -0.5314  0.2360
 9136TIP3    H148899   4.005   5.817  15.851  1.6947 -1.6755  1.2282
 9136TIP3    H248900   3.929   5.812  15.982 -0.9338  0.0918 -0.1834
 9137TIP3   OH248901   4.469   0.909  10.775 -0.1451 -0.3563  0.1317
 9137TIP3    H148902   4.506   0.936  10.859 -1.6420 -0.5524  0.8847
 9137TIP3    H248903   4.535   0.933  10.710  0.9250  0.0208  1.3399
 9138TIP3   OH248904   2.491   1.190  10.420  0.0775  0.4591 -0.2961
 9138TIP3    H148905   2.537   1.259  10.373 -1.5950  0.6051 -1.7437
 9138TIP3    H248906   2.502   1.213  10.513  2.9577  0.4349 -0.5915
 9139TIP3   OH248907   4.990   2.736  12.323  0.5064  0.2461 -0.0010
 9139TIP3    H148908   4.955   2.740  12.234  0.6341 -0.1892 -0.0719
 9139TIP3    H248909   4.982   2.644  12.347  1.2422  0.2176  0.1284
 9140TIP3   OH248910   6.576   5.030   2.658  0.2584 -0.3248 -0.0717
 9140TIP3    H148911   6.627   5.080   2.595  0.2898  0.0647  0.2648
 9140TIP3    H248912   6.545   4.954   2.609  3.1242 -1.8080  0.3179
 9141TIP3   OH248913   5.945   2.225   5.405  0.5464  0.3869  0.2979
 9141TIP3    H148914   5.886   2.216   5.331  1.7575 -0.2974 -0.5878
 9141TIP3    H248915   5.894   2.272   5.471 -1.9004 -2.5013  0.5563
 9142TIP3   OH248916   6.185   0.770   1.452 -0.6908  0.4003 -0.0118
 9142TIP3    H148917   6.144   0.720   1.381  1.6455 -1.3341 -0.2030
 9142TIP3    H248918   6.254   0.819   1.409 -1.9101  2.5985  0.4557
 9143TIP3   OH248919   3.693   3.472  11.220  0.3079 -0.1683 -0.1884
 9143TIP3    H148920   3.746   3.535  11.170  0.8859  0.5897  1.3295
 9143TIP3    H248921   3.666   3.407  11.156  1.0519  0.7705 -1.4806
 9144TIP3   OH248922   2.774   0.506   3.248  0.1479 -0.1828  0.0506
 9144TIP3    H148923   2.833   0.534   3.178  0.8554 -0.8723  0.3509
 9144TIP3    H248924   2.715   0.579   3.261  2.0876  1.2460  0.9822
 9145TIP3   OH248925   2.257   2.064   1.164 -0.8172 -0.1955  0.3002
 9145TIP3    H148926   2.282   2.154   1.186  0.4255 -0.3915 -0.2752
 9145TIP3    H248927   2.226   2.027   1.247 -0.3480  0.4371  0.7627
 9146TIP3   OH248928   2.352   3.031   6.034  0.4954  0.3186 -0.2309
 9146TIP3    H148929   2.335   3.122   6.009 -1.8244 -0.5891 -2.1904
 9146TIP3    H248930   2.382   3.036   6.125  0.7417  3.0542 -0.4201
 9147TIP3   OH248931   2.385   1.821  13.492 -0.3143 -0.3060  0.6181
 9147TIP3    H148932   2.386   1.725  13.483 -0.6555 -0.5213  2.7115
 9147TIP3    H248933   2.303   1.847  13.449 -1.0942 -1.1312  1.5655
 9148TIP3   OH248934   5.069   1.813   2.391  0.2302  0.5241  0.1025
 9148TIP3    H148935   5.018   1.772   2.460  0.0703  1.5549  0.6163
 9148TIP3    H248936   5.106   1.741   2.341 -1.6669 -0.2355 -0.2375
 9149TIP3   OH248937   5.207   5.917   2.934 -1.0883 -0.6770  0.3900
 9149TIP3    H148938   5.158   5.979   2.989 -2.1469 -1.1638  0.0122
 9149TIP3    H248939   5.295   5.953   2.931 -1.2231 -0.1855  1.7196
 9150TIP3   OH248940   5.905   2.363   6.603  0.2191  0.0588 -0.0287
 9150TIP3    H148941   5.911   2.447   6.557 -1.2996  1.4282  2.1480
 9150TIP3    H248942   5.972   2.369   6.672 -1.1830  0.2869  1.3265
 9151TIP3   OH248943   3.278   3.158   6.573  0.1371 -0.2933 -0.2204
 9151TIP3    H148944   3.206   3.127   6.517  0.0604 -0.5374  0.0129
 9151TIP3    H248945   3.353   3.103   6.548  0.1678 -0.2355 -0.2565
 9152TIP3   OH248946   1.011   4.593  14.861  0.4138  0.2320  0.1618
 9152TIP3    H148947   1.093   4.589  14.812  0.4225  0.5288  0.1493
 9152TIP3    H248948   0.953   4.531  14.817  0.0126  1.3819 -0.9909
 9153TIP3   OH248949   3.134   6.366  11.340 -0.4590  0.1619  0.1121
 9153TIP3    H148950   3.102   6.433  11.280 -0.5327  0.0014 -0.0250
 9153TIP3    H248951   3.056   6.336  11.387 -0.3304  0.6433  0.6455
 9154TIP3   OH248952   3.200   1.930  11.698 -0.0866 -0.5618  0.0994
 9154TIP3    H148953   3.113   1.959  11.724 -0.0359 -0.6765  0.3987
 9154TIP3    H248954   3.218   1.854  11.753  0.4229 -0.2056  0.4246
 9155TIP3   OH248955   2.908   2.408  15.861 -0.0044 -0.0181 -0.7193
 9155TIP3    H148956   2.987   2.370  15.822 -0.7129 -0.6219 -1.5925
 9155TIP3    H248957   2.867   2.335  15.908 -0.6019  0.0182 -1.1705
 9156TIP3   OH248958   4.383   4.173   6.310 -0.0331 -0.3033 -0.0241
 9156TIP3    H148959   4.305   4.226   6.289  0.0598 -1.1976 -2.8849
 9156TIP3    H248960   4.355   4.083   6.297  1.7506 -0.5914 -2.2686
 9157TIP3   OH248961   0.930   4.922   6.189 -0.4264 -0.6546  0.1325
 9157TIP3    H148962   0.853   4.971   6.218 -0.5446  0.1006 -1.4442
 9157TIP3    H248963   0.980   4.907   6.270 -0.7965  1.3394  0.7569
 9158TIP3   OH248964   3.136   0.869  11.949 -0.0778 -0.4316  0.1834
 9158TIP3    H148965   3.128   0.774  11.954 -0.9666 -0.2309  3.1229
 9158TIP3    H248966   3.067   0.896  11.888  0.0623 -1.6473 -0.5139
 9159TIP3   OH248967   2.788   3.459  12.066  0.4828  0.3637 -0.2916
 9159TIP3    H148968   2.753   3.527  12.123 -0.6269  0.9124 -1.5998
 9159TIP3    H248969   2.881   3.452  12.090  0.2450  1.2369  0.9120
 9160TIP3   OH248970   2.778   1.376   4.250 -0.2459  0.0023 -0.0996
 9160TIP3    H148971   2.735   1.315   4.191 -2.7125  0.0169  1.5934
 9160TIP3    H248972   2.755   1.344   4.338  1.1940  1.4441  0.8268
 9161TIP3   OH248973   2.514   1.072   5.675  0.7719 -0.3061  0.0959
 9161TIP3    H148974   2.451   1.046   5.607 -1.5959  0.4383  1.9187
 9161TIP3    H248975   2.530   0.992   5.724  0.1444 -0.1889  0.4922
 9162TIP3   OH248976   5.316   4.595  17.285 -1.2137  0.2693  0.3569
 9162TIP3    H148977   5.388   4.632  17.335  0.8888 -0.0786 -2.3218
 9162TIP3    H248978   5.282   4.524  17.340 -0.7906  1.6502  2.4625
 9163TIP3   OH248979   6.356   5.492   5.197  0.6509  0.5771  0.1405
 9163TIP3    H148980   6.323   5.403   5.212 -0.5309  1.0535  0.4083
 9163TIP3    H248981   6.353   5.534   5.283  0.6607  1.0567 -0.0909
 9164TIP3   OH248982   3.745   5.365   4.029 -0.1302  0.7716  0.0835
 9164TIP3    H148983   3.831   5.402   4.009  0.7226  0.1399  2.4344
 9164TIP3    H248984   3.746   5.279   3.988  0.3684  0.7595  0.1168
 9165TIP3   OH248985   2.149   3.909  12.361 -0.5191  0.2371  0.3283
 9165TIP3    H148986   2.081   3.975  12.372 -1.6050 -0.8372  0.1812
 9165TIP3    H248987   2.189   3.928  12.277 -0.5126  0.9780  0.4945
 9166TIP3   OH248988   6.480   1.333  16.749 -0.6468  0.1658 -0.3864
 9166TIP3    H148989   6.497   1.239  16.757  0.1106  0.4696  1.7959
 9166TIP3    H248990   6.448   1.359  16.835 -1.6813  1.7642 -1.2320
 9167TIP3   OH248991   4.740   4.300  11.630 -0.8840  0.2068  0.1129
 9167TIP3    H148992   4.646   4.286  11.645 -0.5164 -2.2675  0.2049
 9167TIP3    H248993   4.746   4.319  11.536 -1.6519  2.2186  0.4394
 9168TIP3   OH248994   0.829   0.790   0.597  0.1994 -0.9640  0.2296
 9168TIP3    H148995   0.910   0.760   0.556  0.4796 -1.0033  0.7936
 9168TIP3    H248996   0.778   0.828   0.526  1.1251 -0.0563  0.0347
 9169TIP3   OH248997   1.898   2.027   4.338 -0.4101 -0.1523 -0.1055
 9169TIP3    H148998   1.846   2.107   4.350  0.2215  0.3492 -0.6174
 9169TIP3    H248999   1.964   2.052   4.273 -0.2815 -1.1310 -0.3508
 9170TIP3   OH249000   1.128   5.088   5.822  0.3277 -0.2440  0.1452
 9170TIP3    H149001   1.035   5.075   5.805  0.2074  1.0288 -0.2300
 9170TIP3    H249002   1.137   5.080   5.917  0.1601 -2.2950  0.0108
 9171TIP3   OH249003   2.905   2.834  16.480 -0.5376  0.1053  0.0563
 9171TIP3    H149004   2.871   2.748  16.504  0.5391 -0.2294  0.4028
 9171TIP3    H249005   2.849   2.863  16.408 -2.6202  0.3022  1.7218
 9172TIP3   OH249006   3.724   4.995   6.728  1.1273 -0.6848  0.4661
 9172TIP3    H149007   3.702   5.079   6.768 -0.8402 -0.1150 -1.7252
 9172TIP3    H249008   3.784   5.017   6.656  1.8524 -1.3205  0.8666
 9173TIP3   OH249009   5.080   0.433   4.335 -0.3081 -0.2860 -0.4088
 9173TIP3    H149010   5.069   0.513   4.283 -0.3008  0.4755  0.7527
 9173TIP3    H249011   4.995   0.389   4.330  0.0273 -0.8075 -2.0118
 9174TIP3   OH249012   1.425   1.386   3.595  0.4903  0.4474  0.0193
 9174TIP3    H149013   1.498   1.328   3.572 -0.5938 -0.6416 -0.7220
 9174TIP3    H249014   1.354   1.327   3.621 -0.4495  1.4606 -0.1965
 9175TIP3   OH249015   2.755   2.179  14.392 -0.3744  0.9871  0.1852
 9175TIP3    H149016   2.724   2.144  14.476 -2.1363  0.1383 -0.7998
 9175TIP3    H249017   2.677   2.219  14.352  0.6771  2.2976 -0.6042
 9176TIP3   OH249018   0.279   5.021   1.379  0.1519 -0.2786  0.1799
 9176TIP3    H149019   0.304   5.002   1.470 -0.4697  0.7512  0.5685
 9176TIP3    H249020   0.358   5.060   1.341 -0.0730  0.7486  0.7329
 9177TIP3   OH249021   0.778   2.767   0.916 -0.0864  0.1260  0.1232
 9177TIP3    H149022   0.772   2.762   0.821  0.1999 -1.4759  0.1780
 9177TIP3    H249023   0.715   2.835   0.940  1.1375  1.8258 -1.3320
 9178TIP3   OH249024   2.355   0.963  14.362 -0.3265  0.2958 -0.2912
 9178TIP3    H149025   2.302   0.894  14.402  0.0274  0.6972  0.8970
 9178TIP3    H249026   2.394   1.009  14.436 -0.1044  1.4166 -1.0890
 9179TIP3   OH249027   4.861   4.404  16.845  0.2111 -0.1140  0.4121
 9179TIP3    H149028   4.932   4.392  16.908  0.3345 -0.5685  0.1857
 9179TIP3    H249029   4.850   4.499  16.839  1.4390 -0.0095 -0.2770
 9180TIP3   OH249030   3.090   1.576   3.251 -0.4777  0.5048  0.4464
 9180TIP3    H149031   3.115   1.520   3.325 -0.7931  1.1524  1.0494
 9180TIP3    H249032   3.148   1.652   3.257 -0.8111  0.7758  0.3042
 9181TIP3   OH249033   3.430   4.026  16.152 -0.2789  0.2026  0.3132
 9181TIP3    H149034   3.390   4.112  16.140 -0.4736 -0.0108 -0.6226
 9181TIP3    H249035   3.367   3.964  16.114 -0.5702 -0.4464  1.8341
 9182TIP3   OH249036   6.263   1.130  14.715 -0.1523 -0.2345 -0.0313
 9182TIP3    H149037   6.176   1.162  14.739  0.3807  0.6306  0.8074
 9182TIP3    H249038   6.289   1.073  14.787  1.0931  1.6811  1.0868
 9183TIP3   OH249039   5.253   5.742  15.819  0.4903 -0.0641 -0.5197
 9183TIP3    H149040   5.342   5.765  15.845  0.8056 -0.5427 -1.1592
 9183TIP3    H249041   5.238   5.656  15.858 -0.4282  0.8712  1.2717
 9184TIP3   OH249042   0.114   3.929   1.824  0.0222 -0.1455  0.4090
 9184TIP3    H149043   0.052   3.857   1.837  0.2479 -0.2146  1.1476
 9184TIP3    H249044   0.183   3.893   1.769 -0.8438  0.0781 -0.8418
 9185TIP3   OH249045   1.182   4.037   5.702  0.3269 -0.2293 -0.1352
 9185TIP3    H149046   1.235   3.959   5.683  1.9539  0.1053  2.8024
 9185TIP3    H249047   1.239   4.111   5.682 -0.4684  0.2293 -0.7911
 9186TIP3   OH249048   3.741   2.853  14.246  0.2982  0.2812  0.4131
 9186TIP3    H149049   3.716   2.766  14.215  1.0530 -0.1424  1.0058
 9186TIP3    H249050   3.699   2.861  14.331  1.3260 -0.0174  0.9432
 9187TIP3   OH249051   5.557   6.369  10.717 -0.0132  0.5638 -0.1973
 9187TIP3    H149052   5.514   6.335  10.639  0.5522  1.0271 -0.7173
 9187TIP3    H249053   5.607   6.445  10.686 -0.5248  1.3137  0.7786
 9188TIP3   OH249054   0.904   0.298  10.431 -0.1982 -0.1336 -0.4578
 9188TIP3    H149055   0.947   0.379  10.407 -0.1977 -0.4028 -1.3938
 9188TIP3    H249056   0.811   0.321  10.438 -0.3927 -0.3300 -2.0932
 9189TIP3   OH249057   5.306   5.300   3.190 -0.1856 -0.1722  0.1236
 9189TIP3    H149058   5.240   5.254   3.137  0.2251  0.9511 -1.3805
 9189TIP3    H249059   5.336   5.234   3.253 -2.2972 -0.8757  0.4226
 9190TIP3   OH249060   6.071   3.003  16.848 -0.2118 -0.5937  0.4040
 9190TIP3    H149061   5.994   2.947  16.862 -0.0876 -0.9850 -0.4526
 9190TIP3    H249062   6.145   2.951  16.879 -0.2919 -0.2203  1.2222
 9191TIP3   OH249063   5.756   4.491   0.704  0.1101 -0.1239 -0.1442
 9191TIP3    H149064   5.834   4.502   0.649 -0.2712 -0.4665 -0.7614
 9191TIP3    H249065   5.785   4.434   0.776 -0.1513 -2.1259 -1.5911
 9192TIP3   OH249066   6.126   6.692  13.987 -0.0513  0.3810 -0.0218
 9192TIP3    H149067   6.175   6.717  13.909  0.6294  1.0186  0.6016
 9192TIP3    H249068   6.093   6.775  14.022  1.3946  0.3329  1.5248
 9193TIP3   OH249069   0.286   4.882   5.339  0.2711 -0.1703 -0.2397
 9193TIP3    H149070   0.279   4.905   5.431  2.2903  0.1720 -0.1504
 9193TIP3    H249071   0.237   4.801   5.330 -0.5937  0.2046  0.9609
 9194TIP3   OH249072   3.948   4.092   3.475  0.2158  0.4515 -0.5174
 9194TIP3    H149073   3.932   4.164   3.414  1.2880  0.5825 -0.6585
 9194TIP3    H249074   3.998   4.028   3.425  3.2273  1.6212  0.8710
 9195TIP3   OH249075   3.036   5.146  11.258  0.1552 -0.7283  0.1191
 9195TIP3    H149076   3.073   5.228  11.292  1.0356 -1.7888  1.7716
 9195TIP3    H249077   3.049   5.151  11.163 -0.9146  1.5846  0.0484
 9196TIP3   OH249078   1.666   5.159  16.361  0.1590 -0.5518 -0.2345
 9196TIP3    H149079   1.591   5.204  16.322 -0.0331 -0.2923  0.4105
 9196TIP3    H249080   1.628   5.109  16.434  0.6254 -0.3523  0.1453
 9197TIP3   OH249081   5.908   6.056   4.325  0.1525  0.5512 -0.2004
 9197TIP3    H149082   5.871   5.967   4.321  0.1555  0.5764 -0.9161
 9197TIP3    H249083   5.838   6.109   4.361  0.3328  0.1599  0.7316
 9198TIP3   OH249084   6.628   0.241   1.577  0.4117 -0.4474  0.2232
 9198TIP3    H149085   6.686   0.301   1.623 -0.5979  2.0371 -1.5905
 9198TIP3    H249086   6.553   0.231   1.635  2.4014 -3.3860  2.4131
 9199TIP3   OH249087   0.943   5.688  15.632  0.2602  0.1586 -0.4100
 9199TIP3    H149088   0.879   5.624  15.663  1.4733 -0.4977  0.7820
 9199TIP3    H249089   1.017   5.635  15.602  0.7495  0.9653 -0.6330
 9200TIP3   OH249090   0.378   3.773  13.297  0.1861  0.0311  0.6489
 9200TIP3    H149091   0.412   3.825  13.370 -2.1959  0.9569  1.1337
 9200TIP3    H249092   0.304   3.725  13.334 -0.9766  0.4278 -1.0887
 9201TIP3   OH249093   3.352   1.828   5.449 -0.1838  0.0428  0.0573
 9201TIP3    H149094   3.348   1.749   5.503 -0.6370  0.0453  0.0305
 9201TIP3    H249095   3.294   1.890   5.493  0.2240  0.3843  0.1167
 9202TIP3   OH249096   0.700   1.420   1.859  0.3645 -0.1282  0.0577
 9202TIP3    H149097   0.682   1.390   1.770 -0.2564  1.5743 -0.4069
 9202TIP3    H249098   0.614   1.433   1.899  0.5676  1.9418 -0.0927
 9203TIP3   OH249099   4.825   4.608   0.532  0.5711 -0.6158 -0.0645
 9203TIP3    H149100   4.850   4.625   0.441  2.0254 -0.4859  0.3536
 9203TIP3    H249101   4.764   4.679   0.554  0.4699 -0.4598 -0.8272
 9204TIP3   OH249102   1.505   1.595  13.603  0.4937 -0.0311 -0.2356
 9204TIP3    H149103   1.446   1.645  13.548  0.2029  0.4831  0.5271
 9204TIP3    H249104   1.451   1.565  13.676  0.5107 -2.0056 -0.9861
 9205TIP3   OH249105   1.896   5.469  12.621 -0.1553  0.1954 -0.5988
 9205TIP3    H149106   1.913   5.397  12.681 -0.5093  0.5453 -0.0727
 9205TIP3    H249107   1.858   5.538  12.676 -0.9689  0.3318 -1.3122
 9206TIP3   OH249108   2.716   3.526  13.685  0.0721  0.1461  0.7140
 9206TIP3    H149109   2.740   3.434  13.671 -0.1649  0.3547 -1.2647
 9206TIP3    H249110   2.799   3.572  13.694  0.1826 -0.3147  2.1897
 9207TIP3   OH249111   3.093   2.507   3.236  0.2789 -0.0446 -0.3894
 9207TIP3    H149112   3.158   2.568   3.272 -1.7802  1.5250  0.8469
 9207TIP3    H249113   3.118   2.496   3.145  1.2828  1.9072 -0.3814
 9208TIP3   OH249114   1.908   3.152   4.199  0.7150 -0.3299 -0.0134
 9208TIP3    H149115   1.955   3.235   4.207  1.0126 -0.4458 -0.5719
 9208TIP3    H249116   1.965   3.096   4.146 -0.4281 -0.1831 -1.4393
 9209TIP3   OH249117   3.552   3.402   1.386 -0.1878 -0.3360 -0.2344
 9209TIP3    H149118   3.475   3.375   1.336  0.3154  0.2694 -1.3507
 9209TIP3    H249119   3.564   3.332   1.450 -2.1652 -0.0328  0.5280
 9210TIP3   OH249120   6.645   6.147  15.703  0.0305 -0.5546 -0.5575
 9210TIP3    H149121   6.585   6.215  15.673  0.2509 -0.7235 -1.3708
 9210TIP3    H249122   6.611   6.122  15.789 -0.0082  0.6333 -0.2164
 9211TIP3   OH249123   2.841   5.786   0.215 -0.1050 -0.5276  0.9549
 9211TIP3    H149124   2.752   5.770   0.182  0.0529 -0.8145  0.6637
 9211TIP3    H249125   2.828   5.846   0.289 -0.5583 -0.7263  1.0417
 9212TIP3   OH249126   2.669   0.307  10.518 -0.2069 -0.0173  0.3109
 9212TIP3    H149127   2.625   0.248  10.457  1.4211 -1.3760  0.3970
 9212TIP3    H249128   2.629   0.392  10.502 -0.6171 -0.5813 -1.8547
 9213TIP3   OH249129   3.196   2.735  13.023  0.1331 -0.0429  0.0258
 9213TIP3    H149130   3.181   2.734  12.929 -0.2009 -0.5953  0.0843
 9213TIP3    H249131   3.271   2.677  13.036  0.5499  0.4839  0.0475
 9214TIP3   OH249132   0.909   0.462  10.756  0.1372 -0.4358  0.7817
 9214TIP3    H149133   0.921   0.546  10.711 -1.3045 -0.4227  0.4127
 9214TIP3    H249134   0.820   0.435  10.734 -0.1700 -1.0316  2.6253
 9215TIP3   OH249135   4.315   2.164   0.475  0.0885 -0.1988 -0.3081
 9215TIP3    H149136   4.327   2.128   0.387  2.2619  1.1423 -0.6061
 9215TIP3    H249137   4.220   2.164   0.488 -0.1198 -3.1732 -1.4553
 9216TIP3   OH249138   4.312   0.115   5.377  0.4072  0.4172  0.2519
 9216TIP3    H149139   4.221   0.144   5.372  0.0278 -0.8500 -0.3306
 9216TIP3    H249140   4.331   0.081   5.289  1.0730 -0.4007  0.7110
 9217TIP3   OH249141   2.135   6.591   5.417 -0.0480 -0.7223  0.7335
 9217TIP3    H149142   2.196   6.540   5.469  0.0918 -0.4277  0.8593
 9217TIP3    H249143   2.185   6.666   5.387  0.1648 -1.3978 -0.6686
 9218TIP3   OH249144   2.954   3.239  15.673 -0.0480 -0.2234  0.2849
 9218TIP3    H149145   2.899   3.220  15.750  0.2372  1.7319  0.9962
 9218TIP3    H249146   2.918   3.320  15.638  1.5074  0.3264 -0.0681
 9219TIP3   OH249147   2.165   6.573  13.670 -0.3763  0.3664  0.5523
 9219TIP3    H149148   2.115   6.645  13.709 -1.4943  1.3647 -2.5546
 9219TIP3    H249149   2.104   6.532  13.609  1.5150 -0.6288 -0.7286
 9220TIP3   OH249150   4.493   4.814  15.647 -0.4799 -0.2621 -0.5402
 9220TIP3    H149151   4.423   4.867  15.608  0.4424  0.1103 -1.7274
 9220TIP3    H249152   4.456   4.781  15.729 -2.0890 -0.1673 -1.2146
 9221TIP3   OH249153   3.214   0.314  13.701  0.5996 -0.0021  0.1082
 9221TIP3    H149154   3.231   0.401  13.665 -0.6617  0.2901  0.1883
 9221TIP3    H249155   3.245   0.319  13.792  1.0869  0.1653 -0.0645
 9222TIP3   OH249156   6.335   6.279  14.388 -0.3097  0.0746  0.1008
 9222TIP3    H149157   6.357   6.241  14.473 -1.0400  0.4086  0.4412
 9222TIP3    H249158   6.298   6.207  14.337 -1.1185  0.1854  0.5311
 9223TIP3   OH249159   5.572   1.105   5.810 -0.3333 -0.0296 -0.1047
 9223TIP3    H149160   5.559   1.038   5.877 -3.3294 -0.0674 -0.6743
 9223TIP3    H249161   5.514   1.080   5.739 -2.2575  3.6574  0.0587
 9224TIP3   OH249162   3.120   4.264  12.182 -0.2376  0.2856 -0.0974
 9224TIP3    H149163   3.093   4.346  12.222  0.0567  0.1050  0.4655
 9224TIP3    H249164   3.158   4.289  12.098  1.5935  0.8880  0.8888
 9225TIP3   OH249165   4.457   6.180   6.385  0.0227  0.2905 -0.3337
 9225TIP3    H149166   4.443   6.118   6.313  0.1077  1.1840 -1.1212
 9225TIP3    H249167   4.494   6.126   6.456 -2.8191 -1.1894  0.1007
 9226TIP3   OH249168   5.842   6.344   1.788 -0.6047  0.7163 -0.7430
 9226TIP3    H149169   5.903   6.418   1.793  0.1195 -0.0046  2.2108
 9226TIP3    H249170   5.898   6.268   1.772 -0.6311  0.0085  2.2767
 9227TIP3   OH249171   6.491   0.546   2.189 -0.4497  0.4942  0.5207
 9227TIP3    H149172   6.473   0.452   2.188 -2.1051  0.7872 -1.3122
 9227TIP3    H249173   6.435   0.581   2.257  0.2948  0.1348  1.3221
 9228TIP3   OH249174   3.713   0.319   3.326 -0.5098  0.2365  0.2359
 9228TIP3    H149175   3.666   0.402   3.321 -0.9544 -0.0025  0.4965
 9228TIP3    H249176   3.653   0.259   3.369  0.3337  0.1513  1.3163
 9229TIP3   OH249177   5.268   4.243  15.750  0.6713  0.3928 -0.0889
 9229TIP3    H149178   5.295   4.161  15.708 -0.5866 -0.6162  1.0395
 9229TIP3    H249179   5.195   4.273  15.697 -0.3700 -0.4394  0.8580
 9230TIP3   OH249180   2.490   2.072   3.193 -0.0423  0.5414  0.4798
 9230TIP3    H149181   2.471   2.029   3.110 -0.6817 -1.8395  1.7925
 9230TIP3    H249182   2.410   2.120   3.214 -0.5328 -0.2717  0.5200
 9231TIP3   OH249183   2.147   6.282  16.820 -0.0418 -0.4609  0.5627
 9231TIP3    H149184   2.235   6.293  16.784  0.6961 -2.1814  1.7847
 9231TIP3    H249185   2.101   6.362  16.796  1.7231  0.2627 -0.4712
 9232TIP3   OH249186   5.171   1.178   4.514  0.2619  0.1359 -0.1075
 9232TIP3    H149187   5.227   1.223   4.450 -0.1001  1.6121  0.5809
 9232TIP3    H249188   5.095   1.235   4.523 -1.5011 -1.9591 -1.1868
 9233TIP3   OH249189   6.289   2.667   1.599 -0.0821 -0.3019  0.0504
 9233TIP3    H149190   6.201   2.701   1.618  0.5092  0.6799  1.0495
 9233TIP3    H249191   6.286   2.576   1.630 -0.6592 -0.1929  0.3290
 9234TIP3   OH249192   1.838   3.052   5.770  0.6020 -0.4457 -0.1090
 9234TIP3    H149193   1.817   3.118   5.703  2.4729 -1.2428 -1.5248
 9234TIP3    H249194   1.777   2.981   5.754 -1.0338  0.6865  1.0428
 9235TIP3   OH249195   4.261   6.069  12.585  0.4762  0.7239 -0.0957
 9235TIP3    H149196   4.354   6.085  12.572  0.6489 -0.5058 -0.4314
 9235TIP3    H249197   4.218   6.144  12.544  1.2416  0.1034 -2.0939
 9236TIP3   OH249198   3.962   0.539   0.634  0.7814  0.0447  0.8673
 9236TIP3    H149199   3.970   0.444   0.633 -0.9399 -0.1733  3.0030
 9236TIP3    H249200   4.015   0.566   0.710  1.7207  0.8606 -0.0594
 9237TIP3   OH249201   4.719   4.313   0.455 -0.7080 -0.3833  0.0026
 9237TIP3    H149202   4.811   4.296   0.432 -0.5156 -0.0791  0.5474
 9237TIP3    H249203   4.722   4.392   0.508 -1.5597  1.1366 -2.1541
 9238TIP3   OH249204   6.209   3.505  11.350  0.0007  0.3972 -0.2311
 9238TIP3    H149205   6.188   3.579  11.292 -0.2629  0.3762 -0.1592
 9238TIP3    H249206   6.263   3.448  11.295  2.8533  2.1228  0.6365
 9239TIP3   OH249207   5.210   4.850   5.655  1.1357  0.0068  0.3618
 9239TIP3    H149208   5.212   4.801   5.573 -2.8199 -1.9434  1.3139
 9239TIP3    H249209   5.151   4.924   5.638  0.0423 -0.5835  1.4889
 9240TIP3   OH249210   4.907   1.080  13.733  0.0508  0.0082  0.1144
 9240TIP3    H149211   4.977   1.024  13.766  0.5625  0.8235  0.4412
 9240TIP3    H249212   4.897   1.148  13.800  0.4665  1.1506 -0.9501
 9241TIP3   OH249213   4.858   6.501  14.704  0.1176  0.5511 -0.3544
 9241TIP3    H149214   4.769   6.486  14.674  0.5377  0.8297 -1.7607
 9241TIP3    H249215   4.858   6.592  14.734 -0.1827  0.4062  0.0964
 9242TIP3   OH249216   6.183   1.684   0.649  0.2263 -0.1780 -0.4700
 9242TIP3    H149217   6.278   1.688   0.640  0.3579 -0.1427  0.7538
 9242TIP3    H249218   6.150   1.746   0.584  1.1507  1.3328  0.4522
 9243TIP3   OH249219   3.909   2.819  15.087 -0.2396 -0.0870  0.6618
 9243TIP3    H149220   3.882   2.885  15.024  0.5188  2.1467  2.6124
 9243TIP3    H249221   3.831   2.764  15.099 -0.8677  0.4263 -0.9998
 9244TIP3   OH249222   3.914   6.607   0.427 -0.0608  0.5664 -0.3958
 9244TIP3    H149223   3.906   6.699   0.453 -0.6398 -0.0466  1.7331
 9244TIP3    H249224   3.893   6.558   0.507  0.3234 -1.4155 -1.4798
 9245TIP3   OH249225   6.175   4.558  14.537 -0.3230  0.1129 -0.2451
 9245TIP3    H149226   6.165   4.499  14.612 -3.4065  1.9918  0.9334
 9245TIP3    H249227   6.265   4.545  14.507  0.1132 -2.6484  2.0876
 9246TIP3   OH249228   5.314   0.147  16.390 -0.4109 -0.1482 -1.1406
 9246TIP3    H149229   5.405   0.173  16.402  0.5707 -3.1930 -1.4278
 9246TIP3    H249230   5.273   0.220  16.344  1.2173  2.3407  1.2354
 9247TIP3   OH249231   2.360   6.791   5.373 -0.5454 -0.1846 -0.2721
 9247TIP3    H149232   2.405   6.715   5.335 -0.5956 -0.7020  0.6986
 9247TIP3    H249233   2.378   6.786   5.466 -1.4376  0.4096 -0.0595
 9248TIP3   OH249234   6.244   5.254   0.452 -0.2675 -0.7859 -0.2279
 9248TIP3    H149235   6.207   5.326   0.502 -0.6084 -0.4874 -0.9022
 9248TIP3    H249236   6.212   5.267   0.363 -0.1329 -1.6301 -0.4083
 9249TIP3   OH249237   5.650   0.331  12.880 -0.2365  0.1218  0.1397
 9249TIP3    H149238   5.698   0.366  12.805 -1.4908  1.2189 -0.1682
 9249TIP3    H249239   5.586   0.271  12.842  0.4387 -0.8544  0.5036
 9250TIP3   OH249240   6.014   1.175   1.590  0.8270 -0.2895  0.1251
 9250TIP3    H149241   5.957   1.098   1.583 -1.0421  0.9136  1.5165
 9250TIP3    H249242   6.034   1.197   1.499  0.6057 -1.8497 -0.3275
 9251TIP3   OH249243   4.991   5.996  15.631 -0.3587 -0.0959  0.6189
 9251TIP3    H149244   5.039   6.009  15.713 -1.5330 -0.9693  1.4806
 9251TIP3    H249245   4.990   5.901  15.619 -1.7872 -0.0991  0.5975
 9252TIP3   OH249246   2.854   3.367  16.402 -0.1720  0.2488  0.3802
 9252TIP3    H149247   2.883   3.288  16.448 -0.7825 -0.6821 -0.8078
 9252TIP3    H249248   2.822   3.425  16.471  1.1258 -0.1701  1.3552
 9253TIP3   OH249249   1.923   2.070   3.444  0.0851  0.2754 -0.5742
 9253TIP3    H149250   1.866   2.145   3.463 -1.2944 -1.0968  0.9089
 9253TIP3    H249251   1.890   2.035   3.361  0.0388  0.6599 -0.7204
 9254TIP3   OH249252   1.599   5.460  15.736  0.4546  0.1851  0.2483
 9254TIP3    H149253   1.674   5.480  15.792  0.6060 -0.4099  0.2669
 9254TIP3    H249254   1.602   5.365  15.726 -0.3947  0.1448  0.3835
 9255TIP3   OH249255   0.309   0.978  11.217  0.8048  0.4152 -0.1782
 9255TIP3    H149256   0.325   0.915  11.145 -0.4094  0.3421 -0.3875
 9255TIP3    H249257   0.376   1.045  11.204  2.4832 -1.0924  0.3628
 9256TIP3   OH249258   5.274   1.665  11.513 -0.6401 -0.0068  0.5070
 9256TIP3    H149259   5.182   1.684  11.531 -0.6110 -0.6583  1.3527
 9256TIP3    H249260   5.287   1.696  11.423 -1.1971  1.8131  1.0367
 9257TIP3   OH249261   0.570   1.874   4.076 -1.0043 -0.2664  0.4864
 9257TIP3    H149262   0.538   1.903   3.990 -1.0008  0.3441  0.6878
 9257TIP3    H249263   0.661   1.904   4.079 -1.1002 -0.0049  0.8314
 9258TIP3   OH249264   3.018   2.152   4.309 -0.2426 -0.4447  0.0260
 9258TIP3    H149265   2.948   2.086   4.312  1.3119 -2.0008  4.1077
 9258TIP3    H249266   2.984   2.225   4.360 -0.6752  0.7160 -1.8602
 9259TIP3   OH249267   5.868   4.421   2.665  0.2334 -0.2483 -0.0588
 9259TIP3    H149268   5.951   4.375   2.653  0.8513  1.2430 -1.5869
 9259TIP3    H249269   5.889   4.495   2.722 -0.0035  0.1985 -0.5403
 9260TIP3   OH249270   2.844   4.496  14.235 -0.5170 -0.0269  0.3206
 9260TIP3    H149271   2.923   4.493  14.289  0.8700 -0.0452 -1.6356
 9260TIP3    H249272   2.861   4.564  14.171 -1.1275 -1.5627 -1.5345
 9261TIP3   OH249273   4.443   0.560   5.889  0.1672  0.0036  0.2229
 9261TIP3    H149274   4.529   0.538   5.852 -0.0748  0.6101 -0.7138
 9261TIP3    H249275   4.438   0.655   5.882 -0.6968 -0.0527  0.0174
 9262TIP3   OH249276   2.211   3.233   1.638  0.6350 -0.2612  1.0250
 9262TIP3    H149277   2.281   3.256   1.700  1.9061  0.7058 -0.7505
 9262TIP3    H249278   2.243   3.153   1.595  0.7156  0.2602  0.1141
 9263TIP3   OH249279   1.690   1.568  13.325 -0.1294  0.3018  0.2372
 9263TIP3    H149280   1.779   1.602  13.316 -0.3616  0.6199 -0.9382
 9263TIP3    H249281   1.645   1.634  13.377  0.2676  0.2273  0.6846
 9264TIP3   OH249282   6.020   0.113  14.206 -0.4729  0.5212  0.2479
 9264TIP3    H149283   5.950   0.169  14.239  0.4759  1.9041 -0.0174
 9264TIP3    H249284   6.051   0.159  14.127  1.0758  0.2170  0.6612
 9265TIP3   OH249285   5.624   6.809  14.189  0.2194  0.2722  0.3415
 9265TIP3    H149286   5.648   6.846  14.274  3.2401  1.1264 -0.8234
 9265TIP3    H249287   5.624   6.714  14.204  0.0545  0.4355  1.4452
 9266TIP3   OH249288   2.007   5.455  10.945 -0.4168 -0.3398  0.8636
 9266TIP3    H149289   1.959   5.534  10.968 -0.7256 -0.7746  1.7190
 9266TIP3    H249290   1.949   5.383  10.971 -0.5736 -0.8458 -0.8481
 9267TIP3   OH249291   0.865   1.525   0.773 -0.0307 -0.4220 -0.0537
 9267TIP3    H149292   0.821   1.540   0.689 -0.1021  1.4884  0.2845
 9267TIP3    H249293   0.830   1.594   0.830  0.1530 -1.5903  1.4985
 9268TIP3   OH249294   3.838   0.316   4.510  0.0483 -0.4341  0.0642
 9268TIP3    H149295   3.748   0.296   4.537 -0.5429  0.5557 -1.1282
 9268TIP3    H249296   3.878   0.359   4.586 -1.3609  1.6622 -0.3489
 9269TIP3   OH249297   2.043   6.182  11.736 -0.3259  0.3462 -0.0139
 9269TIP3    H149298   2.093   6.182  11.654  1.1454 -0.7809  0.8518
 9269TIP3    H249299   1.980   6.112  11.725  1.0943 -1.0534  0.4990
 9270TIP3   OH249300   5.638   4.059   2.235 -0.0046  0.0225 -0.5377
 9270TIP3    H149301   5.661   4.152   2.228 -2.5444  0.6952 -0.3283
 9270TIP3    H249302   5.560   4.049   2.180  0.0569 -1.9204 -0.3000
 9271TIP3   OH249303   1.269   5.826   1.441 -0.0313 -0.7062  0.7480
 9271TIP3    H149304   1.269   5.833   1.345  0.4474  0.5891  0.8220
 9271TIP3    H249305   1.301   5.911   1.470  1.4025 -1.6771  2.0334
 9272TIP3   OH249306   4.660   0.947  13.673 -0.7175  0.1201  0.2527
 9272TIP3    H149307   4.649   0.872  13.732 -1.9529  1.1535  1.3826
 9272TIP3    H249308   4.747   0.980  13.692 -1.4132  0.9492  2.1470
 9273TIP3   OH249309   6.575   5.948  14.034 -0.3396 -0.2376 -0.0627
 9273TIP3    H149310   6.593   6.034  14.073 -0.3298 -0.7968  1.2061
 9273TIP3    H249311   6.601   5.885  14.102  0.4431 -1.2755 -1.2977
 9274TIP3   OH249312   3.126   0.870   1.823 -0.4694  0.0344  0.5977
 9274TIP3    H149313   3.094   0.803   1.763  0.6810  0.7528 -0.8316
 9274TIP3    H249314   3.164   0.821   1.896 -0.9305 -0.8538  0.2448
 9275TIP3   OH249315   0.487   6.614  16.033 -0.2678 -0.2456  0.4705
 9275TIP3    H149316   0.464   6.602  15.941  1.5517 -0.5119  0.0294
 9275TIP3    H249317   0.450   6.700  16.056 -0.1981  0.1004 -0.6741
 9276TIP3   OH249318   5.260   2.028  12.570 -0.1463 -0.0994 -0.0390
 9276TIP3    H149319   5.241   2.022  12.477 -1.1040  4.2923 -0.2166
 9276TIP3    H249320   5.339   1.974  12.582  0.6890  0.2502 -3.5738
 9277TIP3   OH249321   6.604   5.811   0.080 -0.0806  0.1279 -0.1335
 9277TIP3    H149322   6.525   5.795   0.130 -0.1803  1.3712  0.1347
 9277TIP3    H249323   6.642   5.889   0.120  0.8451  0.0170 -0.7816
 9278TIP3   OH249324   4.700   6.444   5.087  0.1884 -0.1081  0.7759
 9278TIP3    H149325   4.783   6.492   5.090  0.0404  0.3771 -1.7910
 9278TIP3    H249326   4.711   6.381   5.016 -0.8098 -1.6484  1.9735
 9279TIP3   OH249327   3.488   6.224   5.012 -0.2580  0.2996 -0.1948
 9279TIP3    H149328   3.554   6.284   5.049 -1.2380  1.2000  0.1276
 9279TIP3    H249329   3.481   6.251   4.921 -0.8464  0.8086  0.0017
 9280TIP3   OH249330   0.484   2.000   3.574  0.0427 -0.0501  1.0582
 9280TIP3    H149331   0.500   1.906   3.570  0.5575  0.0272  1.1608
 9280TIP3    H249332   0.443   2.021   3.490  0.4648 -0.2759  0.7911
 9281TIP3   OH249333   5.400   0.012  17.010  0.5818  0.6903 -0.2311
 9281TIP3    H149334   5.424  -0.077  16.984  0.2850  0.6562 -0.3892
 9281TIP3    H249335   5.462   0.034  17.080  1.0457  0.5870 -0.6094
 9282TIP3   OH249336   3.561   3.841  15.402  0.0512  0.3000  0.2922
 9282TIP3    H149337   3.608   3.858  15.321 -1.7772  0.8934 -0.6815
 9282TIP3    H249338   3.616   3.877  15.471  1.2142  0.5694 -0.7726
 9283TIP3   OH249339   3.786   5.241   0.277 -0.2595  0.1933  0.2608
 9283TIP3    H149340   3.854   5.302   0.305  0.1731 -0.1157 -0.1004
 9283TIP3    H249341   3.821   5.202   0.197 -1.1574  0.5267 -0.3040
 9284TIP3   OH249342   1.972   6.307   5.312 -0.1755 -0.2620 -0.3951
 9284TIP3    H149343   1.912   6.355   5.370 -0.1261 -1.5771  0.7711
 9284TIP3    H249344   2.052   6.297   5.363 -0.1687 -1.5475 -0.6483
 9285TIP3   OH249345   0.104   5.154  14.676  0.4069 -0.0701 -0.3717
 9285TIP3    H149346   0.053   5.073  14.671 -0.3484  0.4970 -2.3928
 9285TIP3    H249347   0.187   5.128  14.716 -0.5693 -1.4591  0.7950
 9286TIP3   OH249348   0.509   4.107   0.752 -0.1274 -0.3731  0.2555
 9286TIP3    H149349   0.518   4.141   0.664 -0.5490  0.7888  0.6505
 9286TIP3    H249350   0.470   4.179   0.802 -0.9185 -1.3915  1.1310
 9287TIP3   OH249351   3.225   6.045   1.474 -0.4541  0.5407 -0.1397
 9287TIP3    H149352   3.300   6.103   1.462 -0.7181  0.9732  0.2370
 9287TIP3    H249353   3.244   5.968   1.421  1.5034 -0.5383  2.0939
 9288TIP3   OH249354   3.693   3.712   2.667  0.0327 -0.0773  0.3473
 9288TIP3    H149355   3.751   3.698   2.592  1.0152 -1.1371  1.2916
 9288TIP3    H249356   3.690   3.807   2.676  0.9254  0.0244 -0.2605
 9289TIP3   OH249357   5.632   3.425   3.605  0.4122  0.0806  0.0840
 9289TIP3    H149358   5.712   3.394   3.648  0.4720  0.6005  0.3571
 9289TIP3    H249359   5.615   3.361   3.536 -0.1188 -1.2052  1.3823
 9290TIP3   OH249360   6.312   2.126   5.794  0.2808 -0.0260 -0.0025
 9290TIP3    H149361   6.288   2.219   5.805 -1.2700 -0.0873 -2.3338
 9290TIP3    H249362   6.407   2.126   5.790  0.2711  1.5911 -0.7797
 9291TIP3   OH249363   2.785   0.168   5.647  0.0752 -0.1110 -0.6770
 9291TIP3    H149364   2.880   0.158   5.650  0.0416 -0.3492 -0.2938
 9291TIP3    H249365   2.752   0.078   5.646 -0.1726 -0.0435  0.4074
 9292TIP3   OH249366   4.804   2.524   0.888  0.0823  0.5669 -0.6272
 9292TIP3    H149367   4.798   2.429   0.902  0.0033  0.8539  1.5182
 9292TIP3    H249368   4.723   2.547   0.843  0.9984 -0.6662 -2.9502
 9293TIP3   OH249369   5.489   5.799   0.659 -0.0453  0.2120 -0.1053
 9293TIP3    H149370   5.465   5.807   0.751 -0.0451  1.5818 -0.2178
 9293TIP3    H249371   5.421   5.743   0.621 -2.0097  2.4676 -0.0079
 9294TIP3   OH249372   0.756   0.757   4.907  0.2723 -0.1659 -0.3383
 9294TIP3    H149373   0.699   0.802   4.969 -1.1274 -3.5073  0.9432
 9294TIP3    H249374   0.725   0.785   4.821  0.8270  2.8589  0.4030
 9295TIP3   OH249375   3.359   1.519  12.297  0.2038  0.2142 -0.2304
 9295TIP3    H149376   3.395   1.496  12.383 -0.2050  0.5524  0.0333
 9295TIP3    H249377   3.349   1.614  12.300  0.3242  0.2417 -0.7067
 9296TIP3   OH249378   0.307   0.238  14.388  0.5484 -0.1059  0.7197
 9296TIP3    H149379   0.271   0.202  14.307 -0.0312 -0.5135  1.1457
 9296TIP3    H249380   0.230   0.250  14.444  0.9393  0.2341  1.1835
 9297TIP3   OH249381   5.137   3.448   6.091 -0.1059 -0.2090 -0.3544
 9297TIP3    H149382   5.138   3.463   5.996 -0.2380  0.5260 -0.2446
 9297TIP3    H249383   5.059   3.495   6.121  1.6415  2.1837  0.5402
 9298TIP3   OH249384   1.169   4.480   5.515 -0.1848  0.2325 -0.7348
 9298TIP3    H149385   1.099   4.424   5.549  0.5530  0.8435  1.9634
 9298TIP3    H249386   1.231   4.420   5.474 -0.9441 -0.5902 -0.6998
 9299TIP3   OH249387   5.000   3.718  11.432  0.2641 -0.2787 -0.2693
 9299TIP3    H149388   5.065   3.753  11.371 -1.3433  0.9763 -1.3186
 9299TIP3    H249389   5.049   3.704  11.513  1.6308  1.5952 -0.7164
 9300TIP3   OH249390   2.974   6.302  16.045 -0.6483 -0.4289  0.5156
 9300TIP3    H149391   2.956   6.390  16.012  0.8296 -0.0283  0.7192
 9300TIP3    H249392   2.993   6.251  15.966 -0.7881 -0.3785  0.4506
 9301TIP3   OH249393   6.336   4.758  13.982 -0.2464 -0.4172  0.3593
 9301TIP3    H149394   6.294   4.769  14.067  0.8716  0.1336  0.8403
 9301TIP3    H249395   6.409   4.698  13.998 -0.0888 -0.3873 -0.2290
 9302TIP3   OH249396   3.116   2.245  13.134 -0.4720 -0.0545  0.1794
 9302TIP3    H149397   3.115   2.183  13.207 -0.7280 -1.4746 -0.9885
 9302TIP3    H249398   3.094   2.329  13.173 -1.1526 -0.8941  1.6478
 9303TIP3   OH249399   1.585   0.896   6.364  0.0449 -0.1987 -0.1674
 9303TIP3    H149400   1.594   0.907   6.269  2.1623 -2.8299 -0.3155
 9303TIP3    H249401   1.497   0.860   6.376  0.7464 -2.3602 -1.3745
 9304TIP3   OH249402   4.623   5.815   5.547 -0.3671 -0.3330 -0.8573
 9304TIP3    H149403   4.550   5.834   5.489  0.5464 -0.8740 -2.2081
 9304TIP3    H249404   4.699   5.808   5.489  0.9642  1.2979  0.6208
 9305TIP3   OH249405   6.086   5.175   5.009  0.1480  0.8320  0.7839
 9305TIP3    H149406   6.132   5.188   4.926  0.1532  1.7053  0.9236
 9305TIP3    H249407   5.994   5.183   4.987  0.0550 -0.9310  0.5010
 9306TIP3   OH249408   1.669   3.209   0.361 -0.3069 -0.4520 -0.8265
 9306TIP3    H149409   1.612   3.146   0.406 -0.8001 -0.2261 -1.1329
 9306TIP3    H249410   1.634   3.214   0.272 -0.3982  0.4081 -0.7464
 9307TIP3   OH249411   0.904   6.498   0.094 -0.0873 -0.1596  0.1296
 9307TIP3    H149412   0.875   6.418   0.050  0.8927  0.0809 -1.0102
 9307TIP3    H249413   0.951   6.467   0.171  0.5542 -0.7031 -0.4712
 9308TIP3   OH249414   3.619   2.207  16.809  0.2649 -0.0341 -0.2765
 9308TIP3    H149415   3.573   2.272  16.756 -0.5701 -0.8156 -0.5368
 9308TIP3    H249416   3.562   2.194  16.885  1.1340  0.5976  0.4750
 9309TIP3   OH249417   4.492   5.603  13.762  0.1140  0.3204 -0.0157
 9309TIP3    H149418   4.498   5.682  13.816  0.5952 -0.3403  0.9174
 9309TIP3    H249419   4.435   5.544  13.813 -2.7872  1.1987 -2.1313
 9310TIP3   OH249420   1.734   0.262   2.708 -0.7933 -0.5933  0.3484
 9310TIP3    H149421   1.728   0.180   2.658 -0.2435 -0.2374 -0.3076
 9310TIP3    H249422   1.751   0.234   2.798 -1.6235 -1.2354  0.3140
 9311TIP3   OH249423   2.236   3.389   3.328  0.2082 -0.3640 -0.3494
 9311TIP3    H149424   2.274   3.341   3.402 -1.2913  0.5166  1.0238
 9311TIP3    H249425   2.149   3.415   3.358  0.4866  2.0882 -1.5244
 9312TIP3   OH249426   1.960   1.291  14.047  0.7305  0.3865  0.5677
 9312TIP3    H149427   2.011   1.247  13.979  0.4026  0.2572  0.4035
 9312TIP3    H249428   1.970   1.385  14.028  0.7522  0.3552  0.4239
 9313TIP3   OH249429   5.333   1.329  13.688  0.2745 -0.2536 -0.9754
 9313TIP3    H149430   5.270   1.401  13.691 -0.6261 -1.1117  1.7940
 9313TIP3    H249431   5.418   1.372  13.687 -0.2569  0.8811  0.5872
 9314TIP3   OH249432   1.548   1.103  12.092  0.4228  0.2344  0.0272
 9314TIP3    H149433   1.510   1.030  12.043 -0.3555  1.5750 -1.4221
 9314TIP3    H249434   1.496   1.107  12.173  0.0677 -0.4392 -0.1629
 9315TIP3   OH249435   4.746   0.186   4.126  0.0927 -0.0206  0.6839
 9315TIP3    H149436   4.731   0.131   4.049  2.0661 -1.0402  0.9918
 9315TIP3    H249437   4.659   0.211   4.155 -0.8395 -2.6436  0.2605
 9316TIP3   OH249438   6.774   3.706  12.808 -0.1721 -0.3274 -0.0505
 9316TIP3    H149439   6.735   3.752  12.883 -0.6129 -0.5384 -0.1442
 9316TIP3    H249440   6.858   3.749  12.794 -0.8152  0.8306 -0.4826
 9317TIP3   OH249441   2.153   5.961   4.108  0.4095 -0.2740  0.3067
 9317TIP3    H149442   2.188   5.976   4.196  0.2340  1.6751  0.0742
 9317TIP3    H249443   2.230   5.943   4.054  0.6898  0.1467  0.5585
 9318TIP3   OH249444   4.241   1.326  13.533  0.5587 -0.3381  0.6839
 9318TIP3    H149445   4.224   1.317  13.439  1.8591 -1.5124  0.5437
 9318TIP3    H249446   4.187   1.400  13.560 -2.3707 -2.0065 -0.3307
 9319TIP3   OH249447   3.943   0.275   0.575 -0.1035  0.0692 -0.5513
 9319TIP3    H149448   3.934   0.256   0.482  1.6926 -0.3344 -0.6563
 9319TIP3    H249449   3.947   0.189   0.616  1.6745  0.2232 -0.3732
 9320TIP3   OH249450   4.622   6.226  14.901  0.5017 -0.7477 -0.5128
 9320TIP3    H149451   4.599   6.250  14.812  0.3532 -0.6576 -0.4508
 9320TIP3    H249452   4.633   6.310  14.947  2.9496 -0.7512 -1.0340
 9321TIP3   OH249453   0.387   5.444   2.861 -0.5790 -0.3028 -0.2377
 9321TIP3    H149454   0.292   5.448   2.872 -0.5867  0.2637 -0.4714
 9321TIP3    H249455   0.416   5.381   2.926 -1.0086  0.3061  0.5574
 9322TIP3   OH249456   4.382   5.172   1.104 -1.0922  0.4371 -0.3132
 9322TIP3    H149457   4.477   5.177   1.104 -0.9468 -1.5657 -0.6515
 9322TIP3    H249458   4.354   5.222   1.181  0.2653  0.5605  0.1020
 9323TIP3   OH249459   4.242   3.172  15.498 -0.3408 -0.1928  0.1577
 9323TIP3    H149460   4.238   3.216  15.413 -0.3448 -0.3847  0.0582
 9323TIP3    H249461   4.335   3.171  15.520 -0.1617 -1.5868 -0.6089
 9324TIP3   OH249462   2.317   5.170   2.427 -0.3734  0.8441 -0.3775
 9324TIP3    H149463   2.293   5.224   2.503  0.9842  1.6962 -0.5299
 9324TIP3    H249464   2.326   5.082   2.462 -3.2742  0.5798 -0.2464
 9325TIP3   OH249465   1.229   1.553   3.361 -0.5141  0.5778 -0.0101
 9325TIP3    H149466   1.301   1.602   3.401  0.8032 -0.8921 -0.5218
 9325TIP3    H249467   1.183   1.513   3.435  0.7609 -0.5710  0.1806
 9326TIP3   OH249468   2.792   5.720  11.596 -0.4114 -0.1295 -0.6384
 9326TIP3    H149469   2.779   5.645  11.654 -0.3575  0.4648  0.1435
 9326TIP3    H249470   2.723   5.711  11.529 -1.9585  0.4674  0.8443
 9327TIP3   OH249471   5.466   3.790  13.983 -0.2022 -0.5061 -0.0279
 9327TIP3    H149472   5.484   3.696  13.974  2.4255 -0.1031  0.6147
 9327TIP3    H249473   5.392   3.794  14.044 -0.3900 -2.1548 -0.1184
 9328TIP3   OH249474   1.339   3.528  12.780  0.0532  0.5071 -0.1758
 9328TIP3    H149475   1.352   3.434  12.766 -1.6032  0.4088 -1.2162
 9328TIP3    H249476   1.261   3.533  12.835  0.4706  1.2663  0.3549
 9329TIP3   OH249477   0.136   4.198  16.404 -0.4135  0.0749 -0.1417
 9329TIP3    H149478   0.228   4.175  16.417 -0.3197  1.0043  0.8771
 9329TIP3    H249479   0.093   4.167  16.484 -0.7119  1.1294  0.1053
 9330TIP3   OH249480   4.493   5.940  11.714 -0.9380 -0.2351 -0.1328
 9330TIP3    H149481   4.565   5.926  11.652 -0.0561  1.2155  0.5407
 9330TIP3    H249482   4.418   5.897  11.673  0.5095 -2.5703 -0.4196
 9331TIP3   OH249483   0.700   4.319  14.964 -0.4397  0.1255 -0.7213
 9331TIP3    H149484   0.613   4.282  14.978  0.0336 -0.8175 -0.1837
 9331TIP3    H249485   0.755   4.277  15.031  0.4489  0.6039 -1.1397
 9332TIP3   OH249486   4.735   1.237  13.245  0.4332  0.4479 -0.6973
 9332TIP3    H149487   4.712   1.166  13.305 -2.2498  1.2817 -0.6528
 9332TIP3    H249488   4.776   1.304  13.300  0.3744  0.1171 -0.2569
 9333TIP3   OH249489   3.432   3.962   1.882  0.2234 -0.5423 -0.0738
 9333TIP3    H149490   3.456   3.890   1.940 -0.7277 -1.2427 -0.5514
 9333TIP3    H249491   3.458   4.041   1.930  0.4467 -1.1634  0.8291
 9334TIP3   OH249492   2.104   6.538  12.631 -0.2159 -0.1370  0.6716
 9334TIP3    H149493   2.046   6.599  12.676  0.2284  2.6413 -2.3287
 9334TIP3    H249494   2.046   6.484  12.579 -0.4095 -0.4027  1.1588
 9335TIP3   OH249495   3.246   4.746   4.770 -0.0585  0.4746  0.4310
 9335TIP3    H149496   3.306   4.753   4.696  0.4056 -0.9950  0.6467
 9335TIP3    H249497   3.179   4.811   4.753  0.5180  0.7476 -0.8410
 9336TIP3   OH249498   5.683   3.129   4.608 -0.7375 -0.2428 -0.1232
 9336TIP3    H149499   5.659   3.100   4.696 -1.8337  2.5855  0.5717
 9336TIP3    H249500   5.777   3.147   4.613 -1.1895  1.9673  1.1293
 9337TIP3   OH249501   4.694   2.231  15.574  0.3298  0.1605  0.5980
 9337TIP3    H149502   4.691   2.271  15.661  0.8123 -0.9666  1.1441
 9337TIP3    H249503   4.735   2.145  15.588  0.3035 -0.0825 -0.7197
 9338TIP3   OH249504   4.622   1.690   5.497  0.3347  0.0408  0.4117
 9338TIP3    H149505   4.710   1.728   5.503  0.2814  0.5767 -1.7069
 9338TIP3    H249506   4.636   1.599   5.472  0.2772  0.7850 -2.5836
 9339TIP3   OH249507   4.824   4.372   6.715 -0.0207  0.0781  0.0938
 9339TIP3    H149508   4.855   4.301   6.658 -1.7217 -0.8354  0.2524
 9339TIP3    H249509   4.747   4.406   6.670  0.5357  1.5469  0.2439
 9340TIP3   OH249510   3.858   5.605   5.539  0.0280 -0.0526 -0.3671
 9340TIP3    H149511   3.928   5.542   5.521  0.5561  1.0854 -2.5442
 9340TIP3    H249512   3.793   5.556   5.588  1.5828 -1.5915  0.1967
 9341TIP3   OH249513   6.695   3.543  13.805  0.3735  0.5851  0.2183
 9341TIP3    H149514   6.727   3.454  13.817  0.6330  0.9635  2.6453
 9341TIP3    H249515   6.774   3.597  13.801  0.1614  1.1064  2.5415
 9342TIP3   OH249516   0.274   4.935   2.121  0.0029 -0.2693  0.2340
 9342TIP3    H149517   0.292   5.027   2.139 -0.3529 -0.0331 -0.5999
 9342TIP3    H249518   0.311   4.920   2.034 -0.2579 -0.8267  0.2192
 9343TIP3   OH249519   6.577   5.970   5.988 -0.7745 -0.4760  0.1514
 9343TIP3    H149520   6.660   6.011   6.011 -1.3567  0.9238 -0.1759
 9343TIP3    H249521   6.534   6.034   5.931 -2.7563 -0.4979  1.5936
 9344TIP3   OH249522   4.244   0.597  17.105  0.2128  0.0121 -0.4537
 9344TIP3    H149523   4.215   0.563  17.021 -1.2217 -0.0517  0.0563
 9344TIP3    H249524   4.178   0.567  17.167  0.6391  1.0410  0.5098
 9345TIP3   OH249525   6.379   4.345  17.065 -0.0963 -0.8486  0.7578
 9345TIP3    H149526   6.285   4.355  17.081 -0.3993 -2.1762 -0.1177
 9345TIP3    H249527   6.384   4.297  16.983  1.3566 -1.0204  0.9383
 9346TIP3   OH249528   6.049   3.678  11.201  0.4770 -0.6180  0.3502
 9346TIP3    H149529   6.066   3.709  11.112 -4.0085  1.6967  0.1515
 9346TIP3    H249530   6.070   3.753  11.257 -1.4577 -0.3225  0.7239
 9347TIP3   OH249531   2.051   5.386  11.740  0.1278  0.1300  0.3621
 9347TIP3    H149532   2.022   5.477  11.736  2.0851  0.7845  0.4093
 9347TIP3    H249533   2.142   5.388  11.710  0.7775 -1.5377  2.1001
 9348TIP3   OH249534   3.480   2.610  11.077 -0.2798 -0.2471  0.2002
 9348TIP3    H149535   3.448   2.534  11.029 -0.5221  0.8970 -1.4875
 9348TIP3    H249536   3.575   2.599  11.079 -0.0922  0.6704 -2.2789
 9349TIP3   OH249537   5.302   2.718  12.944  0.0790 -0.1720 -0.1531
 9349TIP3    H149538   5.273   2.638  12.899 -0.7699 -0.5318  1.0209
 9349TIP3    H249539   5.398   2.709  12.948  0.2560  0.3172 -2.7050
 9350TIP3   OH249540   5.950   2.642  14.099  0.7835 -0.1200 -0.1056
 9350TIP3    H149541   6.022   2.608  14.153  2.5146 -0.8493 -2.8092
 9350TIP3    H249542   5.983   2.638  14.010 -0.8884  3.9798 -0.9968
 9351TIP3   OH249543   4.204   3.674  17.231 -0.3782 -0.1189 -0.5810
 9351TIP3    H149544   4.237   3.600  17.180 -0.2978  0.9603 -2.1051
 9351TIP3    H249545   4.173   3.634  17.313 -2.7889 -2.2139 -2.4201
 9352TIP3   OH249546   4.168   3.080   3.409 -0.0785 -0.2621  0.6287
 9352TIP3    H149547   4.111   3.152   3.438  1.5574  2.2476 -2.0365
 9352TIP3    H249548   4.125   3.045   3.331  0.8964  0.2176 -0.1415
 9353TIP3   OH249549   5.588   4.844   3.058  0.1716 -0.0666  0.8768
 9353TIP3    H149550   5.532   4.907   3.012  1.8730  0.5046 -0.4541
 9353TIP3    H249551   5.562   4.852   3.150 -0.9264  1.2520  0.4737
 9354TIP3   OH249552   1.641   1.496  15.747  0.1538  0.2756  0.4993
 9354TIP3    H149553   1.606   1.521  15.833  1.3900 -0.1191  1.1285
 9354TIP3    H249554   1.732   1.473  15.764  0.1109 -0.8584 -0.7394
 9355TIP3   OH249555   5.224   4.161  13.870  0.2018 -0.2156 -0.0733
 9355TIP3    H149556   5.181   4.196  13.792 -3.8397  1.2554  2.6367
 9355TIP3    H249557   5.308   4.205  13.874  0.1606  0.2359 -3.1561
 9356TIP3   OH249558   1.522   0.539  10.535  0.2990 -0.1197  0.4376
 9356TIP3    H149559   1.518   0.592  10.455  1.8701 -1.4611 -0.5628
 9356TIP3    H249560   1.616   0.533  10.555 -0.0719  0.2495  2.4470
 9357TIP3   OH249561   2.208   4.127  16.138 -0.1557 -0.0446 -0.3090
 9357TIP3    H149562   2.177   4.192  16.200  0.5121  1.5607 -1.6136
 9357TIP3    H249563   2.233   4.052  16.191 -2.4429  0.1518  1.0833
 9358TIP3   OH249564   0.760   4.312   6.769  0.8326  0.1197 -0.3104
 9358TIP3    H149565   0.717   4.271   6.694  1.0466  2.4128 -1.7441
 9358TIP3    H249566   0.711   4.280   6.845 -0.2507 -1.1984 -1.5375
 9359TIP3   OH249567   0.046   6.682  16.483 -0.0404 -0.0022 -0.5763
 9359TIP3    H149568   0.037   6.594  16.448  0.3891 -0.4447  0.4236
 9359TIP3    H249569   0.067   6.670  16.575  1.7985  1.1179 -0.8302
 9360TIP3   OH249570   2.569   1.840   1.889 -0.1781  0.2359  0.4231
 9360TIP3    H149571   2.588   1.748   1.910 -0.8030 -0.0337 -0.1731
 9360TIP3    H249572   2.623   1.890   1.950 -0.8434 -0.5351  1.6797
 9361TIP3   OH249573   6.040   0.807  12.534 -0.0005  1.1280 -0.1307
 9361TIP3    H149574   6.023   0.776  12.623  1.0662  1.8962  0.3648
 9361TIP3    H249575   6.116   0.865  12.544  0.8328  0.3444 -1.7191
 9362TIP3   OH249576   0.217   0.784   3.934  0.8979 -0.3712 -0.0056
 9362TIP3    H149577   0.208   0.722   4.007  1.2342  1.3112  1.5014
 9362TIP3    H249578   0.261   0.860   3.972  1.3075  0.4441 -2.0330
 9363TIP3   OH249579   2.533   2.583   6.060 -0.5796  0.5016 -0.6528
 9363TIP3    H149580   2.441   2.558   6.068 -0.5944  0.8222  0.2103
 9363TIP3    H249581   2.537   2.673   6.090  0.5738 -0.5674  2.6864
 9364TIP3   OH249582   4.501   6.128   5.064  0.0253  0.0775  0.0407
 9364TIP3    H149583   4.596   6.113   5.064  0.2311  1.2075 -1.8798
 9364TIP3    H249584   4.489   6.200   5.126  0.4813  0.2864 -0.1113
 9365TIP3   OH249585   2.476   5.243  15.272 -0.1789 -0.6384  0.0296
 9365TIP3    H149586   2.559   5.261  15.315 -0.3771 -0.5881  0.3979
 9365TIP3    H249587   2.410   5.272  15.335 -0.4727  2.7504 -1.7755
 9366TIP3   OH249588   2.457   1.823  16.709 -0.3464 -0.6955 -0.3951
 9366TIP3    H149589   2.401   1.767  16.656  1.4937 -1.4663 -1.6100
 9366TIP3    H249590   2.502   1.764  16.769  1.4282 -0.5485 -1.5257
 9367TIP3   OH249591   3.416   4.828  13.937  0.2526  0.3058 -0.6496
 9367TIP3    H149592   3.511   4.816  13.927  0.1932 -1.2410  0.4811
 9367TIP3    H249593   3.379   4.741  13.920 -1.0107  0.9858 -1.4870
 9368TIP3   OH249594   0.910   3.276   5.330 -0.0340 -0.2518 -0.0757
 9368TIP3    H149595   0.973   3.321   5.273 -1.0857  1.8133  0.3208
 9368TIP3    H249596   0.941   3.186   5.334  0.9201 -0.1011 -2.6972
 9369TIP3   OH249597   6.688   3.100  14.849  0.5262  0.6288  0.7801
 9369TIP3    H149598   6.618   3.130  14.908 -0.5702 -0.0229 -0.1629
 9369TIP3    H249599   6.752   3.171  14.850 -1.7957  2.8550 -1.0461
 9370TIP3   OH249600   6.451   6.066   2.108  0.1505  0.1141 -0.1162
 9370TIP3    H149601   6.526   6.072   2.167 -1.1372 -0.2510  1.6336
 9370TIP3    H249602   6.425   6.156   2.092  1.1181  0.2469 -0.9306
 9371TIP3   OH249603   5.068   3.429  13.962  0.0574  0.0619 -0.2732
 9371TIP3    H149604   5.015   3.354  13.989 -1.0828  0.2093 -2.0178
 9371TIP3    H249605   5.129   3.443  14.034  0.7148 -2.9334 -0.2110
 9372TIP3   OH249606   6.114   5.621  15.987 -0.5095  0.2000  0.0100
 9372TIP3    H149607   6.144   5.551  16.044  1.4597  1.9477  1.1857
 9372TIP3    H249608   6.186   5.634  15.925 -2.0102 -0.6618 -1.9653
 9373TIP3   OH249609   0.546   5.765  15.846  0.2446 -0.0723  0.1009
 9373TIP3    H149610   0.471   5.792  15.897 -0.5324  0.1624 -1.1452
 9373TIP3    H249611   0.621   5.774  15.906 -0.9054 -1.8622  1.8618
 9374TIP3   OH249612   2.969   2.759  10.486 -0.5883  0.3101  0.5360
 9374TIP3    H149613   2.969   2.708  10.567  0.2752  1.6212  1.3823
 9374TIP3    H249614   2.926   2.702  10.422 -2.1606 -0.3643  2.1384
 9375TIP3   OH249615   2.779   3.010   3.910 -0.3782 -0.7636  0.1645
 9375TIP3    H149616   2.822   2.953   3.974 -1.4497 -2.7266 -0.8053
 9375TIP3    H249617   2.850   3.041   3.854  0.3480 -0.3827  1.2907
 9376TIP3   OH249618   1.518   6.644   5.640  0.4198 -0.5471  0.6054
 9376TIP3    H149619   1.551   6.732   5.656 -1.0880 -0.0263  0.8916
 9376TIP3    H249620   1.551   6.621   5.553 -0.8066  1.0907 -0.3224
 9377TIP3   OH249621   4.314   1.791  11.263  0.6302  0.3635  0.3834
 9377TIP3    H149622   4.324   1.711  11.211 -1.1408  1.4555 -1.7030
 9377TIP3    H249623   4.394   1.840  11.247  0.1043  0.6800 -1.3303
 9378TIP3   OH249624   6.045   0.549   1.019 -0.4385 -0.3524  0.4635
 9378TIP3    H149625   6.088   0.622   0.975  1.0690 -1.4403  0.1053
 9378TIP3    H249626   5.954   0.577   1.028 -0.1976  0.9689 -0.9804
 9379TIP3   OH249627   4.574   3.718  13.780  0.2482  0.4002 -0.7386
 9379TIP3    H149628   4.605   3.629  13.800  0.1356  0.6269  0.4899
 9379TIP3    H249629   4.479   3.709  13.775  0.4550 -0.3440 -4.7521
 9380TIP3   OH249630   3.862   5.079   2.026  0.3244  0.0031  0.0974
 9380TIP3    H149631   3.795   5.020   2.060  0.6073 -0.7989 -0.7282
 9380TIP3    H249632   3.840   5.090   1.933  1.3186 -0.2433 -0.1723
 9381TIP3   OH249633   4.923   3.486  16.044  0.1590 -0.1588 -0.2820
 9381TIP3    H149634   4.934   3.519  16.133  0.6738 -0.0189 -0.3937
 9381TIP3    H249635   4.829   3.491  16.028 -0.0057 -0.6891  0.4501
 9382TIP3   OH249636   3.300   6.232  17.200  0.4471 -0.3477  0.2416
 9382TIP3    H149637   3.271   6.252  17.289 -0.3268 -1.1687  0.1888
 9382TIP3    H249638   3.237   6.167  17.169  1.9715 -1.6938 -0.1148
 9383TIP3   OH249639   2.667   5.280   3.946  0.0852 -0.2296 -0.1995
 9383TIP3    H149640   2.603   5.329   3.999  0.9672  0.0896  0.5788
 9383TIP3    H249641   2.615   5.240   3.877 -1.5672 -3.1753  2.6340
 9384TIP3   OH249642   3.801   6.527   1.201 -0.0769 -0.1162  0.5671
 9384TIP3    H149643   3.743   6.453   1.216  0.3996 -0.1271  2.5341
 9384TIP3    H249644   3.743   6.603   1.193 -0.7174 -0.9348 -3.6345
 9385TIP3   OH249645   6.306   2.904   4.714 -0.1778  0.1519 -0.6641
 9385TIP3    H149646   6.353   2.840   4.767 -1.6549 -1.0776 -0.7822
 9385TIP3    H249647   6.255   2.954   4.777  0.7293  0.9985 -0.6022
 9386TIP3   OH249648   5.351   4.288  11.488  0.7101  0.1652  0.1600
 9386TIP3    H149649   5.283   4.349  11.461  0.2237  0.3286  1.7166
 9386TIP3    H249650   5.328   4.206  11.442  1.0638  0.9690 -1.4980
 9387TIP3   OH249651   1.213   4.724   1.794 -0.2138 -0.7032  0.0316
 9387TIP3    H149652   1.277   4.791   1.772 -1.4346  0.2877 -0.5364
 9387TIP3    H249653   1.266   4.646   1.811  1.2147  0.3868  0.7101
 9388TIP3   OH249654   3.849   0.499   1.161 -0.4048 -0.1167  0.0465
 9388TIP3    H149655   3.763   0.504   1.119 -0.7203 -0.8237  0.5976
 9388TIP3    H249656   3.893   0.581   1.137 -0.4239 -0.6752 -1.9984
 9389TIP3   OH249657   4.862   5.527  14.613 -0.6835 -0.4452 -0.3125
 9389TIP3    H149658   4.780   5.519  14.662 -1.0039 -1.2820 -0.9564
 9389TIP3    H249659   4.836   5.511  14.522  0.2149 -0.8539 -0.4997
 9390TIP3   OH249660   5.380   5.998  13.889 -0.1317 -0.0339 -0.0282
 9390TIP3    H149661   5.426   5.939  13.949 -0.6971 -0.7274 -0.2731
 9390TIP3    H249662   5.442   6.069  13.872  0.0337  0.1825  1.3974
 9391TIP3   OH249663   1.660   5.870   0.927 -0.8924 -0.3211  0.2320
 9391TIP3    H149664   1.639   5.877   1.020  1.9267 -1.6828  1.0212
 9391TIP3    H249665   1.701   5.784   0.918  3.1182  1.6127 -1.3456
 9392TIP3   OH249666   2.329   1.528  13.153  0.3849  0.2744 -0.3916
 9392TIP3    H149667   2.402   1.489  13.104 -0.2745 -0.6997 -0.6235
 9392TIP3    H249668   2.255   1.522  13.093  0.0980  1.1958 -0.1291
 9393TIP3   OH249669   2.374   0.167   5.149  0.7278  0.1391  0.0131
 9393TIP3    H149670   2.354   0.091   5.203 -1.7000  0.4363 -0.4012
 9393TIP3    H249671   2.461   0.150   5.115  0.2256 -2.4859 -0.0699
 9394TIP3   OH249672   3.984   1.818  12.562 -0.2916 -0.1434  0.1271
 9394TIP3    H149673   3.927   1.790  12.634  0.4824  1.6873  1.4856
 9394TIP3    H249674   4.072   1.814  12.599  0.2685 -0.8243 -1.2698
 9395TIP3   OH249675   4.283   0.088   0.444 -0.5045  0.5879 -0.3950
 9395TIP3    H149676   4.337   0.067   0.367 -1.7119 -2.9074 -0.3911
 9395TIP3    H249677   4.193   0.088   0.410 -0.9925 -0.2789  0.8599
 9396TIP3   OH249678   1.557   4.964  13.738 -0.2617  0.1097  0.1803
 9396TIP3    H149679   1.520   4.910  13.808  1.2339  0.3129  1.1519
 9396TIP3    H249680   1.491   5.031  13.723 -1.7290 -1.4241 -0.3959
 9397TIP3   OH249681   4.718   6.618  11.863  0.3489 -0.0834  0.2085
 9397TIP3    H149682   4.795   6.561  11.870  1.8684  1.8159 -0.4678
 9397TIP3    H249683   4.741   6.696  11.913  0.1694  1.8367 -2.5285
 9398TIP3   OH249684   3.395   2.435  10.876 -0.2214  0.0570 -0.9825
 9398TIP3    H149685   3.367   2.346  10.856 -1.5716  0.1916  0.1886
 9398TIP3    H249686   3.326   2.491  10.841  0.1889  0.5882 -0.9512
 9399TIP3   OH249687   5.662   4.802   1.879 -0.8215  0.3165 -0.0401
 9399TIP3    H149688   5.694   4.867   1.816 -0.9970 -0.6424 -1.1284
 9399TIP3    H249689   5.709   4.722   1.857  0.3056  0.3610  2.0867
 9400TIP3   OH249690   4.002   1.670   6.672 -0.1329  0.0728  0.7207
 9400TIP3    H149691   4.018   1.639   6.761  1.1989 -0.8975  0.1753
 9400TIP3    H249692   3.987   1.764   6.681  3.6003  0.6506  1.6070
 9401TIP3   OH249693   5.752   2.290   0.494 -0.2764 -0.4991  0.4386
 9401TIP3    H149694   5.760   2.341   0.574  0.1167  1.0218 -0.5525
 9401TIP3    H249695   5.836   2.302   0.450 -1.2859  0.5072 -1.2525
 9402TIP3   OH249696   2.116   0.983  11.023 -0.3632 -0.2040  0.0125
 9402TIP3    H149697   2.182   0.962  10.958 -0.2324 -0.8292  0.3479
 9402TIP3    H249698   2.100   0.901  11.070 -2.2426 -0.3493 -0.8454
 9403TIP3   OH249699   1.182   6.680  14.577  0.0107 -0.6014  0.3626
 9403TIP3    H149700   1.179   6.639  14.490 -0.4147 -0.2769  0.2238
 9403TIP3    H249701   1.190   6.607  14.638  0.1653 -0.8382  0.0589
 9404TIP3   OH249702   6.770   3.650  14.440 -0.4771  0.7199 -0.0916
 9404TIP3    H149703   6.787   3.556  14.446  0.9777  1.0676  1.6577
 9404TIP3    H249704   6.681   3.656  14.406 -0.2866 -1.2746 -1.0015
 9405TIP3   OH249705   4.963   5.340   3.170 -1.1322  0.9781  0.3786
 9405TIP3    H149706   4.961   5.417   3.114 -1.2811  0.1746 -0.7408
 9405TIP3    H249707   5.030   5.359   3.235  1.3066  0.6505 -1.9658
 9406TIP3   OH249708   3.065   3.731   0.369  0.1774  0.1809 -0.5623
 9406TIP3    H149709   2.996   3.673   0.402 -1.3541  1.5702 -1.2279
 9406TIP3    H249710   3.146   3.685   0.388 -0.9178 -1.3528  0.5466
 9407TIP3   OH249711   3.456   0.563  14.096 -0.6508  0.0689  0.2456
 9407TIP3    H149712   3.382   0.599  14.047  1.7454  0.6044 -3.1431
 9407TIP3    H249713   3.530   0.619  14.071  1.2467 -1.5083  2.2156
 9408TIP3   OH249714   5.769   2.270   1.522  0.2649  0.3138  0.1868
 9408TIP3    H149715   5.682   2.233   1.506  0.9074 -0.9311 -0.4331
 9408TIP3    H249716   5.813   2.267   1.437  0.6907  1.5596  0.3501
 9409TIP3   OH249717   2.374   5.261   4.352  0.2416 -0.0144  0.1999
 9409TIP3    H149718   2.314   5.302   4.414 -1.4451 -0.4472 -1.1040
 9409TIP3    H249719   2.383   5.171   4.383 -1.6388 -0.5983 -0.8916
 9410TIP3   OH249720   4.200   0.008  15.871  0.0404  0.4492  0.3020
 9410TIP3    H149721   4.124  -0.013  15.925 -0.8441  1.7806 -0.4204
 9410TIP3    H249722   4.234  -0.078  15.844 -1.6265 -0.1452  0.0326
 9411TIP3   OH249723   5.700   6.551  10.596  0.0842  0.0121  0.5108
 9411TIP3    H149724   5.781   6.522  10.555 -0.7956 -1.0555 -0.5260
 9411TIP3    H249725   5.699   6.646  10.585  0.1036 -0.1957 -1.5562
 9412TIP3   OH249726   6.110   4.028   2.815  0.2128 -0.6205 -0.4076
 9412TIP3    H149727   6.143   3.956   2.868  0.7991  1.0023  1.5205
 9412TIP3    H249728   6.016   4.026   2.828  0.2954 -0.6174  0.2166
 9413TIP3   OH249729   0.804   4.411   0.551  0.3408  0.1790 -0.1044
 9413TIP3    H149730   0.804   4.320   0.578  2.1082  0.5699  1.3305
 9413TIP3    H249731   0.885   4.447   0.586 -0.3105  2.3065 -0.6460
 9414TIP3   OH249732   1.084   5.151  16.284 -0.1591 -0.0197 -0.4225
 9414TIP3    H149733   1.039   5.112  16.358 -1.4445  0.9068 -0.6936
 9414TIP3    H249734   1.069   5.245  16.294 -0.9848  0.0751 -2.2435
 9415TIP3   OH249735   5.405   5.264  13.592 -0.0580  0.4967  0.6211
 9415TIP3    H149736   5.408   5.216  13.675  1.9999 -1.0818 -0.2965
 9415TIP3    H249737   5.469   5.334  13.602  0.9989 -0.3537  0.0311
 9416TIP3   OH249738   4.909   5.415   1.725  0.2439  0.1574 -0.0595
 9416TIP3    H149739   4.955   5.495   1.699  0.6514  0.2614  0.9731
 9416TIP3    H249740   4.957   5.383   1.801  1.5482 -2.3847 -1.8449
 9417TIP3   OH249741   3.304   1.361   3.116 -0.0809  0.4774  0.1299
 9417TIP3    H149742   3.318   1.331   3.027 -0.1198 -2.0590  0.9388
 9417TIP3    H249743   3.285   1.281   3.166 -2.0719  2.0501  2.0203
 9418TIP3   OH249744   2.034   4.923   4.624  0.5460  0.0458 -0.1309
 9418TIP3    H149745   1.979   4.858   4.580 -1.2716  0.6012  1.2175
 9418TIP3    H249746   2.079   4.874   4.692  1.0659 -0.2577 -0.6916
 9419TIP3   OH249747   2.027   2.368  11.196  0.3965  0.3396 -0.2202
 9419TIP3    H149748   1.953   2.418  11.231  0.0192 -0.3744  0.0122
 9419TIP3    H249749   2.094   2.434  11.176 -1.3666  1.2988 -3.1897
 9420TIP3   OH249750   4.968   5.696   3.358 -0.9034  0.2668 -0.5576
 9420TIP3    H149751   4.963   5.669   3.267 -1.4828 -0.6284 -0.2736
 9420TIP3    H249752   5.059   5.681   3.383 -1.0095 -0.6036 -0.6615
 9421TIP3   OH249753   2.737   5.371  16.214  0.2424  0.4854 -0.5054
 9421TIP3    H149754   2.701   5.398  16.299  1.0578  1.5947 -0.5008
 9421TIP3    H249755   2.668   5.319  16.174  0.1278 -0.6912  1.1623
 9422TIP3   OH249756   0.023   1.012  11.165 -0.1639 -0.0744 -0.5094
 9422TIP3    H149757   0.001   1.087  11.221  0.2191 -0.8519  0.7051
 9422TIP3    H249758   0.115   1.024  11.144 -0.1636 -0.0909 -0.5167
 9423TIP3   OH249759   0.554   2.868  13.681  0.6607 -0.0311  0.4713
 9423TIP3    H149760   0.549   2.946  13.625 -0.0547 -0.2957  0.1628
 9423TIP3    H249761   0.600   2.803  13.628 -1.7572 -0.9409 -0.6089
 9424TIP3   OH249762   2.081   0.375  14.438  0.1491  0.8324 -0.2237
 9424TIP3    H149763   2.086   0.280  14.426  1.4841  0.7134  1.1256
 9424TIP3    H249764   2.003   0.389  14.491  0.5186  0.3936  0.4403
 9425TIP3   OH249765   2.773   0.986  15.251 -0.2480 -0.0130  0.5717
 9425TIP3    H149766   2.740   0.898  15.234 -0.0109 -0.0773  0.4362
 9425TIP3    H249767   2.854   0.992  15.200  1.2397 -0.7049  2.7901
 9426TIP3   OH249768   3.603   3.813   3.302  0.1322  0.5041  0.1219
 9426TIP3    H149769   3.677   3.800   3.360  0.7421  3.0413 -0.0247
 9426TIP3    H249770   3.526   3.797   3.357  0.7456 -1.1446  0.5272
 9427TIP3   OH249771   4.671   4.487   3.290 -0.6592  0.0608 -0.0082
 9427TIP3    H149772   4.711   4.537   3.361 -2.7670 -0.0167  1.2794
 9427TIP3    H249773   4.703   4.529   3.210  0.3191  1.2759  0.9983
 9428TIP3   OH249774   5.988   1.792   4.984 -0.0327  0.1232 -0.0874
 9428TIP3    H149775   5.896   1.768   4.974 -0.5815  2.0510  0.1631
 9428TIP3    H249776   6.035   1.708   4.982 -1.6478 -0.7829 -1.6056
 9429TIP3   OH249777   4.252   5.421  15.080 -0.0398  0.5143  0.2228
 9429TIP3    H149778   4.248   5.490  15.147  1.6034 -0.2096  1.0923
 9429TIP3    H249779   4.204   5.348  15.119  0.2280  0.3723  0.2906
 9430TIP3   OH249780   6.326   2.019   1.209 -0.2182 -0.0230  0.2009
 9430TIP3    H149781   6.328   1.929   1.240 -1.1619 -0.2347 -0.3270
 9430TIP3    H249782   6.378   2.018   1.129 -0.8507 -0.2654 -0.2123
 9431TIP3   OH249783   5.767   0.664  11.609 -0.1801  0.5093  0.1164
 9431TIP3    H149784   5.836   0.603  11.582  0.8668  1.7862 -0.1172
 9431TIP3    H249785   5.749   0.640  11.700  0.1105 -0.2589 -0.0243
 9432TIP3   OH249786   5.127   1.725   3.520  0.0555 -0.0176 -0.1519
 9432TIP3    H149787   5.051   1.732   3.578  0.2979 -0.1647  0.1881
 9432TIP3    H249788   5.151   1.815   3.500  0.1237  0.0390  0.1810
 9433TIP3   OH249789   6.344   1.773   0.301 -0.2610  0.5788 -0.2756
 9433TIP3    H149790   6.396   1.848   0.273  0.3894  0.7081  1.2386
 9433TIP3    H249791   6.387   1.742   0.380  0.2354 -2.2102 -1.5754
 9434TIP3   OH249792   0.894   4.238  13.896 -0.6655 -0.2305 -0.2183
 9434TIP3    H149793   0.856   4.318  13.860 -0.4660  0.6171  1.4118
 9434TIP3    H249794   0.835   4.213  13.966  0.1389 -0.6241  0.3198
 9435TIP3   OH249795   5.491   4.812  14.405  0.0017  0.0136  0.0359
 9435TIP3    H149796   5.580   4.809  14.441 -0.7788  0.6247  2.0910
 9435TIP3    H249797   5.436   4.837  14.479 -1.9743 -0.9489 -1.0598
 9436TIP3   OH249798   4.237   2.309   4.807 -0.0941 -0.2739 -0.0080
 9436TIP3    H149799   4.267   2.360   4.882  1.5504 -0.6473 -0.3811
 9436TIP3    H249800   4.313   2.257   4.782 -1.1637 -1.4841 -0.8242
 9437TIP3   OH249801   3.406   6.626   1.003 -0.4695 -0.0538 -0.1489
 9437TIP3    H149802   3.483   6.682   1.008  0.0389 -0.6166 -1.3140
 9437TIP3    H249803   3.340   6.679   0.957  0.2779 -0.6521 -1.9897
 9438TIP3   OH249804   0.940   5.826   5.316  0.0986  0.1619  0.9179
 9438TIP3    H149805   1.003   5.824   5.244 -1.2481  0.3779 -0.2791
 9438TIP3    H249806   0.988   5.866   5.389  1.2175  0.6817 -0.0981
 9439TIP3   OH249807   6.080   0.754   4.357  0.0731 -0.2211  0.0627
 9439TIP3    H149808   6.100   0.765   4.450 -1.8900 -1.7564  0.7019
 9439TIP3    H249809   6.019   0.680   4.354 -0.7595  0.5232 -2.3493
 9440TIP3   OH249810   3.865   0.719   2.957 -0.8917  0.3772 -0.0464
 9440TIP3    H149811   3.789   0.706   2.899  0.4700  0.2605 -1.8748
 9440TIP3    H249812   3.913   0.636   2.951 -1.2657 -0.0112  2.1018
 9441TIP3   OH249813   3.058   1.558   4.962 -0.5277 -0.3421  0.3239
 9441TIP3    H149814   3.110   1.619   4.911 -1.0312 -0.7626 -0.7069
 9441TIP3    H249815   3.122   1.510   5.014  0.0431 -0.3161 -0.3415
 9442TIP3   OH249816   4.352   4.803  10.885 -0.4357  0.4041  0.4882
 9442TIP3    H149817   4.389   4.816  10.798  0.8835  2.5988  1.3368
 9442TIP3    H249818   4.357   4.708  10.899  1.5266  0.2785 -0.8722
 9443TIP3   OH249819   1.470   0.043   4.823  0.5755 -0.1485  0.0786
 9443TIP3    H149820   1.466  -0.028   4.886  2.3281  0.6282  1.1160
 9443TIP3    H249821   1.511   0.115   4.871  2.1062  0.3985 -1.9633
 9444TIP3   OH249822   1.814   5.893  15.272  0.1660 -0.1173  0.1343
 9444TIP3    H149823   1.897   5.847  15.277 -0.0249 -0.3968  0.7158
 9444TIP3    H249824   1.834   5.975  15.226  0.9560  0.2751  1.1721
 9445TIP3   OH249825   3.552   5.150  14.648 -0.4549 -0.4752  0.3498
 9445TIP3    H149826   3.619   5.147  14.717 -0.5530 -0.0831  0.4633
 9445TIP3    H249827   3.600   5.134  14.567 -0.4490 -1.6834  0.5791
 9446TIP3   OH249828   4.228   4.944   1.062  0.3808 -0.1649  0.2199
 9446TIP3    H149829   4.263   5.016   1.114  0.5638  0.3811 -0.6592
 9446TIP3    H249830   4.302   4.913   1.010  0.3100 -1.0077  0.6147
 9447TIP3   OH249831   5.786   2.319   0.773  0.1328  0.9909 -0.1938
 9447TIP3    H149832   5.718   2.276   0.824 -0.1832  0.4537 -1.0454
 9447TIP3    H249833   5.770   2.412   0.785 -0.6275  0.8623 -0.2205
 9448TIP3   OH249834   3.747   4.334  12.461  1.0286  0.1560  0.1163
 9448TIP3    H149835   3.667   4.303  12.504  1.6936  0.3770  1.5547
 9448TIP3    H249836   3.783   4.398  12.523  1.0477  1.8540 -1.6133
 9449TIP3   OH249837   4.307   2.070   1.636 -0.0868 -0.0049 -0.2627
 9449TIP3    H149838   4.218   2.106   1.634  0.8453  2.6239  2.0552
 9449TIP3    H249839   4.360   2.135   1.590  0.7961 -1.1209 -0.8522
 9450TIP3   OH249840   0.085   0.510  17.259 -0.2100  0.6955  0.9191
 9450TIP3    H149841   0.153   0.445  17.275  0.3449  1.1595  0.5033
 9450TIP3    H249842   0.077   0.558  17.342  1.4752  2.0098  0.3539
 9451TIP3   OH249843   4.322   5.938  14.092  0.3304  0.1230 -0.1365
 9451TIP3    H149844   4.261   5.883  14.142 -1.6338  2.1021 -0.2205
 9451TIP3    H249845   4.348   6.006  14.155 -0.6685  1.5421 -1.2366
 9452TIP3   OH249846   3.944   0.942   5.800 -0.2412  0.6927  0.1342
 9452TIP3    H149847   3.941   1.038   5.795 -0.3484  0.6584 -0.5058
 9452TIP3    H249848   3.880   0.920   5.867 -1.8313  0.9506 -1.2526
 9453TIP3   OH249849   1.520   1.852   5.257  0.5276 -0.0207  0.2170
 9453TIP3    H149850   1.446   1.856   5.196  2.7047  1.2025 -2.4677
 9453TIP3    H249851   1.483   1.876   5.341 -2.0513  1.0124 -1.1530
 9454TIP3   OH249852   1.688   6.813   2.626  0.4190  0.0017 -0.4690
 9454TIP3    H149853   1.763   6.754   2.617 -0.4499 -1.1987 -0.0057
 9454TIP3    H249854   1.641   6.805   2.544 -0.4206 -0.9614  0.1076
 9455TIP3   OH249855   0.130   3.376   2.121  0.0280 -0.0229  0.0252
 9455TIP3    H149856   0.143   3.380   2.216  3.0687  0.8304 -0.3763
 9455TIP3    H249857   0.103   3.464   2.097 -4.4755 -1.1329  0.4941
 9456TIP3   OH249858   5.888   4.866   0.305 -0.0077 -0.5089 -0.7799
 9456TIP3    H149859   5.962   4.925   0.316  0.1498 -0.5190 -1.7310
 9456TIP3    H249860   5.902   4.826   0.219 -2.6744  1.6612 -2.2759
 9457TIP3   OH249861   0.068   2.482   5.849  0.1686 -0.3139  0.3783
 9457TIP3    H149862   0.156   2.475   5.813  0.3176 -2.5906  1.1152
 9457TIP3    H249863   0.068   2.423   5.925 -2.1175 -0.6941  0.1234
 9458TIP3   OH249864   5.402   6.709   0.869  0.5655  0.4295  0.0444
 9458TIP3    H149865   5.400   6.747   0.957 -0.2151  0.1706  0.1498
 9458TIP3    H249866   5.309   6.698   0.846  0.7478  1.6067 -1.3010
 9459TIP3   OH249867   4.987   5.995   4.307  0.4628  0.1392  0.0576
 9459TIP3    H149868   5.074   5.961   4.285  0.9193  0.0439  1.9678
 9459TIP3    H249869   4.931   5.918   4.313  0.2604  0.1910 -1.0617
 9460TIP3   OH249870   6.071   1.262  16.011 -0.1527 -0.3162 -0.4230
 9460TIP3    H149871   5.978   1.282  16.016 -0.4251 -1.4150 -0.9700
 9460TIP3    H249872   6.079   1.173  16.043  0.5250 -0.7421 -1.7357
 9461TIP3   OH249873   1.024   0.124   0.466 -0.4391  0.1640 -0.5257
 9461TIP3    H149874   1.074   0.048   0.494  3.3164  1.4626 -3.2419
 9461TIP3    H249875   1.000   0.105   0.375  1.5781  2.5992 -1.6382
 9462TIP3   OH249876   4.489   0.277   4.186 -0.4066  0.1710 -0.5262
 9462TIP3    H149877   4.442   0.222   4.124  1.6877 -0.1023 -1.9168
 9462TIP3    H249878   4.475   0.236   4.271 -0.4440 -1.4109 -1.2927
 9463TIP3   OH249879   5.017   1.859   1.212  0.8343 -0.4922  0.2933
 9463TIP3    H149880   5.007   1.779   1.159 -0.6428 -0.0651 -0.0976
 9463TIP3    H249881   4.935   1.866   1.260  0.5695  1.3227 -0.4100
 9464TIP3   OH249882   2.009   1.543  12.147  0.0291 -0.3434  0.8220
 9464TIP3    H149883   2.050   1.495  12.075  2.0442 -1.6422  2.7800
 9464TIP3    H249884   1.979   1.474  12.207 -0.2963  0.7688  1.9381
 9465TIP3   OH249885   5.633   4.355  15.877  0.0246  0.3487  0.1322
 9465TIP3    H149886   5.568   4.288  15.854  0.6242  0.3776 -1.7130
 9465TIP3    H249887   5.717   4.317  15.852  0.3563  1.8204 -1.0458
 9466TIP3   OH249888   2.954   1.973   4.540  0.2882  0.0250  0.3966
 9466TIP3    H149889   2.959   1.904   4.607  0.7593 -0.6002 -0.2745
 9466TIP3    H249890   2.917   2.048   4.586  0.5614 -0.4140  1.3500
 9467TIP3   OH249891   6.604   2.001   5.134 -0.1317 -0.4101  0.5102
 9467TIP3    H149892   6.688   1.960   5.156  0.0362 -0.1527  0.3482
 9467TIP3    H249893   6.540   1.953   5.187  0.0051 -1.1792 -0.0053
 9468TIP3   OH249894   6.544   6.157   3.108  0.3657 -0.7163 -0.2348
 9468TIP3    H149895   6.474   6.184   3.167 -0.2806 -0.9680 -0.8758
 9468TIP3    H249896   6.605   6.108   3.163  0.4257  0.1535  0.4850
 9469TIP3   OH249897   4.780   3.392   3.547  0.1651 -0.1694  0.4405
 9469TIP3    H149898   4.703   3.334   3.545 -0.6129  0.8453  0.6118
 9469TIP3    H249899   4.758   3.463   3.487  0.6138  0.5686  1.1470
 9470TIP3   OH249900   2.711   6.150  11.802  0.5722 -0.0560 -0.9105
 9470TIP3    H149901   2.692   6.061  11.832 -0.6593  0.7295  0.6797
 9470TIP3    H249902   2.626   6.190  11.790  1.1355  1.5447  0.3054
 9471TIP3   OH249903   6.702   2.702  12.779 -0.4917 -0.3793  0.2970
 9471TIP3    H149904   6.716   2.653  12.698 -1.0916  1.1117 -0.7112
 9471TIP3    H249905   6.692   2.793  12.751  0.5215  0.3269  2.1473
 9472TIP3   OH249906   6.635   1.083   6.387  0.5711 -0.3407 -0.8772
 9472TIP3    H149907   6.579   1.134   6.328 -0.0877 -1.0755 -0.8976
 9472TIP3    H249908   6.611   1.113   6.475 -1.3017 -2.0723 -0.7741
 9473TIP3   OH249909   1.295   5.927  16.215  0.3011 -0.2894 -0.1285
 9473TIP3    H149910   1.378   5.973  16.222  0.8951 -1.4896  1.0391
 9473TIP3    H249911   1.289   5.877  16.296 -1.0125 -1.1099 -0.7177
 9474TIP3   OH249912   2.935   4.232   4.564  0.3746 -0.5197  0.2078
 9474TIP3    H149913   2.992   4.156   4.574 -0.6732 -1.3563 -0.0901
 9474TIP3    H249914   2.920   4.262   4.654  1.8306  0.1293  0.2467
 9475TIP3   OH249915   5.986   4.859  14.281 -0.0884  0.3813 -0.1826
 9475TIP3    H149916   5.978   4.764  14.272  1.2018  0.2301  0.1827
 9475TIP3    H249917   6.006   4.890  14.192 -0.4569  0.3182 -0.2905
 9476TIP3   OH249918   5.860   4.172   3.171 -0.3538  0.5412 -0.6680
 9476TIP3    H149919   5.922   4.241   3.146  0.2877  0.0043 -0.5796
 9476TIP3    H249920   5.907   4.091   3.153 -0.1236  0.1276  1.5930
 9477TIP3   OH249921   3.889   6.422  15.141  0.7543 -0.3043  0.0404
 9477TIP3    H149922   3.967   6.478  15.134  0.4616  0.5366  2.9193
 9477TIP3    H249923   3.906   6.366  15.217 -1.2545 -0.4741  0.3944
 9478TIP3   OH249924   0.621   1.342   5.092  0.0783  0.1619  0.5967
 9478TIP3    H149925   0.592   1.255   5.062 -0.4457  0.1455  1.1366
 9478TIP3    H249926   0.715   1.332   5.106  0.1470 -0.1140 -0.0534
 9479TIP3   OH249927   1.144   3.933  15.437  0.2406  0.1844  0.2927
 9479TIP3    H149928   1.190   3.849  15.426 -0.3084 -0.1451  0.5240
 9479TIP3    H249929   1.207   3.988  15.483  0.1186 -0.5231  1.3183
 9480TIP3   OH249930   1.776   0.063  12.710  0.5898 -0.1463  0.5561
 9480TIP3    H149931   1.841   0.059  12.640  0.6053  1.3677  0.4651
 9480TIP3    H249932   1.699   0.102  12.669 -0.0900 -1.1616  0.8714
 9481TIP3   OH249933   2.878   4.956   1.781 -0.2295 -0.4756  0.1327
 9481TIP3    H149934   2.946   5.020   1.800 -0.4435  0.2094 -1.3276
 9481TIP3    H249935   2.848   4.927   1.867 -1.3409  2.7115  0.9031
 9482TIP3   OH249936   6.436   4.147  11.403 -0.2487  0.2827 -0.1617
 9482TIP3    H149937   6.513   4.196  11.373  1.8221  0.4578  4.9321
 9482TIP3    H249938   6.461   4.055  11.391  0.0388  0.3556 -0.1248
 9483TIP3   OH249939   6.014   4.419  11.108 -0.1356  0.1647  0.1335
 9483TIP3    H149940   6.038   4.438  11.017 -2.5162  1.5224 -0.2499
 9483TIP3    H249941   6.060   4.485  11.160  0.7890 -0.2708 -0.1204
 9484TIP3   OH249942   0.223   5.743   5.608 -0.7702  0.3520 -0.6132
 9484TIP3    H149943   0.220   5.806   5.679 -0.2035 -1.6948  1.2941
 9484TIP3    H249944   0.138   5.699   5.610 -0.6839  0.1552 -1.0695
 9485TIP3   OH249945   6.406   2.992   2.505  0.1216  0.2589  0.4048
 9485TIP3    H149946   6.314   3.015   2.491  0.7085  2.7764  0.4045
 9485TIP3    H249947   6.450   3.076   2.515  2.1171 -0.9611  2.4085
 9486TIP3   OH249948   1.991   4.403  11.076  0.0431  0.7357  0.0416
 9486TIP3    H149949   1.898   4.412  11.052 -0.5391  1.9630  2.6554
 9486TIP3    H249950   2.038   4.437  11.000 -1.7224  3.5143  0.1366
 9487TIP3   OH249951   3.251   4.041  14.013 -0.3994  0.3188 -0.0635
 9487TIP3    H149952   3.336   4.018  13.975 -0.8629 -1.0373 -0.2808
 9487TIP3    H249953   3.195   4.059  13.938 -0.7563 -0.3622  0.0449
 9488TIP3   OH249954   3.329   5.284  14.886 -0.2454 -0.2904 -0.3577
 9488TIP3    H149955   3.327   5.306  14.793 -2.2844  0.2970 -0.1998
 9488TIP3    H249956   3.333   5.368  14.931 -1.1832 -0.4936  0.1178
 9489TIP3   OH249957   0.429   2.600  14.151 -0.1519 -0.5400  0.3360
 9489TIP3    H149958   0.428   2.505  14.162 -0.7746 -0.4889  0.7330
 9489TIP3    H249959   0.500   2.616  14.089  0.0046 -1.2580  0.3264
 9490TIP3   OH249960   1.327   1.445   3.123  0.0538 -0.0408  0.3897
 9490TIP3    H149961   1.267   1.393   3.069 -0.5855  0.6471  0.4293
 9490TIP3    H249962   1.274   1.473   3.198  0.0257  1.7224 -0.2665
 9491TIP3   OH249963   6.627   0.614   0.243  0.2323 -0.5592  0.3290
 9491TIP3    H149964   6.601   0.663   0.165 -0.1521 -0.7321  0.3478
 9491TIP3    H249965   6.545   0.589   0.284  0.4305 -0.8465  0.5524
 9492TIP3   OH249966   3.356   3.409   0.776 -0.2566 -0.1141 -0.3333
 9492TIP3    H149967   3.399   3.389   0.693 -1.5300  0.2820 -1.0876
 9492TIP3    H249968   3.284   3.346   0.782  0.5478 -0.9425  1.0515
 9493TIP3   OH249969   3.634   5.435   1.327  0.2670  0.1851 -1.0265
 9493TIP3    H149970   3.712   5.460   1.277  1.2102 -1.8728 -0.6259
 9493TIP3    H249971   3.591   5.369   1.273 -0.9599  0.9702 -1.0242
 9494TIP3   OH249972   5.812   4.329  15.300 -0.0445 -0.7334  0.0338
 9494TIP3    H149973   5.816   4.414  15.344  0.5248 -1.9699  2.3993
 9494TIP3    H249974   5.722   4.324  15.267 -1.1511 -0.7226  2.9706
 9495TIP3   OH249975   3.716   3.135  14.649 -0.3235 -0.2163  0.3252
 9495TIP3    H149976   3.662   3.212  14.633 -2.0639 -2.0249 -3.2043
 9495TIP3    H249977   3.800   3.154  14.608 -0.3836  0.2010  0.3971
 9496TIP3   OH249978   6.783   0.248  17.245  0.5746  0.1914 -0.1749
 9496TIP3    H149979   6.843   0.187  17.202  0.5379  0.9777 -1.3745
 9496TIP3    H249980   6.830   0.331  17.246  0.7767  0.0590  1.8097
 9497TIP3   OH249981   0.034   2.556  16.845 -0.1293 -0.3367 -0.1029
 9497TIP3    H149982   0.014   2.564  16.938 -2.2247  0.8223 -0.6440
 9497TIP3    H249983  -0.008   2.631  16.804  1.6728 -0.2512 -1.8644
 9498TIP3   OH249984   4.407   2.661  13.961  0.7377  0.5995 -0.2140
 9498TIP3    H149985   4.322   2.702  13.981 -0.8231 -1.2776 -2.6987
 9498TIP3    H249986   4.408   2.583  14.016  1.4334  1.2465  0.7137
 9499TIP3   OH249987   4.774   5.224  11.427 -0.2358 -0.1283  0.3637
 9499TIP3    H149988   4.827   5.209  11.505 -2.8938 -0.4595  2.1725
 9499TIP3    H249989   4.734   5.138  11.409  0.8368 -0.2024 -1.7449
 9500TIP3   OH249990   4.847   4.618   2.597  0.1932 -0.1272 -0.5140
 9500TIP3    H149991   4.898   4.607   2.516  2.3979  0.0278  0.8199
 9500TIP3    H249992   4.891   4.562   2.661  1.1283  3.0423  1.7457
 9501TIP3   OH249993   1.470   4.111  11.958 -0.1806  0.5457  0.3318
 9501TIP3    H149994   1.464   4.037  11.899 -2.2958  0.7846  0.2169
 9501TIP3    H249995   1.469   4.072  12.046  1.8225  0.2712  0.2705
 9502TIP3   OH249996   5.547   0.031  11.306  0.0396  0.1431 -0.0058
 9502TIP3    H149997   5.524  -0.049  11.354  0.0955  0.6712  0.9146
 9502TIP3    H249998   5.639   0.018  11.281  0.2712  0.2324  0.7894
 9503TIP3   OH249999   0.065   5.542   6.021  0.2736  0.2954  0.2433
 9503TIP3    H150000   0.016   5.464   5.996 -1.2936  1.2501  0.2894
 9503TIP3    H250001   0.038   5.609   5.958  2.2939  0.5733 -0.3687
 9504TIP3   OH250002   5.053   6.209  16.796 -0.3764 -0.2016  0.7998
 9504TIP3    H150003   5.042   6.130  16.849  1.3961 -0.7344  0.4114
 9504TIP3    H250004   5.121   6.187  16.733 -0.4293  1.3662  0.1589
 9505TIP3   OH250005   0.173   0.020   0.015  0.3257  0.0886 -0.0386
 9505TIP3    H150006   0.103  -0.025   0.064 -1.3194  1.6902 -0.8469
 9505TIP3    H250007   0.212  -0.049  -0.039  0.4744 -1.1701  1.6392
 9506TIP3   OH250008   1.878   3.278  10.978  0.5509  0.0595 -0.4156
 9506TIP3    H150009   1.885   3.369  10.951  1.9801  0.0099 -0.2680
 9506TIP3    H250010   1.789   3.270  11.013  0.7705  1.6687  0.5648
 9507TIP3   OH250011   5.111   2.260  14.837 -0.1369  0.1189 -0.1836
 9507TIP3    H150012   5.202   2.233  14.845  0.3295  0.4185 -3.7194
 9507TIP3    H250013   5.084   2.283  14.926  2.6921 -1.6484  1.1587
 9508TIP3   OH250014   4.737   4.371   4.345  0.5023 -0.0967  0.4817
 9508TIP3    H150015   4.770   4.313   4.413  0.1247  0.4462  1.1370
 9508TIP3    H250016   4.814   4.417   4.313  0.5655  0.2516  1.1285
 9509TIP3   OH250017   6.475   5.644   2.729  0.3948 -0.0394 -0.0244
 9509TIP3    H150018   6.539   5.669   2.796  0.6506 -1.1639  0.1544
 9509TIP3    H250019   6.462   5.724   2.677  2.0781  0.1460 -0.1715
 9510TIP3   OH250020   4.604   6.571   1.385 -0.1977 -0.2326 -0.2614
 9510TIP3    H150021   4.510   6.587   1.382 -0.3556 -1.2843 -0.8795
 9510TIP3    H250022   4.613   6.477   1.372  0.6590 -0.9269  4.4783
 9511TIP3   OH250023   4.167   3.649  13.416 -0.7470  0.3965 -0.0062
 9511TIP3    H150024   4.179   3.737  13.380  1.6140 -0.1996 -0.7033
 9511TIP3    H250025   4.085   3.619  13.376 -0.7422  1.6492 -1.0204
 9512TIP3   OH250026   5.688   5.380   2.207  0.3909 -0.2643  0.5558
 9512TIP3    H150027   5.759   5.383   2.144  0.4587  2.4360  0.7054
 9512TIP3    H250028   5.699   5.459   2.260 -3.1898  0.6679  0.0294
 9513TIP3   OH250029   0.863   0.692  10.618  0.0963 -0.0129  0.1727
 9513TIP3    H150030   0.830   0.773  10.657 -0.2580 -0.2032  0.2670
 9513TIP3    H250031   0.917   0.721  10.545  0.6493  0.3437  0.7183
 9514TIP3   OH250032   5.148   0.378  14.699 -0.3107 -0.3176  0.2094
 9514TIP3    H150033   5.230   0.369  14.748  0.1273  0.7120 -0.3103
 9514TIP3    H250034   5.169   0.440  14.629 -1.1812 -1.0590 -0.7151
 9515TIP3   OH250035   3.696   2.180  14.283  0.0206  0.0559 -0.5765
 9515TIP3    H150036   3.749   2.118  14.232  0.7743 -1.3385  1.8516
 9515TIP3    H250037   3.662   2.128  14.356 -1.6617  1.8488 -0.0536
 9516TIP3   OH250038   2.015   0.526  13.478 -0.4118 -0.4648  0.5066
 9516TIP3    H150039   1.925   0.494  13.469  0.2897 -2.2669 -0.4263
 9516TIP3    H250040   2.068   0.455  13.443  1.3375  0.9474  0.2609
 9517TIP3   OH250041   6.220   5.594   1.957  0.1414  0.5037 -0.2137
 9517TIP3    H150042   6.312   5.622   1.951  1.0596 -2.2339  0.1062
 9517TIP3    H250043   6.201   5.595   2.051  0.4317 -0.5651 -0.1278
 9518TIP3   OH250044   1.024   2.874  16.208  0.6187  0.1082  0.0422
 9518TIP3    H150045   1.043   2.961  16.172  0.1236 -0.1354 -0.8285
 9518TIP3    H250046   0.928   2.871  16.212  0.6500 -0.2296  0.4898
 9519TIP3   OH250047   3.437   1.748  17.186  0.0724 -0.0471  1.1404
 9519TIP3    H150048   3.532   1.746  17.203  0.1201 -0.1442  0.8674
 9519TIP3    H250049   3.428   1.807  17.111 -0.0372 -0.4043  0.8689
 9520TIP3   OH250050   3.585   4.266  13.971  0.1986 -0.1432 -0.4772
 9520TIP3    H150051   3.680   4.273  13.958  0.3437 -0.8242  0.1828
 9520TIP3    H250052   3.556   4.209  13.899 -0.0891  2.0754 -2.1703
 9521TIP3   OH250053   4.284   4.395   2.072 -0.2384  0.3293 -0.2866
 9521TIP3    H150054   4.237   4.342   2.008 -2.5912 -1.3794  2.7281
 9521TIP3    H250055   4.238   4.479   2.071 -0.9623 -0.0631 -0.0607
 9522TIP3   OH250056   0.454   5.491  15.021 -0.1605 -1.1791 -0.0217
 9522TIP3    H150057   0.372   5.446  15.000 -0.0685 -1.3380 -0.0487
 9522TIP3    H250058   0.428   5.578  15.050 -0.2484 -0.6195 -1.7070
 9523TIP3   OH250059   2.460   1.735  12.480 -0.3884 -0.2828  0.6694
 9523TIP3    H150060   2.496   1.686  12.554  0.8477 -0.6307 -0.1505
 9523TIP3    H250061   2.385   1.682  12.451 -0.2523 -0.6804  1.0324
 9524TIP3   OH250062   3.636   5.849   1.022  0.0426  0.2546  0.0505
 9524TIP3    H150063   3.592   5.805   1.095  0.2404 -1.1890 -0.6852
 9524TIP3    H250064   3.723   5.870   1.056  0.1277 -0.3917  0.2456
 9525TIP3   OH250065   1.707   1.241  13.051  0.9061 -0.7112 -0.1780
 9525TIP3    H150066   1.619   1.208  13.068  1.0711 -0.7302  0.6508
 9525TIP3    H250067   1.694   1.325  13.007  0.4769 -0.8900 -0.3919
 9526TIP3   OH250068   2.142   2.877   0.295 -0.2310 -0.2048  0.0509
 9526TIP3    H150069   2.201   2.866   0.220 -0.7221 -0.2698 -0.3288
 9526TIP3    H250070   2.128   2.788   0.328 -0.2223 -0.2027  0.0605
 9527TIP3   OH250071   6.627   2.734   3.020  0.0880  0.3380  0.4743
 9527TIP3    H150072   6.719   2.711   3.018  0.3427  1.3710 -0.2817
 9527TIP3    H250073   6.623   2.821   2.979 -1.0408  0.8852  1.6992
 9528TIP3   OH250074   3.139   0.735   0.197 -0.4838 -0.1299  0.3836
 9528TIP3    H150075   3.197   0.810   0.209 -0.5442 -0.1029  0.5051
 9528TIP3    H250076   3.197   0.666   0.164 -0.2091 -0.3739  1.3613
 9529TIP3   OH250077   5.893   5.603  14.312  0.3764 -0.2226  0.3272
 9529TIP3    H150078   5.865   5.558  14.391 -0.4829 -0.0553  0.1209
 9529TIP3    H250079   5.988   5.590  14.309 -0.0610 -3.6843 -0.7483
 9530TIP3   OH250080   0.082   4.234   1.212 -0.4200 -0.5587  0.0699
 9530TIP3    H150081   0.002   4.198   1.251 -0.3329 -0.1462  0.6397
 9530TIP3    H250082   0.050   4.296   1.146 -0.5679 -2.0956 -1.3185
 9531TIP3   OH250083   5.006   0.174   5.706 -0.3201 -0.3657  0.0960
 9531TIP3    H150084   5.098   0.146   5.701 -0.2153 -0.0124  0.0046
 9531TIP3    H250085   4.994   0.202   5.796  0.0806  1.0000 -0.2703
 9532TIP3   OH250086   0.903   0.336  12.484  0.5973  0.2434 -0.5744
 9532TIP3    H150087   0.833   0.366  12.543  0.2679 -1.4450 -0.0732
 9532TIP3    H250088   0.984   0.364  12.527  0.3747 -1.4103  0.9500
 9533TIP3   OH250089   2.284   3.711   4.024  0.1797  0.1854 -0.5282
 9533TIP3    H150090   2.255   3.795   3.989  1.1528  0.4564 -0.6847
 9533TIP3    H250091   2.205   3.672   4.061 -0.6082  0.4599 -1.8823
 9534TIP3   OH250092   0.220   2.883   4.948 -0.4807  0.3363 -0.2053
 9534TIP3    H150093   0.284   2.848   4.886 -1.4448  0.7400 -1.4311
 9534TIP3    H250094   0.206   2.811   5.010  1.7023  0.4933  0.5086
 9535TIP3   OH250095   3.592   2.768  12.532  0.4280 -0.0805 -0.4879
 9535TIP3    H150096   3.593   2.674  12.514  0.2933 -0.2181  0.2406
 9535TIP3    H250097   3.681   2.787  12.563  0.8626  0.2803 -1.9025
 9536TIP3   OH250098   2.960   1.716  16.944  0.4167  0.1707 -0.1189
 9536TIP3    H150099   2.950   1.772  17.021 -0.5186 -0.7461  0.4354
 9536TIP3    H250100   2.877   1.722  16.898  0.2137 -0.9340  0.0739
 9537TIP3   OH250101   6.143   1.396  13.509  0.4181  0.0410  0.0087
 9537TIP3    H150102   6.116   1.382  13.599 -0.2336  1.0869 -0.0090
 9537TIP3    H250103   6.222   1.344  13.498  0.7514  0.2766  1.3101
 9538TIP3   OH250104   1.997   0.047   4.852 -0.0854 -0.4671 -0.3120
 9538TIP3    H150105   1.925   0.107   4.871  1.2027  1.9016 -2.6680
 9538TIP3    H250106   2.076   0.094   4.881  1.2979  0.5720 -5.4017
 9539TIP3   OH250107   2.085   6.104  14.354 -0.2674 -0.0308  0.2169
 9539TIP3    H150108   2.054   6.013  14.353 -0.4529 -0.0567  3.4921
 9539TIP3    H250109   2.007   6.156  14.336 -0.3027 -0.4656 -0.9467
 9540TIP3   OH250110   5.779   3.625  17.073 -0.0227  0.0892 -0.3503
 9540TIP3    H150111   5.803   3.716  17.057  0.8663 -0.3494 -1.5958
 9540TIP3    H250112   5.821   3.603  17.155 -0.0652  0.7320 -0.1490
 9541TIP3   OH250113   0.855   0.606   2.576  0.1658 -0.5086  0.2409
 9541TIP3    H150114   0.789   0.549   2.536 -1.9087  1.2012  1.1619
 9541TIP3    H250115   0.836   0.602   2.670  1.5679 -0.2050  0.5444
 9542TIP3   OH250116   1.630   3.081   0.782  0.3135  0.2078 -0.1131
 9542TIP3    H150117   1.565   3.086   0.852  0.7756  0.3319  0.3080
 9542TIP3    H250118   1.662   3.171   0.772  1.6492 -0.1513  0.8480
 9543TIP3   OH250119   4.627   0.048   6.691 -0.3644  0.3277 -0.2169
 9543TIP3    H150120   4.572   0.110   6.642  0.4202  1.7317  0.6260
 9543TIP3    H250121   4.633  -0.029   6.635 -0.9734  1.2025 -1.5177
 9544TIP3   OH250122   5.379   5.567   2.754  0.0059 -0.7669  0.2308
 9544TIP3    H150123   5.302   5.544   2.805 -0.2444 -0.6885 -0.1049
 9544TIP3    H250124   5.441   5.603   2.817 -0.8482  0.6631  0.2565
 9545TIP3   OH250125   1.389   2.532  12.322 -0.1146  0.0377 -0.1076
 9545TIP3    H150126   1.397   2.540  12.418 -0.4177  1.8035 -0.2076
 9545TIP3    H250127   1.456   2.591  12.288  0.8563 -1.5462 -1.0107
 9546TIP3   OH250128   1.918   0.768   5.382  0.0770  0.2692  0.2655
 9546TIP3    H150129   2.003   0.796   5.414  1.2238 -1.7094 -0.9818
 9546TIP3    H250130   1.937   0.708   5.311 -2.3783  0.3150 -0.4923
 9547TIP3   OH250131   4.354   2.512   5.012 -0.5509  0.2155  0.3172
 9547TIP3    H150132   4.303   2.572   4.957 -0.1407  1.6154  1.4266
 9547TIP3    H250133   4.435   2.560   5.032 -0.8040 -0.1262  2.3343
 9548TIP3   OH250134   2.784   2.298   3.825  0.2928 -0.6350  0.4111
 9548TIP3    H150135   2.751   2.299   3.735  0.7893 -0.9778  0.2240
 9548TIP3    H250136   2.852   2.365   3.826 -2.4891  2.2513  1.5967
 9549TIP3   OH250137   6.362   1.211  13.568 -0.0303  0.6654 -0.2470
 9549TIP3    H150138   6.324   1.200  13.655  1.7331 -1.6303  0.3008
 9549TIP3    H250139   6.453   1.182  13.579  0.2267  0.4378 -2.8266
 9550TIP3   OH250140   4.165   4.644  14.936 -0.3209  0.0810 -0.1102
 9550TIP3    H150141   4.243   4.677  14.890  1.3152 -2.0554  1.0173
 9550TIP3    H250142   4.168   4.688  15.021 -0.4649  0.1741 -0.1545
 9551TIP3   OH250143   5.504   1.903  13.737 -0.2008  0.3666  0.5806
 9551TIP3    H150144   5.475   1.844  13.807 -1.1629  0.6620  0.4327
 9551TIP3    H250145   5.423   1.933  13.695  0.3637  0.3308 -0.5495
 9552TIP3   OH250146   1.694   0.815   2.031  0.5845  0.0490  0.3829
 9552TIP3    H150147   1.790   0.822   2.033  0.6336 -0.6601  1.2091
 9552TIP3    H250148   1.673   0.767   2.112 -0.6736  2.3771  1.4740
 9553TIP3   OH250149   3.231   4.434   5.532 -0.1909  0.2024 -0.3061
 9553TIP3    H150150   3.163   4.414   5.468 -0.4443  0.1351 -0.0193
 9553TIP3    H250151   3.287   4.498   5.489 -0.1770 -0.0864 -0.7099
 9554TIP3   OH250152   3.699   2.227   2.098 -0.2905  0.1559 -0.3867
 9554TIP3    H150153   3.744   2.293   2.151  1.2793 -0.4280 -0.9621
 9554TIP3    H250154   3.683   2.270   2.014 -0.3836  0.2072 -0.3428
 9555TIP3   OH250155   4.695   5.812   6.670 -0.6063 -0.0762 -0.2124
 9555TIP3    H150156   4.728   5.735   6.624  1.6087  0.4013  0.5567
 9555TIP3    H250157   4.699   5.789   6.763 -0.9788  0.5766 -0.0326
 9556TIP3   OH250158   2.467   5.019   1.290 -0.1495  0.2117  0.6549
 9556TIP3    H150159   2.406   4.946   1.297  1.0962 -0.9744 -0.5646
 9556TIP3    H250160   2.539   4.996   1.348  0.6935 -0.0038 -0.4545
 9557TIP3   OH250161   6.758   3.703   6.112  0.1718  0.1606 -0.4614
 9557TIP3    H150162   6.664   3.689   6.123  0.1920  1.1464  1.2542
 9557TIP3    H250163   6.798   3.659   6.188  1.1496 -0.7713 -1.4927
 9558TIP3   OH250164   6.630   4.683  16.170 -0.3042 -0.4227  0.6205
 9558TIP3    H150165   6.577   4.718  16.242  1.5857 -0.8113  2.2413
 9558TIP3    H250166   6.583   4.605  16.141 -1.1479 -0.1932  1.3392
 9559TIP3   OH250167   5.926   4.295   2.048 -0.1659  0.3977 -0.0706
 9559TIP3    H150168   5.903   4.293   2.141 -0.2469 -0.4124 -0.1055
 9559TIP3    H250169   5.991   4.225   2.038 -1.9052 -1.1056 -1.0823
 9560TIP3   OH250170   1.004   2.526  16.942 -0.0031  0.4827 -0.0704
 9560TIP3    H150171   1.097   2.544  16.934  0.6882 -1.5593  2.5731
 9560TIP3    H250172   0.976   2.501  16.854  1.5421  2.6380 -1.2183
 9561TIP3   OH250173   1.263   2.027   2.921  0.3171 -0.0313  0.0373
 9561TIP3    H150174   1.229   1.943   2.953  2.1019 -0.9540 -0.4482
 9561TIP3    H250175   1.184   2.078   2.902 -0.8090 -1.9582 -0.6308
 9562TIP3   OH250176   3.077   2.248   0.512 -0.2505  0.4269 -0.0813
 9562TIP3    H150177   3.150   2.201   0.552  1.5761  1.5651 -1.9822
 9562TIP3    H250178   3.089   2.235   0.418 -1.8707  1.5578 -0.4614
 9563TIP3   OH250179   6.691   2.069   4.317 -0.1047  0.4550 -0.3772
 9563TIP3    H150180   6.710   1.990   4.368  1.1172  0.2738 -1.0860
 9563TIP3    H250181   6.616   2.046   4.263  0.1844 -0.1946 -0.5028
 9564TIP3   OH250182   1.893   6.404   2.141  0.1422  0.6778  0.1639
 9564TIP3    H150183   1.821   6.444   2.190  0.3049  1.4436 -0.2195
 9564TIP3    H250184   1.915   6.468   2.074 -0.4018 -0.5842 -1.2350
 9565TIP3   OH250185   0.300   4.395  15.658  0.2815  0.0158 -0.2881
 9565TIP3    H150186   0.262   4.449  15.589  1.7786 -1.0189 -1.9491
 9565TIP3    H250187   0.348   4.457  15.713 -1.9874  1.0298  0.6126
 9566TIP3   OH250188   1.689   5.971   3.778  0.6568  0.0784  0.1239
 9566TIP3    H150189   1.784   5.967   3.770  0.8477  1.4913  1.3685
 9566TIP3    H250190   1.664   6.053   3.735 -0.1630 -0.9251 -1.3694
 9567TIP3   OH250191   5.116   6.747   0.883  0.4496 -0.0754 -0.8680
 9567TIP3    H150192   5.131   6.828   0.931 -2.2777 -1.0606  1.7427
 9567TIP3    H250193   5.043   6.766   0.824  0.5623 -0.3082 -1.0863
 9568TIP3   OH250194   0.305   1.458  11.552  0.0578  0.6049 -0.4128
 9568TIP3    H150195   0.343   1.371  11.553  2.9809  1.8203 -1.1682
 9568TIP3    H250196   0.250   1.461  11.630  0.0723 -1.8402 -0.2895
 9569TIP3   OH250197   0.836   4.896  11.772  0.2119 -0.0046 -0.0296
 9569TIP3    H150198   0.830   4.991  11.778  0.0206  0.1742 -2.4461
 9569TIP3    H250199   0.926   4.876  11.797  0.4838  0.8849 -0.2793
 9570TIP3   OH250200   3.621   3.622  10.672 -0.2835  0.4469 -0.6939
 9570TIP3    H150201   3.685   3.625  10.743  1.0828  0.7639 -1.9118
 9570TIP3    H250202   3.623   3.531  10.643  0.6524  0.7765 -1.6623
 9571TIP3   OH250203   2.229   2.757  16.509  0.0337 -0.1414 -0.2691
 9571TIP3    H150204   2.163   2.709  16.459 -0.3223  0.5396 -0.4575
 9571TIP3    H250205   2.196   2.847  16.513  0.3393 -0.0688  0.7072
 9572TIP3   OH250206   0.143   4.966  16.119 -0.2996 -0.1962  0.2255
 9572TIP3    H150207   0.134   4.891  16.178  0.2899  0.2145  0.8443
 9572TIP3    H250208   0.060   5.012  16.126  0.2867  0.6453  1.8433
 9573TIP3   OH250209   5.582   6.712   2.230 -0.1665 -0.5129  0.0640
 9573TIP3    H150210   5.572   6.768   2.307 -0.7396  1.5622 -1.4559
 9573TIP3    H250211   5.517   6.643   2.241 -0.6294  0.0923  1.1681
 9574TIP3   OH250212   1.835   1.243  15.765 -0.0463 -0.6591 -0.6135
 9574TIP3    H150213   1.769   1.202  15.822 -0.3335 -0.2846 -0.6765
 9574TIP3    H250214   1.801   1.230  15.676 -0.5649  0.4634 -0.5883
 9575TIP3   OH250215   0.517   1.199   2.990 -0.9952  0.0188  0.2548
 9575TIP3    H150216   0.481   1.112   2.975 -0.5527 -0.0831 -0.2213
 9575TIP3    H250217   0.583   1.210   2.922 -0.2129  0.2515  1.0344
 9576TIP3   OH250218   5.812   3.986  15.443 -0.2024 -0.2816 -0.9508
 9576TIP3    H150219   5.865   3.973  15.522 -0.1289  3.9723 -0.2027
 9576TIP3    H250220   5.845   4.067  15.405 -2.8370 -0.2200 -3.2419
 9577TIP3   OH250221   2.852   3.161   5.596 -0.1150 -0.5784  0.4488
 9577TIP3    H150222   2.874   3.089   5.537  1.2505  0.9830 -0.9987
 9577TIP3    H250223   2.758   3.150   5.613 -0.4198 -1.3875 -1.5906
 9578TIP3   OH250224   3.695   0.536   3.948 -0.0737 -0.3500  0.7583
 9578TIP3    H150225   3.660   0.516   4.035  0.9862  2.1025  1.7785
 9578TIP3    H250226   3.626   0.509   3.888 -1.2518 -1.0974  2.4088
 9579TIP3   OH250227   5.012   2.606  14.729 -0.0556 -0.1226 -0.0660
 9579TIP3    H150228   5.017   2.536  14.664  0.9745 -0.3946  0.2961
 9579TIP3    H250229   4.983   2.683  14.680 -2.8220 -1.1766 -0.1630
 9580TIP3   OH250230   5.112   3.585  15.456  0.1582  0.8841 -0.3360
 9580TIP3    H150231   5.084   3.671  15.425  1.0639  0.8842 -1.1951
 9580TIP3    H250232   5.188   3.602  15.511  0.4209  0.6337 -0.6125
 9581TIP3   OH250233   0.835   2.000  15.109 -0.4153 -0.3307 -0.0779
 9581TIP3    H150234   0.924   2.035  15.106 -0.5956  0.0151 -2.9447
 9581TIP3    H250235   0.779   2.078  15.114 -0.6224 -0.4275 -0.7823
 9582TIP3   OH250236   1.038   3.801  12.438  0.2426 -0.0910 -0.4127
 9582TIP3    H150237   1.127   3.797  12.473  0.5186  0.1665 -1.0670
 9582TIP3    H250238   1.025   3.893  12.415  0.0213 -0.2290 -0.8551
 9583TIP3   OH250239   6.380   6.789  16.406  0.9680 -0.2269 -0.6272
 9583TIP3    H150240   6.450   6.785  16.340  2.7777  0.1092  1.2078
 9583TIP3    H250241   6.414   6.847  16.473 -1.9442  1.5566 -0.6140
 9584TIP3   OH250242   0.756   0.302   4.677  0.1047  0.2828  0.0238
 9584TIP3    H150243   0.715   0.298   4.590 -0.7013 -2.6675  0.4757
 9584TIP3    H250244   0.849   0.285   4.660 -0.0962 -0.5670 -0.2293
 9585TIP3   OH250245   1.161   2.288  15.062 -0.2095  0.2578 -0.0234
 9585TIP3    H150246   1.122   2.281  15.149  0.1372 -1.0287  0.0381
 9585TIP3    H250247   1.091   2.325  15.007 -0.6601  0.3989  0.6431
 9586TIP3   OH250248   1.452   4.478   1.070  0.2165 -0.5403  0.0910
 9586TIP3    H150249   1.399   4.501   1.146  1.6135  0.8922  0.6632
 9586TIP3    H250250   1.446   4.554   1.013  2.3162  0.0056  0.5547
 9587TIP3   OH250251   2.295   1.290   2.732  0.0073 -0.2484  0.0481
 9587TIP3    H150252   2.231   1.276   2.803  0.6995 -0.1848  0.6938
 9587TIP3    H250253   2.321   1.202   2.706 -1.5570 -0.3208 -1.3464
 9588TIP3   OH250254   1.974   6.654  16.899 -0.6834 -0.2820  0.1014
 9588TIP3    H150255   2.030   6.580  16.878  0.2803  0.5030 -0.1279
 9588TIP3    H250256   2.028   6.710  16.955 -1.0938  0.6715 -0.4451
 9589TIP3   OH250257   1.459   1.595   2.139 -0.0930 -0.0061 -0.1978
 9589TIP3    H150258   1.393   1.535   2.104  0.2089 -0.9865  0.8854
 9589TIP3    H250259   1.485   1.557   2.223  0.6168  1.2725  0.1877
 9590TIP3   OH250260   0.381   5.629  11.360  0.0523  0.1803 -0.1922
 9590TIP3    H150261   0.385   5.589  11.447  0.7432  0.4653 -0.0882
 9590TIP3    H250262   0.438   5.706  11.367 -0.9486  0.9596 -0.5039
 9591TIP3   OH250263   6.152   1.002  11.140 -0.4314  0.0176  0.2647
 9591TIP3    H150264   6.145   1.071  11.074 -1.4255 -0.3690 -0.0453
 9591TIP3    H250265   6.174   0.924  11.090  0.6363  0.0885  0.6110
 9592TIP3   OH250266   2.191   2.117  12.496  0.1951 -0.0870 -0.2773
 9592TIP3    H150267   2.224   2.051  12.435  1.6225  1.6512 -1.4531
 9592TIP3    H250268   2.243   2.106  12.575 -1.4409 -2.1348  0.5856
 9593TIP3   OH250269   0.782   6.463  14.504  0.3311  0.9700 -0.0646
 9593TIP3    H150270   0.750   6.376  14.479  0.7512  0.6496  0.5007
 9593TIP3    H250271   0.874   6.450  14.526  0.7851  1.8330 -1.3865
 9594TIP3   OH250272   6.035   6.086   0.999 -0.0841 -0.0148 -0.1943
 9594TIP3    H150273   6.024   6.180   0.984 -0.4871 -0.5110 -3.4131
 9594TIP3    H250274   6.130   6.073   1.000 -0.0212  0.5166  0.8891
 9595TIP3   OH250275   1.037   1.336   1.527  0.2200 -0.2341  0.1869
 9595TIP3    H150276   1.112   1.288   1.491 -0.6858 -1.8869  0.4716
 9595TIP3    H250277   1.061   1.354   1.618  0.6564  0.0607  0.0158
 9596TIP3   OH250278   6.334   5.962  15.962 -0.2360  0.2265 -0.2974
 9596TIP3    H150279   6.343   5.900  16.034 -3.6593 -0.4009 -0.3546
 9596TIP3    H250280   6.363   5.914  15.884  3.3718  0.8729  0.5379
 9597TIP3   OH250281   0.837   3.820  13.998  0.4438 -0.5905 -0.4706
 9597TIP3    H150282   0.892   3.754  14.040 -0.2438 -0.7382  0.2187
 9597TIP3    H250283   0.749   3.802  14.031 -0.0225 -0.3763 -1.5883
 9598TIP3   OH250284   4.597   5.350   0.381  0.4785 -0.6863 -0.2871
 9598TIP3    H150285   4.676   5.366   0.432  0.9863 -1.0202 -0.9521
 9598TIP3    H250286   4.573   5.260   0.402 -0.1639 -0.3384  0.4941
 9599TIP3   OH250287   1.472   0.746   0.134  0.2606  0.3062 -0.3666
 9599TIP3    H150288   1.466   0.658   0.171 -0.8320  0.3954 -0.3134
 9599TIP3    H250289   1.381   0.776   0.129  0.7584  2.1555  1.3681
 9600TIP3   OH250290   1.613   5.436  11.627 -0.5146 -0.3665 -0.2262
 9600TIP3    H150291   1.640   5.464  11.715  0.6303  2.6413 -1.4823
 9600TIP3    H250292   1.685   5.380  11.597 -0.2692 -0.2847  0.1966
 9601TIP3   OH250293   3.438   2.137  11.766 -0.0394  0.1963 -0.3806
 9601TIP3    H150294   3.354   2.102  11.794 -1.1083  1.4487 -1.9204
 9601TIP3    H250295   3.476   2.067  11.712  0.1485 -0.5638  0.7211
 9602TIP3   OH250296   6.160   6.107   3.102  0.2670 -0.4044 -0.4664
 9602TIP3    H150297   6.101   6.041   3.138 -0.0927  0.4998  0.5996
 9602TIP3    H250298   6.224   6.056   3.052 -0.3838 -1.5143 -0.1863
 9603TIP3   OH250299   1.253   3.648  15.415 -0.0163  0.0318  0.0981
 9603TIP3    H150300   1.331   3.617  15.369  0.2224  0.5867  0.1249
 9603TIP3    H250301   1.193   3.573  15.413  0.0950 -0.0410 -0.8760
 9604TIP3   OH250302   2.039   6.206   0.171  0.3138 -0.6046  0.1847
 9604TIP3    H150303   2.081   6.280   0.127 -1.9786  1.0712  0.6949
 9604TIP3    H250304   2.006   6.151   0.100 -1.4829  0.9784 -0.2697
 9605TIP3   OH250305   3.508   5.629   5.634  0.6938 -0.2328  0.1983
 9605TIP3    H150306   3.565   5.557   5.662  1.5869  0.0159 -0.9277
 9605TIP3    H250307   3.498   5.683   5.713  2.1784 -0.1806  0.3787
 9606TIP3   OH250308   4.166   5.744   2.251  0.5809 -0.0718 -0.3448
 9606TIP3    H150309   4.195   5.691   2.326  0.9023 -1.1977 -1.2594
 9606TIP3    H250310   4.210   5.705   2.176  2.3335  2.6819 -0.7940
 9607TIP3   OH250311   0.169   2.491   0.393  0.7213  0.0914  0.2023
 9607TIP3    H150312   0.081   2.513   0.421  1.3619  2.1080  0.6902
 9607TIP3    H250313   0.158   2.452   0.306 -0.4164  3.3856 -1.2099
 9608TIP3   OH250314   3.638   1.263  16.884 -0.7115 -0.3905 -0.4777
 9608TIP3    H150315   3.552   1.242  16.849 -1.0589 -0.1036  0.2105
 9608TIP3    H250316   3.627   1.346  16.929 -0.6571 -1.5726  1.7739
 9609TIP3   OH250317   5.629   0.224   3.207 -0.5456 -0.0545  0.0209
 9609TIP3    H150318   5.693   0.155   3.190 -0.0461  0.1565  1.0119
 9609TIP3    H250319   5.544   0.180   3.198 -0.2355 -1.3363  2.6217
 9610TIP3   OH250320   0.551   6.056  14.587 -0.1858  0.3445  0.3300
 9610TIP3    H150321   0.616   6.039  14.656  1.8300  0.8895 -1.3794
 9610TIP3    H250322   0.524   5.969  14.558  0.8456  0.0880  0.1082
 9611TIP3   OH250323   5.705   4.090  16.550  0.0382 -0.1701 -0.3373
 9611TIP3    H150324   5.656   4.131  16.621 -0.3076  0.7342 -1.0892
 9611TIP3    H250325   5.638   4.042  16.500  0.3834 -1.3747  0.3322
 9612TIP3   OH250326   1.348   5.941  14.709  0.6648  0.1647  0.2108
 9612TIP3    H150327   1.311   6.028  14.723  0.2706  0.2409 -1.2666
 9612TIP3    H250328   1.398   5.948  14.627  2.1673 -0.5169  1.0357
 9613TIP3   OH250329   2.442   2.641   4.473 -0.4505  0.5660 -0.0215
 9613TIP3    H150330   2.387   2.676   4.544  1.6512  0.8556  1.4980
 9613TIP3    H250331   2.498   2.576   4.516  0.2596  0.1147 -1.5974
 9614TIP3   OH250332   0.747   1.152  12.843 -0.2847 -0.1091 -0.0514
 9614TIP3    H150333   0.797   1.201  12.777  0.6151 -1.1008 -0.1191
 9614TIP3    H250334   0.656   1.176  12.827 -0.0623 -0.2445 -1.5904
 9615TIP3   OH250335   4.472   2.586   5.902  0.5872 -0.3443  0.1319
 9615TIP3    H150336   4.509   2.621   5.983  1.2690 -2.5023  0.8021
 9615TIP3    H250337   4.424   2.508   5.930 -0.0042 -0.5496 -1.4244
 9616TIP3   OH250338   3.163   4.403  11.616 -0.3978 -0.2770  0.4900
 9616TIP3    H150339   3.206   4.407  11.701  2.0137  0.4969 -0.6982
 9616TIP3    H250340   3.176   4.312  11.587 -0.4390 -0.3105  0.5784
 9617TIP3   OH250341   2.447   6.635   2.716 -0.9710  0.0385  0.5128
 9617TIP3    H150342   2.522   6.665   2.664  0.3928 -1.0724  1.7854
 9617TIP3    H250343   2.470   6.657   2.806 -2.5716  0.4351  0.8363
 9618TIP3   OH250344   0.494   3.926   4.598 -0.2166 -0.0289  0.0226
 9618TIP3    H150345   0.492   3.831   4.598 -1.5891 -0.0228  0.4612
 9618TIP3    H250346   0.522   3.950   4.510  1.3358 -0.8389  0.2869
 9619TIP3   OH250347   0.369   6.670   4.249  0.0304  0.0923  0.4090
 9619TIP3    H150348   0.441   6.718   4.289 -0.2393  0.0807  0.9133
 9619TIP3    H250349   0.291   6.719   4.274 -0.2213 -0.4457  0.6870
 9620TIP3   OH250350   3.446   2.908   6.573  0.0384 -0.1826 -0.2213
 9620TIP3    H150351   3.419   2.832   6.626  1.0066 -0.8246 -0.6285
 9620TIP3    H250352   3.541   2.913   6.586  0.1306  0.2850 -1.0948
 9621TIP3   OH250353   6.126   1.661  16.935  0.5225 -0.3142 -0.1551
 9621TIP3    H150354   6.115   1.624  16.848  0.0254 -0.6892  0.0646
 9621TIP3    H250355   6.147   1.586  16.990  0.6246 -0.1057  0.0907
 9622TIP3   OH250356   4.065   0.624  12.788 -0.4074  0.2984 -0.3689
 9622TIP3    H150357   4.011   0.670  12.852 -1.8132 -0.0095 -1.2995
 9622TIP3    H250358   4.109   0.556  12.838  0.8319  1.9425  0.8166
 9623TIP3   OH250359   3.322   4.773   2.768  0.2591  0.3713 -0.0725
 9623TIP3    H150360   3.304   4.865   2.748  0.9901  0.4925 -0.1876
 9623TIP3    H250361   3.417   4.765   2.760 -0.0685 -1.1076 -2.9585
 9624TIP3   OH250362   6.283   5.018   0.078  0.2431  0.0801  0.8432
 9624TIP3    H150363   6.332   4.941   0.048 -0.0033 -0.4344  1.7351
 9624TIP3    H250364   6.305   5.086   0.015  0.5200 -0.7031  0.0752
 9625TIP3   OH250365   4.909   4.927   0.715  0.4885 -0.1299 -0.2606
 9625TIP3    H150366   4.856   4.883   0.783 -0.5120 -0.5832 -1.3081
 9625TIP3    H250367   4.994   4.941   0.756 -0.3945  0.4640  1.4174
 9626TIP3   OH250368   6.072   3.793   4.880 -1.1990  0.1370  0.0003
 9626TIP3    H150369   6.041   3.715   4.833 -1.0424  1.3337 -2.1928
 9626TIP3    H250370   5.995   3.849   4.885 -1.3148 -0.1442  1.5962
 9627TIP3   OH250371   5.017   2.873  16.440 -0.2238 -0.0704  0.7424
 9627TIP3    H150372   4.949   2.829  16.390  0.0862  0.9283 -0.5870
 9627TIP3    H250373   5.099   2.835  16.407  0.0821  1.8365 -0.8285
 9628TIP3   OH250374   5.414   1.229   2.176 -0.7611  0.3281 -0.3772
 9628TIP3    H150375   5.436   1.146   2.219 -1.1502  0.7106  0.5674
 9628TIP3    H250376   5.499   1.265   2.150 -0.2679  1.4949  2.6979
 9629TIP3   OH250377   3.091   2.941  11.623  0.6689 -0.0072 -0.5257
 9629TIP3    H150378   3.150   3.015  11.609  1.4116 -0.3095  0.9727
 9629TIP3    H250379   3.003   2.979  11.615  1.0383  1.0747  0.4307
 9630TIP3   OH250380   6.467   0.140  12.526 -0.0636 -0.1084  0.2010
 9630TIP3    H150381   6.391   0.176  12.571 -0.6811  0.5558 -1.3403
 9630TIP3    H250382   6.529   0.120  12.596 -0.3933  2.3081  1.2346
 9631TIP3   OH250383   6.751   5.153   0.413 -0.4305 -0.5703 -0.2964
 9631TIP3    H150384   6.710   5.140   0.498  2.3054 -1.3892  0.9417
 9631TIP3    H250385   6.715   5.083   0.359 -0.4920 -1.4170  0.8278
 9632TIP3   OH250386   5.317   1.787   1.779  0.3209 -0.0909  0.2434
 9632TIP3    H150387   5.410   1.779   1.759  0.7605  1.8598  1.3400
 9632TIP3    H250388   5.277   1.712   1.736  2.5433 -1.6099  0.7344
 9633TIP3   OH250389   3.584   0.756  17.076 -0.2527  0.0913 -0.1720
 9633TIP3    H150390   3.490   0.744  17.067 -0.6126 -0.2208  3.4635
 9633TIP3    H250391   3.596   0.850  17.088 -0.3939 -0.1331  1.9322
 9634TIP3   OH250392   2.939   3.692   5.641  0.4167  0.5688 -0.8462
 9634TIP3    H150393   2.958   3.728   5.728 -0.3520 -0.1271 -0.3752
 9634TIP3    H250394   2.935   3.768   5.584 -0.8198  1.2032  0.0685
 9635TIP3   OH250395   2.177   3.652  12.904 -0.2961 -0.4321  0.4706
 9635TIP3    H150396   2.198   3.717  12.970 -2.7747 -0.3474  1.2303
 9635TIP3    H250397   2.095   3.613  12.934  0.4680 -2.9845 -0.6520
 9636TIP3   OH250398   4.635   0.388   0.457 -0.4959  0.5703  0.6121
 9636TIP3    H150399   4.669   0.309   0.414  0.4616  1.0702  0.4466
 9636TIP3    H250400   4.566   0.355   0.515 -0.2323 -0.3696  0.4069
 9637TIP3   OH250401   2.000   2.736  15.178 -0.2600  0.5318 -0.2512
 9637TIP3    H150402   2.006   2.830  15.162 -1.2854  0.6468  0.0339
 9637TIP3    H250403   1.908   2.720  15.198 -0.0654 -0.5100 -0.1381
 9638TIP3   OH250404   1.040   1.198  14.555 -0.1177  0.1219 -0.5517
 9638TIP3    H150405   1.088   1.177  14.475 -0.8940  0.0189 -0.9943
 9638TIP3    H250406   1.090   1.269  14.595  0.1712  0.3076 -1.2321
 9639TIP3   OH250407   5.283   2.513   2.487  0.1743  0.0831 -0.0142
 9639TIP3    H150408   5.290   2.431   2.437 -1.0559 -0.0515  0.0328
 9639TIP3    H250409   5.208   2.558   2.449  1.1765  1.4433 -0.3939
 9640TIP3   OH250410   0.217   5.212   6.697 -0.1304  0.3778 -0.3018
 9640TIP3    H150411   0.308   5.233   6.677  0.0915  1.2653  1.4831
 9640TIP3    H250412   0.165   5.266   6.637  0.5153  0.5561 -0.6958
 9641TIP3   OH250413   5.365   4.025  11.401  0.1395 -0.7421 -0.2448
 9641TIP3    H150414   5.294   3.960  11.399  1.2962 -2.0031 -2.5538
 9641TIP3    H250415   5.411   4.007  11.483 -1.6986 -0.4619  0.8697
 9642TIP3   OH250416   4.032   6.747  12.231  0.4077  0.5124  0.2806
 9642TIP3    H150417   3.943   6.716  12.221  0.2756  0.1356  2.4279
 9642TIP3    H250418   4.086   6.668  12.228  0.7043  0.7473 -1.1113
 9643TIP3   OH250419   0.094   0.146   5.243 -0.2067 -0.3847 -0.3018
 9643TIP3    H150420   0.059   0.057   5.233 -3.7541  0.8655  0.2174
 9643TIP3    H250421   0.021   0.197   5.279  1.5258  2.8899 -1.1759
 9644TIP3   OH250422   2.371   5.628  17.232  0.3798 -0.9251  0.6302
 9644TIP3    H150423   2.288   5.651  17.274 -0.1344 -0.1744 -0.7719
 9644TIP3    H250424   2.377   5.533  17.243 -1.5610 -1.2633 -0.7830
 9645TIP3   OH250425   3.727   3.894   5.360 -0.2321  1.0042 -0.4045
 9645TIP3    H150426   3.706   3.984   5.385 -1.3842  0.4764  0.6112
 9645TIP3    H250427   3.642   3.853   5.345  0.2805  0.0623 -0.7700
 9646TIP3   OH250428   0.048   6.727  14.974  0.2001 -0.8172  0.1986
 9646TIP3    H150429   0.058   6.822  14.975 -1.3095 -0.6525  1.7077
 9646TIP3    H250430   0.124   6.693  15.021 -0.3465 -0.2248  1.5267
 9647TIP3   OH250431   3.582   4.251  16.654 -0.0223  0.1232  0.6474
 9647TIP3    H150432   3.512   4.250  16.720 -2.3062  0.9170 -1.6801
 9647TIP3    H250433   3.545   4.301  16.581  2.3035 -1.0141 -1.3761
 9648TIP3   OH250434   3.549   3.227  13.347  0.3851  0.2517  0.4057
 9648TIP3    H150435   3.497   3.279  13.286  0.2753 -1.3084 -0.8528
 9648TIP3    H250436   3.486   3.203  13.416 -0.2838 -0.6449 -0.5053
 9649TIP3   OH250437   6.509   2.052  12.739 -1.0569 -0.1467 -0.2385
 9649TIP3    H150438   6.495   1.961  12.711 -0.5093 -0.3384  0.0985
 9649TIP3    H250439   6.599   2.071  12.711 -1.6491  0.7618 -1.5871
 9650TIP3   OH250440   3.245   1.051   2.408  0.2466 -0.2074 -0.0627
 9650TIP3    H150441   3.314   1.040   2.474 -0.7745 -0.2811  1.0117
 9650TIP3    H250442   3.289   1.034   2.325  1.2494 -1.4777  0.6955
 9651TIP3   OH250443   6.458   1.307  15.591 -0.2239  0.0340  0.1097
 9651TIP3    H150444   6.447   1.399  15.568  1.5560 -0.0619 -1.1910
 9651TIP3    H250445   6.484   1.265  15.509 -3.0497 -2.0224  0.2062
 9652TIP3   OH250446   4.339   4.213  14.765 -0.2819  0.3798 -0.4669
 9652TIP3    H150447   4.257   4.168  14.786 -0.0854  0.0402 -0.4223
 9652TIP3    H250448   4.336   4.294  14.816  0.3099 -0.5640  1.1041
 9653TIP3   OH250449   4.547   5.773   4.192  0.9535 -0.2710 -0.5992
 9653TIP3    H150450   4.636   5.795   4.219  0.4173  0.9922  0.1817
 9653TIP3    H250451   4.503   5.747   4.273  0.5919 -0.8684 -0.9797
 9654TIP3   OH250452   3.869   0.779   0.353  0.0009  0.5621  0.0766
 9654TIP3    H150453   3.935   0.715   0.378  0.6158  1.1248 -0.0952
 9654TIP3    H250454   3.899   0.813   0.268 -0.4050  0.9574  0.0863
 9655TIP3   OH250455   4.542   1.442   4.781 -0.2009  0.3745  0.1609
 9655TIP3    H150456   4.561   1.357   4.741  4.7412 -0.0165  2.9063
 9655TIP3    H250457   4.471   1.424   4.843  1.9159 -2.2886  1.9595
 9656TIP3   OH250458   0.004   2.655  16.016 -0.2124 -0.1593 -0.0876
 9656TIP3    H150459   0.035   2.712  16.086 -0.6064  0.2960 -0.2800
 9656TIP3    H250460   0.052   2.684  15.938  1.6101 -1.8707  0.3398
 9657TIP3   OH250461   1.395   5.609   1.268  0.6523  0.1037  0.1832
 9657TIP3    H150462   1.314   5.612   1.216 -1.1597  2.0736  2.9836
 9657TIP3    H250463   1.372   5.556   1.344  1.4320  2.0705  1.8386
 9658TIP3   OH250464   2.857   5.995  16.218  0.0156  0.6314  0.3956
 9658TIP3    H150465   2.860   5.917  16.162 -0.5197 -0.4526  1.8629
 9658TIP3    H250466   2.780   6.043  16.188  0.0822  0.3745 -0.2017
 9659TIP3   OH250467   5.023   5.300  14.680 -0.9496  0.1445 -0.2105
 9659TIP3    H150468   4.942   5.342  14.650 -1.6491 -1.3078 -0.3953
 9659TIP3    H250469   5.082   5.305  14.604 -0.9399  1.0243 -0.1437
 9660TIP3   OH250470   2.284   3.112   0.334  0.2097 -0.3337  0.2981
 9660TIP3    H150471   2.317   3.156   0.256 -0.4504 -0.8000 -0.2495
 9660TIP3    H250472   2.232   3.039   0.301  0.2770 -0.7940  1.1818
 9661TIP3   OH250473   4.763   0.802  14.670 -0.1626  0.0229 -0.7228
 9661TIP3    H150474   4.719   0.752  14.739 -0.8820  0.4438 -0.8656
 9661TIP3    H250475   4.691   0.838  14.618  0.2767  2.7222  0.4587
 9662TIP3   OH250476   2.380   0.331   5.758 -0.2908  0.7481 -0.5675
 9662TIP3    H150477   2.474   0.351   5.751 -0.3423  1.2971  0.2901
 9662TIP3    H250478   2.376   0.259   5.821 -0.3661 -0.0287 -1.4329
 9663TIP3   OH250479   5.061   6.800   0.022  0.7050 -0.1204  0.0686
 9663TIP3    H150480   5.004   6.810   0.099  0.8916  0.5388  0.1292
 9663TIP3    H250481   5.084   6.707   0.021 -1.4842 -0.6895 -0.7463
 9664TIP3   OH250482   2.545   5.762   2.619  0.0645  0.1545  0.0386
 9664TIP3    H150483   2.470   5.754   2.679 -0.4668 -2.1048 -0.8539
 9664TIP3    H250484   2.606   5.695   2.650  1.1164  1.0598 -0.0865
 9665TIP3   OH250485   1.820   1.865  13.479  0.1943  0.3912 -0.2904
 9665TIP3    H150486   1.840   1.775  13.507  0.5184  1.0004  1.4887
 9665TIP3    H250487   1.729   1.879  13.506  0.1824  0.6435 -0.4611
 9666TIP3   OH250488   3.007   1.382  13.944 -0.2085 -0.6935  0.1812
 9666TIP3    H150489   3.071   1.427  13.888  1.3360 -1.6919  1.0883
 9666TIP3    H250490   2.939   1.447  13.960  0.2249  0.1768 -1.3900
 9667TIP3   OH250491   3.796   0.216  10.707 -0.4676 -0.7691 -0.5845
 9667TIP3    H150492   3.785   0.286  10.771 -0.3281 -2.2889  1.1300
 9667TIP3    H250493   3.860   0.250  10.645 -0.2074  0.5271  0.3665
 9668TIP3   OH250494   3.820   2.066  14.055 -0.1460  0.0239 -0.4875
 9668TIP3    H150495   3.760   2.058  13.981 -1.2491 -1.3278  0.5147
 9668TIP3    H250496   3.838   1.975  14.081  1.8018  0.4313 -0.3378
 9669TIP3   OH250497   1.632   3.230  14.364  0.1521  0.0137  0.9058
 9669TIP3    H150498   1.594   3.309  14.326  1.2062  0.7700  1.4175
 9669TIP3    H250499   1.556   3.177  14.389 -0.6600  2.2281  3.4162
 9670TIP3   OH250500   0.512   0.587  15.471  0.4531 -0.3030  0.4079
 9670TIP3    H150501   0.431   0.566  15.517 -0.4096  0.5837 -0.6758
 9670TIP3    H250502   0.570   0.621  15.539 -0.3137 -0.3052  1.0745
 9671TIP3   OH250503   6.379   4.142  13.711  0.2176 -0.1474 -0.3484
 9671TIP3    H150504   6.372   4.236  13.728 -0.2395 -0.3000  0.3096
 9671TIP3    H250505   6.351   4.101  13.792 -1.0110 -0.8640 -1.1306
 9672TIP3   OH250506   5.275   0.220   6.190  0.4665  0.2305 -0.2045
 9672TIP3    H150507   5.345   0.170   6.232 -0.5225 -1.5488 -0.6034
 9672TIP3    H250508   5.205   0.156   6.176 -0.9710  1.8187 -0.4426
 9673TIP3   OH250509   6.291   6.005  15.634  0.0510  0.5904  0.0904
 9673TIP3    H150510   6.374   5.957  15.639  0.4682  1.3700  0.6846
 9673TIP3    H250511   6.314   6.096  15.652 -1.0902  0.6553  1.2921
 9674TIP3   OH250512   5.130   5.089  11.425  0.2464 -0.0237 -0.1647
 9674TIP3    H150513   5.206   5.099  11.368  0.1023  1.4178 -0.1220
 9674TIP3    H250514   5.104   5.179  11.447 -0.5214 -0.5326  1.0726
 9675TIP3   OH250515   0.003   0.391   0.948  0.1949  0.1651 -0.0057
 9675TIP3    H150516   0.034   0.334   0.878  1.4056  0.9880 -0.1586
 9675TIP3    H250517  -0.015   0.331   1.021 -1.2390 -0.7083 -1.0606
 9676TIP3   OH250518   0.015   4.761  13.081 -0.2078 -0.5376  0.4981
 9676TIP3    H150519  -0.022   4.846  13.057 -1.3123 -1.2476 -0.4449
 9676TIP3    H250520  -0.062   4.705  13.093  0.5194 -1.5547  0.4731
 9677TIP3   OH250521   1.198   3.196  11.815 -0.0154 -0.8665 -0.2877
 9677TIP3    H150522   1.266   3.142  11.775  0.4876  0.6484 -1.5582
 9677TIP3    H250523   1.224   3.202  11.907  2.2684  0.5967 -0.9549
 9678TIP3   OH250524   6.553   6.459   0.443 -1.0718 -0.7435  0.4359
 9678TIP3    H150525   6.534   6.372   0.480  0.7788 -0.7526  1.4305
 9678TIP3    H250526   6.606   6.441   0.365 -1.4917 -0.5385  0.0996
 9679TIP3   OH250527   2.970   0.799  10.784 -0.0241 -0.4563  0.5832
 9679TIP3    H150528   2.909   0.726  10.772  0.2972 -0.6654  0.2204
 9679TIP3    H250529   3.052   0.757  10.811  0.0819 -0.2085  0.6441
 9680TIP3   OH250530   2.145   1.647  12.804  0.0205 -0.2665 -0.2212
 9680TIP3    H150531   2.058   1.679  12.780  0.7767  0.9974 -1.3085
 9680TIP3    H250532   2.205   1.718  12.781  1.6640 -2.1371 -1.9806
 9681TIP3   OH250533   6.318   3.454  16.311  0.0022  0.6067 -0.3479
 9681TIP3    H150534   6.263   3.397  16.258  1.5538  0.2792 -1.6479
 9681TIP3    H250535   6.407   3.421  16.297  0.4325  0.3868  2.6249
 9682TIP3   OH250536   5.563   6.344  12.819 -0.8509  0.2025  0.0597
 9682TIP3    H150537   5.606   6.259  12.828  0.3577  0.5828 -1.9333
 9682TIP3    H250538   5.548   6.372  12.910  0.4039 -1.2766  0.7556
 9683TIP3   OH250539   1.213   1.281  15.003  0.1002 -0.2117 -0.0645
 9683TIP3    H150540   1.289   1.333  15.031  0.1712 -0.9420  1.1312
 9683TIP3    H250541   1.158   1.275  15.081 -0.3483 -1.1725 -0.4502
 9684TIP3   OH250542   4.521   2.972  10.762  0.3028  0.1502 -0.3391
 9684TIP3    H150543   4.553   2.890  10.800 -0.0121  0.3003  0.2595
 9684TIP3    H250544   4.593   3.033  10.773  0.6608 -0.1344 -1.0861
 9685TIP3   OH250545   1.368   0.651   0.492  0.0863  0.0674  0.3065
 9685TIP3    H150546   1.462   0.666   0.494 -0.1068  1.2222  1.6061
 9685TIP3    H250547   1.357   0.572   0.439  1.6688  0.7224 -1.0206
 9686TIP3   OH250548   3.139   4.997  13.059  0.6310  0.0930 -0.3767
 9686TIP3    H150549   3.050   4.964  13.045 -0.7174  2.9436  1.0689
 9686TIP3    H250550   3.163   5.038  12.976  0.2560  0.0723 -0.4941
 9687TIP3   OH250551   0.422   6.676  16.376 -0.3153 -0.3000 -0.1286
 9687TIP3    H150552   0.468   6.723  16.446 -1.2325 -1.0915  1.0428
 9687TIP3    H250553   0.347   6.731  16.355 -1.7193 -1.4557  1.6543
 9688TIP3   OH250554   5.700   3.979   3.960 -0.1246  0.0544 -0.1915
 9688TIP3    H150555   5.748   3.944   4.036 -2.1249 -1.8268  0.2466
 9688TIP3    H250556   5.636   4.039   3.998 -1.8849 -1.7319 -0.2302
 9689TIP3   OH250557   0.694   6.390   1.497  0.2616  0.5281  0.1727
 9689TIP3    H150558   0.651   6.475   1.506 -0.0318  0.6166 -1.7508
 9689TIP3    H250559   0.623   6.326   1.504  0.6141  0.3751  2.5800
 9690TIP3   OH250560   4.084   2.436  16.930  0.4933  0.1899 -0.0407
 9690TIP3    H150561   4.022   2.427  17.003  1.0552  0.0241  0.4136
 9690TIP3    H250562   4.134   2.515  16.950  2.5453 -1.3822  1.1786
 9691TIP3   OH250563   4.490   6.565   2.986  0.1134  0.4044  0.2291
 9691TIP3    H150564   4.511   6.653   2.956  1.0771  0.2025  0.2836
 9691TIP3    H250565   4.407   6.543   2.943  0.3604  0.9703 -0.5312
 9692TIP3   OH250566   4.396   0.570  12.468  0.4715 -0.5006  0.7584
 9692TIP3    H150567   4.353   0.648  12.501 -0.2768  0.1876 -1.6736
 9692TIP3    H250568   4.361   0.560  12.379  2.3046 -2.2570  0.1905
 9693TIP3   OH250569   6.116   1.322  16.812 -0.3157  0.3326 -0.4384
 9693TIP3    H150570   6.046   1.363  16.862  0.5646  2.6009 -1.0265
 9693TIP3    H250571   6.197   1.349  16.856  0.2858 -0.8367 -0.7877
 9694TIP3   OH250572   6.651   2.233   0.601  0.2438  0.0842  0.3975
 9694TIP3    H150573   6.588   2.254   0.670  1.6825  1.0445  1.4450
 9694TIP3    H250574   6.692   2.152   0.630  0.9525  0.5673  0.7422
 9695TIP3   OH250575   5.119   4.331  12.077 -0.0213 -0.4779  0.2769
 9695TIP3    H150576   5.073   4.296  12.000  1.4617  0.7325 -1.1946
 9695TIP3    H250577   5.207   4.295  12.071  0.3868  0.3960  0.8623
 9696TIP3   OH250578   6.515   3.858   1.155 -0.2285 -0.1212 -0.1167
 9696TIP3    H150579   6.424   3.848   1.126 -0.2068  1.1784 -0.6742
 9696TIP3    H250580   6.558   3.778   1.125 -1.0075 -0.3920 -0.5496
 9697TIP3   OH250581   5.126   1.855   5.035  0.1605 -0.5430 -0.2733
 9697TIP3    H150582   5.085   1.781   5.078 -0.5367 -0.8848 -1.5194
 9697TIP3    H250583   5.086   1.859   4.948  3.3018 -1.4131 -1.8544
 9698TIP3   OH250584   2.279   1.023  14.867  0.6203 -0.1435 -0.3173
 9698TIP3    H150585   2.368   0.987  14.858  0.2681 -0.9437 -0.6383
 9698TIP3    H250586   2.230   0.952  14.909 -0.0425  0.0390 -0.7925
 9699TIP3   OH250587   3.280   0.052   2.876 -0.5449 -0.1856  0.1516
 9699TIP3    H150588   3.323   0.070   2.792  0.8315 -0.6157  0.7552
 9699TIP3    H250589   3.321  -0.028   2.908  0.3609  1.0365  2.1670
 9700TIP3   OH250590   4.478   5.142  13.021  1.1305 -0.4379  0.8312
 9700TIP3    H150591   4.487   5.066  13.078  1.1382 -0.4956  0.7529
 9700TIP3    H250592   4.474   5.216  13.081  1.3490 -0.4799  0.9007
 9701TIP3   OH250593   5.996   6.327   6.042 -0.3750  0.5978  0.5393
 9701TIP3    H150594   5.923   6.286   6.087 -1.1477  0.7737 -0.5347
 9701TIP3    H250595   5.961   6.410   6.010  0.5562  1.1011  0.8059
 9702TIP3   OH250596   4.018   3.855  13.625 -0.3522  0.0139 -0.0757
 9702TIP3    H150597   3.979   3.814  13.547 -0.9753  0.6710 -0.1195
 9702TIP3    H250598   4.002   3.948  13.613  2.6963  0.4669 -0.8738
 9703TIP3   OH250599   2.419   0.168   1.104  0.2908  0.3095  0.8025
 9703TIP3    H150600   2.450   0.079   1.090  1.5431  0.5285  2.0224
 9703TIP3    H250601   2.467   0.221   1.041 -1.5444 -0.0486 -0.9509
 9704TIP3   OH250602   5.268   0.103  14.395  0.2494 -0.2573 -0.6420
 9704TIP3    H150603   5.351   0.140  14.424  0.4744 -1.9293  0.9353
 9704TIP3    H250604   5.203   0.140  14.454  0.3594 -1.6522  0.3759
 9705TIP3   OH250605   1.158   2.563   2.707 -0.0628  0.1588 -0.2074
 9705TIP3    H150606   1.073   2.531   2.735  0.1761 -0.3943 -0.1204
 9705TIP3    H250607   1.150   2.659   2.713 -1.0680  0.1605 -1.3688
 9706TIP3   OH250608   1.411   6.367   5.449  0.4307 -0.1357  0.4231
 9706TIP3    H150609   1.351   6.412   5.509  1.1476 -2.0494  2.6500
 9706TIP3    H250610   1.478   6.432   5.430 -0.4397  0.8828  0.7545
 9707TIP3   OH250611   1.006   3.540   3.975 -0.5246 -0.1728 -0.1338
 9707TIP3    H150612   1.011   3.479   3.902  0.1932 -0.5437  0.2154
 9707TIP3    H250613   0.951   3.612   3.943  2.0502  1.0361 -2.0114
 9708TIP3   OH250614   2.686   2.161   4.291  0.0376  0.1181 -0.3501
 9708TIP3    H150615   2.660   2.121   4.374 -0.3152  0.0849 -0.4714
 9708TIP3    H250616   2.602   2.179   4.247  0.2502 -0.6725 -1.0775
 9709TIP3   OH250617   6.660   0.602  12.491 -0.2880 -0.1215 -0.1936
 9709TIP3    H150618   6.748   0.637  12.476 -0.0859 -0.7097 -0.4099
 9709TIP3    H250619   6.636   0.634  12.578  0.8946 -1.4833  0.6631
 9710TIP3   OH250620   0.809   0.566  11.720  0.0434 -0.6492  0.3657
 9710TIP3    H150621   0.783   0.646  11.675  2.6470 -2.1127 -4.0452
 9710TIP3    H250622   0.768   0.573  11.806 -2.9230  3.6238 -1.1985
 9711TIP3   OH250623   4.335   3.139   4.276 -0.1806 -0.2338 -0.3794
 9711TIP3    H150624   4.393   3.201   4.319 -0.2960 -1.0728  1.0151
 9711TIP3    H250625   4.258   3.190   4.251 -0.7182 -0.0263  1.6668
 9712TIP3   OH250626   0.127   0.607   0.877  0.1596  0.2083 -0.1262
 9712TIP3    H150627   0.170   0.570   0.799  0.6427  0.7364 -0.1092
 9712TIP3    H250628   0.056   0.545   0.896  0.9481 -0.7061 -0.1125
 9713TIP3   OH250629   5.501   0.764  13.551  0.3512  0.2306  0.5345
 9713TIP3    H150630   5.475   0.820  13.477  0.6431  0.7288  0.8112
 9713TIP3    H250631   5.418   0.729  13.584  0.1432  0.7352  0.5509
 9714TIP3   OH250632   5.765   2.069  12.486 -0.2677  0.0857  0.5884
 9714TIP3    H150633   5.766   2.144  12.427 -0.7865 -0.9435 -0.7710
 9714TIP3    H250634   5.841   2.081  12.543  1.5094  0.0424 -1.6874
 9715TIP3   OH250635   2.576   5.261  10.746 -0.2154  0.2136  0.3655
 9715TIP3    H150636   2.550   5.333  10.804 -1.3846  0.4033 -0.3706
 9715TIP3    H250637   2.635   5.303  10.683 -0.4162  0.4176  0.3071
 9716TIP3   OH250638   2.532   2.278  14.242 -0.0414 -0.3843 -0.3249
 9716TIP3    H150639   2.492   2.286  14.329 -2.0005  0.3816 -1.2817
 9716TIP3    H250640   2.581   2.359  14.230 -0.1373 -0.3003 -0.1452
 9717TIP3   OH250641   0.172   1.226  12.881  0.1042  0.2573  0.1195
 9717TIP3    H150642   0.082   1.230  12.848  0.2809  0.7246 -0.3122
 9717TIP3    H250643   0.198   1.135  12.868 -0.1231  0.2455 -0.2508
 9718TIP3   OH250644   1.258   6.158   4.134  0.3960 -0.7450 -0.3505
 9718TIP3    H150645   1.212   6.241   4.143  2.0478 -0.0012  1.7686
 9718TIP3    H250646   1.248   6.134   4.042 -2.2181  0.5301 -0.4446
 9719TIP3   OH250647   0.879   4.332   5.351  0.4639  0.1930 -0.1038
 9719TIP3    H150648   0.922   4.270   5.410  1.3369 -0.2288 -1.1724
 9719TIP3    H250649   0.839   4.397   5.409 -0.1217 -1.1420  1.0215
 9720TIP3   OH250650   3.227   0.322   2.975  0.5154  0.6133 -0.5718
 9720TIP3    H150651   3.152   0.348   2.921 -0.2067 -0.4930 -0.1204
 9720TIP3    H250652   3.240   0.230   2.955  0.6421  0.3510  0.6694
 9721TIP3   OH250653   6.108   2.037   5.635 -0.2642 -0.5308  0.2519
 9721TIP3    H150654   6.170   2.048   5.707 -3.2456  0.7940  2.7203
 9721TIP3    H250655   6.114   2.119   5.586 -0.4027 -0.2052  0.7740
 9722TIP3   OH250656   2.776   1.712   2.268  0.2547 -0.1628  0.4602
 9722TIP3    H150657   2.871   1.707   2.273  0.1876 -0.7265  1.3089
 9722TIP3    H250658   2.756   1.804   2.284  0.8238  0.6507 -3.0881
 9723TIP3   OH250659   5.273   1.676  16.998 -0.4614  0.2082 -0.3862
 9723TIP3    H150660   5.238   1.589  17.017 -0.6894  0.1109 -1.2492
 9723TIP3    H250661   5.320   1.700  17.078  0.0630 -0.9266 -0.3390
 9724TIP3   OH250662   3.786   0.343  11.709  0.0280 -0.4454 -0.1853
 9724TIP3    H150663   3.714   0.292  11.671 -1.0926 -0.0152  1.2990
 9724TIP3    H250664   3.750   0.431  11.718  0.8962 -0.1242  0.1488
 9725TIP3   OH250665   5.539   4.822  17.128 -0.1474 -0.0020  0.1759
 9725TIP3    H150666   5.580   4.838  17.044  0.4003 -1.4136  0.1666
 9725TIP3    H250667   5.607   4.780  17.181 -1.2847 -1.5980  0.4305
 9726TIP3   OH250668   0.605   0.923   6.158  0.5193 -0.0520  0.4319
 9726TIP3    H150669   0.536   0.985   6.178 -0.0987 -0.1635 -1.2956
 9726TIP3    H250670   0.685   0.963   6.194  0.0860  1.6028 -0.4158
 9727TIP3   OH250671   0.592   5.071  12.312  0.3344 -0.1579 -0.1406
 9727TIP3    H150672   0.600   4.994  12.255  1.6600  0.8414 -1.3276
 9727TIP3    H250673   0.527   5.127  12.267 -0.1262 -0.2733  0.3755
 9728TIP3   OH250674   1.904   5.446   4.731  0.1376  0.0582 -0.1531
 9728TIP3    H150675   1.873   5.476   4.645  2.5681 -0.8656 -1.4289
 9728TIP3    H250676   1.844   5.376   4.756 -1.2376  1.0699 -0.5765
 9729TIP3   OH250677   2.662   0.066   1.360 -0.4693  0.3815 -0.2629
 9729TIP3    H150678   2.578   0.020   1.360  0.7019 -1.8623  1.1358
 9729TIP3    H250679   2.679   0.086   1.452  0.6503  0.5180 -0.4857
 9730TIP3   OH250680   0.870   4.351   3.416 -0.1259  0.2370  0.5006
 9730TIP3    H150681   0.874   4.317   3.327  2.0897 -2.6213  1.5993
 9730TIP3    H250682   0.948   4.406   3.424 -0.9872  1.5187  0.3368
 9731TIP3   OH250683   4.074   5.796   0.035 -0.4360  0.1819 -0.1268
 9731TIP3    H150684   4.029   5.801  -0.049 -1.0631 -0.3756  0.1657
 9731TIP3    H250685   4.165   5.816   0.015  0.3007 -4.1523 -1.7126
 9732TIP3   OH250686   2.898   6.483   5.561 -0.0444  0.3788 -0.2114
 9732TIP3    H150687   2.904   6.421   5.634  0.4423  0.3250 -0.2934
 9732TIP3    H250688   2.938   6.564   5.595 -0.3864  0.5476 -0.2104
 9733TIP3   OH250689   4.220   5.382  11.158 -0.4920  0.2161  0.6773
 9733TIP3    H150690   4.201   5.369  11.066 -0.0501  1.0305  0.4621
 9733TIP3    H250691   4.290   5.320  11.177 -0.4792  0.1539  0.4246
 9734TIP3   OH250692   6.674   2.860   5.313  0.0331 -0.1844 -0.0946
 9734TIP3    H150693   6.608   2.908   5.263 -0.1967 -0.2676  0.1298
 9734TIP3    H250694   6.735   2.927   5.343 -0.2686 -0.0351  0.1886
 9735TIP3   OH250695   3.517   0.826  13.278  0.0719 -0.0239 -0.7493
 9735TIP3    H150696   3.564   0.834  13.195  0.8674  2.4186 -0.0846
 9735TIP3    H250697   3.432   0.867  13.262  0.2026  0.3975 -0.3676
 9736TIP3   OH250698   5.021   6.458   4.675 -0.3275 -0.4299 -0.2308
 9736TIP3    H150699   4.993   6.538   4.719  2.6972  1.1442 -1.0277
 9736TIP3    H250700   5.052   6.400   4.745  0.6539  0.4697  0.0893
 9737TIP3   OH250701   6.687   2.838  11.704  0.2250 -0.0349  0.0938
 9737TIP3    H150702   6.649   2.754  11.679  1.8750 -1.0769  0.9712
 9737TIP3    H250703   6.777   2.817  11.730  0.1310  1.7167  2.0172
 9738TIP3   OH250704   3.464   5.684   2.736 -0.4430 -0.0110 -0.4836
 9738TIP3    H150705   3.560   5.690   2.738 -0.5288  1.4208 -0.0336
 9738TIP3    H250706   3.442   5.697   2.644 -0.2005 -0.4272 -0.6029
 9739TIP3   OH250707   6.651   1.468  15.246  0.1532 -0.1054  0.4233
 9739TIP3    H150708   6.585   1.514  15.194  1.8375  0.5385 -1.2450
 9739TIP3    H250709   6.733   1.487  15.200  1.0019 -4.1264  0.1459
 9740TIP3   OH250710   2.066   3.453   0.712 -0.0376  0.2467 -0.0603
 9740TIP3    H150711   2.063   3.417   0.801 -0.3683 -0.6417 -0.4178
 9740TIP3    H250712   2.109   3.385   0.660 -1.2238  0.0957 -0.8695
 9741TIP3   OH250713   1.172   5.712  12.872  0.1298  0.4160 -0.0108
 9741TIP3    H150714   1.209   5.766  12.942 -1.2759 -0.1157  1.1531
 9741TIP3    H250715   1.137   5.635  12.916 -1.6183  0.5083 -1.1537
 9742TIP3   OH250716   5.003   4.419   0.033  0.2583  0.0315 -0.6008
 9742TIP3    H150717   5.006   4.332   0.074  1.0674 -0.3086 -1.3744
 9742TIP3    H250718   5.013   4.480   0.106  0.2772 -0.5377 -0.1213
 9743TIP3   OH250719   4.189   5.097  12.256 -0.3840  0.2225  0.5128
 9743TIP3    H150720   4.166   5.180  12.298  0.1726  0.7150 -0.1436
 9743TIP3    H250721   4.280   5.109  12.228 -0.3400 -0.5697  0.3145
 9744TIP3   OH250722   2.760   0.094   1.660  0.1490  0.2859  0.6445
 9744TIP3    H150723   2.824   0.054   1.719  1.3278  0.9024 -0.2005
 9744TIP3    H250724   2.680   0.101   1.712  0.8475 -0.2458  1.7944
 9745TIP3   OH250725   1.716   6.413   5.812  0.3638 -0.3057 -0.1565
 9745TIP3    H150726   1.679   6.446   5.730 -2.1488 -1.6061  0.4000
 9745TIP3    H250727   1.704   6.485   5.875 -1.2401 -0.7116  0.0124
 9746TIP3   OH250728   4.512   2.821   5.054  0.0476  0.3156  0.1283
 9746TIP3    H150729   4.588   2.763   5.055  0.4397  0.8005 -0.6747
 9746TIP3    H250730   4.546   2.907   5.076 -0.2630  0.5332 -0.2113
 9747TIP3   OH250731   5.157   5.452   1.929 -0.4507  0.0551  0.1947
 9747TIP3    H150732   5.122   5.364   1.947  1.5609 -0.9400 -0.6383
 9747TIP3    H250733   5.245   5.451   1.965  0.7142  0.6913 -2.4831
 9748TIP3   OH250734   0.363   6.131  15.704 -0.0016 -0.2185 -0.3251
 9748TIP3    H150735   0.271   6.108  15.711  0.3209 -1.1368  1.4548
 9748TIP3    H250736   0.399   6.108  15.790  2.0086 -0.5107 -1.2175
 9749TIP3   OH250737   2.347   5.132   3.463 -0.1591 -0.0668  0.4121
 9749TIP3    H150738   2.386   5.045   3.466 -0.0052 -0.0891 -1.5061
 9749TIP3    H250739   2.282   5.132   3.534  2.0604 -0.6148  2.4965
 9750TIP3   OH250740   5.100   4.402  11.425 -0.1102  0.1097  0.2367
 9750TIP3    H150741   5.059   4.478  11.385 -0.3006 -0.0453  0.1360
 9750TIP3    H250742   5.036   4.331  11.414 -1.9578  0.9586  4.4111
 9751TIP3   OH250743   5.194   6.233  16.088  0.5842 -0.3574 -0.2622
 9751TIP3    H150744   5.283   6.211  16.115  2.1344  2.3750 -2.7921
 9751TIP3    H250745   5.202   6.255  15.995 -2.3502  1.8563 -0.0655
 9752TIP3   OH250746   6.336   4.392   3.087 -0.5189 -0.3405  0.0947
 9752TIP3    H150747   6.335   4.480   3.051 -2.0251 -0.1330  0.5869
 9752TIP3    H250748   6.419   4.386   3.134  0.2072  0.3343 -1.0669
 9753TIP3   OH250749   4.035   4.763  13.930  0.5881 -0.5577  0.0879
 9753TIP3    H150750   4.079   4.848  13.925  0.8964 -0.7907 -1.2304
 9753TIP3    H250751   3.972   4.764  13.858  0.3152 -1.2927  0.3133
 9754TIP3   OH250752   2.083   4.090   4.859  0.4611 -0.4721  0.5268
 9754TIP3    H150753   2.143   4.064   4.928  1.1468 -0.1201  0.0667
 9754TIP3    H250754   2.073   4.012   4.804 -2.7878 -1.8639  2.9131
 9755TIP3   OH250755   2.139   5.837  14.361  0.1902  0.6175  0.3910
 9755TIP3    H150756   2.221   5.808  14.401 -0.4528 -1.6714  0.1370
 9755TIP3    H250757   2.093   5.755  14.340  0.0663  1.7446 -4.1128
 9756TIP3   OH250758   1.051   1.550  12.497  0.4344 -0.5151 -0.4881
 9756TIP3    H150759   1.100   1.631  12.484  2.2916 -1.6404 -0.5988
 9756TIP3    H250760   0.959   1.576  12.483  0.9103  1.7191  0.2680
 9757TIP3   OH250761   3.580   5.254   5.088  0.1903  0.5745  0.2490
 9757TIP3    H150762   3.570   5.216   5.001  0.4228  0.6340  0.1956
 9757TIP3    H250763   3.554   5.345   5.077 -2.1025  0.0115  0.7702
 9758TIP3   OH250764   2.202   2.762  14.899 -0.0595  1.0851  0.0379
 9758TIP3    H150765   2.207   2.771  14.804  2.4665 -0.9784 -0.0688
 9758TIP3    H250766   2.126   2.816  14.924 -1.2838  0.9785 -3.2043
 9759TIP3   OH250767   2.741   5.151  14.199 -0.2929 -0.2820  0.0873
 9759TIP3    H150768   2.751   5.246  14.194 -0.2559 -0.2033  1.5097
 9759TIP3    H250769   2.708   5.126  14.113 -2.2759  1.2660  0.3563
 9760TIP3   OH250770   3.571   6.782   2.969 -0.0283  0.4653  0.3467
 9760TIP3    H150771   3.646   6.833   3.001 -0.0557  0.8502 -0.1909
 9760TIP3    H250772   3.541   6.733   3.045  0.9649  0.0778  0.4896
 9761TIP3   OH250773   2.437   2.933  12.495 -0.5570 -0.0860 -0.4565
 9761TIP3    H150774   2.505   2.884  12.540  0.0091  0.2890 -0.8927
 9761TIP3    H250775   2.450   2.912  12.402 -0.6746  0.4238 -0.5894
 9762TIP3   OH250776   3.077   5.485  11.290 -0.3999 -0.0892  0.4679
 9762TIP3    H150777   3.074   5.443  11.377 -2.0994 -0.3835  0.2953
 9762TIP3    H250778   3.044   5.573  11.305 -0.1982  0.0318  0.2051
 9763TIP3   OH250779   2.540   2.061   0.974 -0.1784  0.2405  0.5595
 9763TIP3    H150780   2.472   1.994   0.969  0.5144 -0.5131  1.1016
 9763TIP3    H250781   2.586   2.054   0.890  0.1437 -0.2508  0.7686
 9764TIP3   OH250782   6.346   1.196   4.897  0.2224  0.0336 -0.1023
 9764TIP3    H150783   6.405   1.196   4.821  0.0963  1.9319 -0.2449
 9764TIP3    H250784   6.260   1.217   4.860  0.0833  0.5430  0.4984
 9765TIP3   OH250785   5.545   1.215  16.672 -1.2189  0.4494 -0.2041
 9765TIP3    H150786   5.576   1.262  16.594  0.7072 -1.4516 -0.6146
 9765TIP3    H250787   5.459   1.181  16.646  0.2490 -1.8522 -2.2570
 9766TIP3   OH250788   1.033   1.313  15.943 -0.2487 -0.2154  0.4682
 9766TIP3    H150789   0.955   1.353  15.982  0.2811  1.3723 -0.0542
 9766TIP3    H250790   1.086   1.285  16.018 -0.6530  0.0240  0.8405
 9767TIP3   OH250791   5.681   5.828   0.290  0.5193 -0.4209  0.1492
 9767TIP3    H150792   5.712   5.864   0.373  0.4238  1.8782 -0.7635
 9767TIP3    H250793   5.745   5.858   0.225 -1.6844  1.4552 -1.2346
 9768TIP3   OH250794   2.592   0.371  12.649  0.0256 -0.5142 -0.2511
 9768TIP3    H150795   2.612   0.278  12.639 -0.4299 -0.9226  2.4179
 9768TIP3    H250796   2.507   0.382  12.605  1.6649 -0.5832 -3.6417
 9769TIP3   OH250797   0.115   1.055   2.980  0.7334 -0.0083 -0.4027
 9769TIP3    H150798   0.186   1.116   2.959  0.0452  1.3732  1.1380
 9769TIP3    H250799   0.040   1.089   2.932  0.7785 -0.6666 -0.9360
 9770TIP3   OH250800   6.310   1.908  14.598 -0.1133 -0.0723  0.2864
 9770TIP3    H150801   6.334   1.987  14.647 -1.7742 -0.0283  1.0670
 9770TIP3    H250802   6.393   1.864  14.581  0.5583  0.2160  2.6268
 9771TIP3   OH250803   4.547   3.280  11.326 -0.0950  0.5793  0.2668
 9771TIP3    H150804   4.487   3.354  11.318 -0.6046  0.2406  0.9386
 9771TIP3    H250805   4.527   3.225  11.250 -0.4777  0.5846  0.3620
 9772TIP3   OH250806   4.679   0.131   0.006 -0.5407  0.3939 -0.8087
 9772TIP3    H150807   4.655   0.072   0.078 -0.1917 -0.1866 -1.1667
 9772TIP3    H250808   4.719   0.074  -0.060  0.1592  1.0844 -0.9949
 9773TIP3   OH250809   6.345   5.825  10.854  0.4182  0.6296  0.4888
 9773TIP3    H150810   6.260   5.785  10.868  0.7801 -0.0418  0.7636
 9773TIP3    H250811   6.325   5.912  10.819 -0.3570 -0.1657 -1.1091
 9774TIP3   OH250812   3.857   4.402   0.617 -0.0442  0.1074 -1.0572
 9774TIP3    H150813   3.914   4.334   0.652  0.4810  0.2709 -1.5924
 9774TIP3    H250814   3.782   4.404   0.677  1.5619  1.4463  0.9547
 9775TIP3   OH250815   3.536   2.315   0.996  0.3104 -0.1191 -0.6958
 9775TIP3    H150816   3.506   2.406   0.992 -3.2140 -1.1162  1.8079
 9775TIP3    H250817   3.485   2.270   0.929  0.0425 -0.8154 -0.0203
 9776TIP3   OH250818   1.902   5.871  14.497  0.5902 -0.2217 -0.1033
 9776TIP3    H150819   1.991   5.863  14.461  1.3586  1.1660  1.3940
 9776TIP3    H250820   1.915   5.904  14.585 -1.5309  2.8180 -0.8427
 9777TIP3   OH250821   1.121   2.252   3.210 -0.0392 -0.2718  0.0929
 9777TIP3    H150822   1.152   2.343   3.214  0.5723 -0.4919  0.5274
 9777TIP3    H250823   1.191   2.201   3.251  0.1509 -1.0773 -1.2036
 9778TIP3   OH250824   5.382   2.946  11.784  0.2838 -0.6495 -0.0917
 9778TIP3    H150825   5.332   3.001  11.723  0.5118 -0.1948  0.1304
 9778TIP3    H250826   5.381   2.994  11.866  1.9846 -0.1104 -0.3605
 9779TIP3   OH250827   5.002   4.243  12.834  0.2575 -0.5822  0.0741
 9779TIP3    H150828   4.973   4.166  12.881 -2.3977  0.5945  0.4475
 9779TIP3    H250829   5.002   4.216  12.742 -0.0842 -1.1939  0.2518
 9780TIP3   OH250830   5.379   0.308  15.024 -0.2836  0.1493 -0.2314
 9780TIP3    H150831   5.406   0.333  15.113  0.5729 -1.2574 -0.0863
 9780TIP3    H250832   5.394   0.387  14.972  2.1098  0.0988  0.2898
 9781TIP3   OH250833   3.928   5.889  10.893 -0.0340  0.6003 -0.3511
 9781TIP3    H150834   3.890   5.851  10.814 -2.1336  0.3947  0.7173
 9781TIP3    H250835   4.011   5.843  10.905 -1.2360 -1.7148 -0.6170
 9782TIP3   OH250836   2.157   5.630  15.510  0.4077 -0.4919  0.4621
 9782TIP3    H150837   2.073   5.663  15.542  1.4975  0.9790  1.8952
 9782TIP3    H250838   2.175   5.554  15.564 -0.3440 -1.2563 -0.3483
 9783TIP3   OH250839   5.039   0.159  13.682 -0.1791 -0.1407  0.3723
 9783TIP3    H150840   5.018   0.082  13.734 -1.2631 -0.1422 -0.0610
 9783TIP3    H250841   4.966   0.218  13.696  0.1811  0.4184 -0.0709
 9784TIP3   OH250842   0.990   1.741   6.389  0.0890  0.1056  0.0786
 9784TIP3    H150843   1.059   1.724   6.453  2.0389  0.9196 -1.7527
 9784TIP3    H250844   0.944   1.818   6.422  2.6410  2.0167 -0.7214
 9785TIP3   OH250845   0.471   4.495  15.933  0.4427 -0.2298 -0.1933
 9785TIP3    H150846   0.425   4.466  16.012  0.4839  0.5127  0.1068
 9785TIP3    H250847   0.560   4.461  15.943 -0.1802 -2.1773 -1.0493
 9786TIP3   OH250848   5.053   5.169   2.439 -0.3480  0.5122  0.3880
 9786TIP3    H150849   5.092   5.104   2.498 -1.2933 -0.5743 -0.1665
 9786TIP3    H250850   5.117   5.240   2.435  0.6630 -0.3591  1.0491
 9787TIP3   OH250851   3.967   1.909  16.474 -0.4899  0.1694 -0.3460
 9787TIP3    H150852   3.987   2.000  16.493  1.1983 -0.3045  0.1439
 9787TIP3    H250853   3.892   1.889  16.530 -0.1189  0.9060  0.4218
 9788TIP3   OH250854   4.771   0.571   3.071  0.1734 -0.0822 -0.2108
 9788TIP3    H150855   4.757   0.480   3.043  1.1556 -0.5619  0.8440
 9788TIP3    H250856   4.691   0.594   3.119 -0.3635 -0.1561 -1.0603
 9789TIP3   OH250857   5.974   1.780   3.182 -0.0699  0.1978  0.1447
 9789TIP3    H150858   5.891   1.752   3.144 -0.5438  0.8757  0.6481
 9789TIP3    H250859   5.965   1.875   3.190  2.0766  0.7284 -2.9587
 9790TIP3   OH250860   0.381   6.533   1.076 -0.2034 -0.2961 -0.8708
 9790TIP3    H150861   0.319   6.605   1.084  1.6943  1.2009  0.8137
 9790TIP3    H250862   0.458   6.571   1.033  1.6486 -0.7269  1.9368
 9791TIP3   OH250863   2.119   6.756  14.112  0.8205 -0.2811 -0.0912
 9791TIP3    H150864   2.052   6.776  14.046  0.7445  1.5488  0.4959
 9791TIP3    H250865   2.180   6.830  14.106  2.3974 -1.5609 -0.1005
 9792TIP3   OH250866   4.278   0.568   2.407 -0.1858 -0.3574  0.2164
 9792TIP3    H150867   4.219   0.639   2.380 -0.9534 -1.3926 -0.8838
 9792TIP3    H250868   4.220   0.494   2.423  0.5022 -0.4481  2.4400
 9793TIP3   OH250869   1.500   3.890  11.501  0.6658 -0.1868 -0.1270
 9793TIP3    H150870   1.522   3.980  11.478  0.3619 -0.6854 -2.4955
 9793TIP3    H250871   1.538   3.837  11.432  1.5689 -1.9831  1.6874
 9794TIP3   OH250872   5.140   5.510   0.123  0.3238  0.2106 -1.0459
 9794TIP3    H150873   5.135   5.587   0.179 -1.3403  0.1977 -1.1458
 9794TIP3    H250874   5.092   5.534   0.044 -2.3804 -1.7416 -0.0597
 9795TIP3   OH250875   1.876   1.283  13.577 -0.7119 -0.1645  0.2347
 9795TIP3    H150876   1.807   1.320  13.633 -1.8628  1.0669 -1.9081
 9795TIP3    H250877   1.828   1.232  13.511  0.6073 -1.4863  0.2686
 9796TIP3   OH250878   0.878   5.677   0.894 -0.1320 -0.7328  0.1097
 9796TIP3    H150879   0.960   5.629   0.905 -0.8424 -2.1888 -0.8084
 9796TIP3    H250880   0.852   5.659   0.804 -0.9277  0.5971  0.0560
 9797TIP3   OH250881   2.929   1.063  14.262  0.3018 -0.4490 -0.3109
 9797TIP3    H150882   3.021   1.035  14.265  0.5140  0.2682  0.1031
 9797TIP3    H250883   2.904   1.054  14.171  1.4595  1.4392 -0.8495
 9798TIP3   OH250884   2.667   4.683   3.275  0.4324 -0.1219  0.0047
 9798TIP3    H150885   2.657   4.671   3.181  1.0842 -0.1604 -0.0685
 9798TIP3    H250886   2.754   4.722   3.285 -0.5490  2.0200  0.4337
 9799TIP3   OH250887   6.349   5.546  15.867 -0.6505 -0.0628 -0.3182
 9799TIP3    H150888   6.362   5.497  15.786 -0.6700  0.0385 -0.3831
 9799TIP3    H250889   6.437   5.565  15.899 -0.6512 -1.7400  0.6977
 9800TIP3   OH250890   1.002   0.425   1.755 -0.4468  0.4349  0.2741
 9800TIP3    H150891   0.969   0.351   1.808  0.7481 -0.2979  0.0138
 9800TIP3    H250892   1.019   0.387   1.669  0.9763  0.8343  0.3792
 9801TIP3   OH250893   3.536   0.796  10.876  0.9336 -0.2803 -0.3761
 9801TIP3    H150894   3.622   0.829  10.903  1.0448  0.8809 -2.0744
 9801TIP3    H250895   3.548   0.772  10.784 -0.4866 -0.3571 -0.5467
 9802TIP3   OH250896   3.715   6.011  14.634 -0.2204 -0.1274 -0.6348
 9802TIP3    H150897   3.741   6.072  14.703 -0.0589 -0.3074 -0.5352
 9802TIP3    H250898   3.772   6.033  14.560 -1.3596  1.0040 -1.1887
 9803TIP3   OH250899   5.935   6.374  14.379 -0.3947  0.2682  0.2089
 9803TIP3    H150900   5.937   6.402  14.288 -1.1510  0.0422  0.1235
 9803TIP3    H250901   6.015   6.411  14.417  0.4221 -0.4343 -0.7775
 9804TIP3   OH250902   1.749   2.275  16.134  0.2013  0.3299 -0.6476
 9804TIP3    H150903   1.683   2.207  16.122 -1.0139  1.2176  0.8463
 9804TIP3    H250904   1.831   2.227  16.147 -0.8353 -0.9242  1.6223
 9805TIP3   OH250905   3.288   4.626   1.061  0.0809  0.0614  0.2407
 9805TIP3    H150906   3.249   4.571   0.994  0.3702  0.4277 -0.2411
 9805TIP3    H250907   3.244   4.710   1.052 -0.2354 -0.0368  0.8523
 9806TIP3   OH250908   1.482   5.800   3.795 -0.1923  0.3712 -0.4594
 9806TIP3    H150909   1.411   5.863   3.797 -0.8488 -0.3697  3.5045
 9806TIP3    H250910   1.561   5.853   3.780 -1.1998  1.5874 -1.5003
 9807TIP3   OH250911   6.614   3.044  12.234 -0.1513 -0.2262  0.5246
 9807TIP3    H150912   6.671   3.084  12.168 -2.0018  2.3244  0.3730
 9807TIP3    H250913   6.633   3.093  12.315 -2.4673  1.0383  0.3413
 9808TIP3   OH250914   4.297   0.785   2.956  0.2411  0.2585  0.2165
 9808TIP3    H150915   4.381   0.816   2.922  0.1029  0.9140  0.4808
 9808TIP3    H250916   4.239   0.861   2.951 -1.1279 -0.8887 -2.5304
 9809TIP3   OH250917   0.473   2.730  12.635  0.2035 -0.1164  0.0221
 9809TIP3    H150918   0.445   2.717  12.725  0.4713 -3.0758 -0.2671
 9809TIP3    H250919   0.435   2.814  12.609 -2.5435 -0.7458  1.8415
 9810TIP3   OH250920   0.147   1.877   6.449 -0.4234  0.7405 -0.0011
 9810TIP3    H150921   0.122   1.888   6.541  0.0751  0.3650  0.1836
 9810TIP3    H250922   0.166   1.784   6.441  0.0764  0.8726 -0.3475
 9811TIP3   OH250923   0.400   2.923   6.220  0.4296  0.3581  0.0146
 9811TIP3    H150924   0.481   2.903   6.267  0.6703  2.3558  0.4820
 9811TIP3    H250925   0.331   2.907   6.284  0.6515  1.4377  0.5375
 9812TIP3   OH250926   2.058   2.121   2.416 -0.4184 -0.2571  0.0980
 9812TIP3    H150927   2.035   2.187   2.351 -3.0298 -1.2742 -0.0812
 9812TIP3    H250928   2.120   2.164   2.474 -2.2491  2.4496  0.1339
 9813TIP3   OH250929   1.020   1.115   2.292  0.4108  0.1820 -0.4716
 9813TIP3    H150930   0.999   1.150   2.206  0.2749  1.0174 -0.1035
 9813TIP3    H250931   1.022   1.020   2.280  1.8110  0.3479 -1.7125
 9814TIP3   OH250932   1.593   4.730  14.708 -0.0553  0.2931  0.4598
 9814TIP3    H150933   1.521   4.750  14.768 -0.8755 -2.6354  0.5441
 9814TIP3    H250934   1.668   4.714  14.764 -0.7718 -2.2423  0.7586
 9815TIP3   OH250935   6.665   3.394  15.583  0.2232  0.3841 -0.2305
 9815TIP3    H150936   6.654   3.409  15.677  0.2382  1.3525 -0.3721
 9815TIP3    H250937   6.608   3.320  15.563  0.7560 -0.2711  0.6709
 9816TIP3   OH250938   6.082   3.493   5.433 -0.1102 -0.4514  0.1364
 9816TIP3    H150939   6.137   3.497   5.354 -0.6841 -0.0809 -0.2494
 9816TIP3    H250940   6.129   3.433   5.492  0.5703 -0.3489 -0.2924
 9817TIP3   OH250941   5.477   6.346  15.599 -0.1699 -0.4377  0.1819
 9817TIP3    H150942   5.417   6.416  15.623  2.0916  1.1571  1.2456
 9817TIP3    H250943   5.527   6.327  15.678  1.1993 -1.2932 -0.8470
 9818TIP3   OH250944   3.971   3.042   4.102 -0.5599  0.1320 -0.8949
 9818TIP3    H150945   4.037   3.108   4.121 -0.4357  0.5374 -2.7036
 9818TIP3    H250946   3.964   3.041   4.007 -2.0966 -0.9531 -0.7911
 9819TIP3   OH250947   1.277   5.778   6.578 -0.5330 -0.0306 -0.1021
 9819TIP3    H150948   1.370   5.755   6.577 -0.6116 -0.3697  0.4571
 9819TIP3    H250949   1.243   5.739   6.658 -0.5130  2.6311  1.2735
 9820TIP3   OH250950   1.915   1.581  11.182 -0.1284 -0.0525 -0.3556
 9820TIP3    H150951   1.853   1.551  11.115  0.0011  0.6231 -0.7847
 9820TIP3    H250952   1.884   1.540  11.263 -1.0501  0.1610 -0.5932
 9821TIP3   OH250953   5.952   0.793   4.871 -0.7954  0.2908  0.3409
 9821TIP3    H150954   5.919   0.882   4.882  0.6898  1.0723 -1.2632
 9821TIP3    H250955   6.036   0.792   4.918  0.3937  0.4990 -1.7264
 9822TIP3   OH250956   6.404   5.687  11.086 -0.1491 -0.3505 -0.5315
 9822TIP3    H150957   6.400   5.782  11.098 -4.2214 -0.4611 -0.4163
 9822TIP3    H250958   6.388   5.674  10.993  0.9155 -0.9306 -0.6414
 9823TIP3   OH250959   2.149   2.943  15.367 -0.6249 -0.0021  0.8999
 9823TIP3    H150960   2.125   2.960  15.458 -0.6705 -0.9559  1.0752
 9823TIP3    H250961   2.071   2.966  15.317 -0.4390  0.9705  1.0528
 9824TIP3   OH250962   0.081   6.115   3.621 -0.1013  0.1492 -0.3082
 9824TIP3    H150963   0.145   6.104   3.550 -1.0503 -1.7213 -0.9196
 9824TIP3    H250964   0.102   6.046   3.684 -2.4011 -1.5013 -1.2495
 9825TIP3   OH250965   3.414   0.409   5.893 -0.1237 -0.2830  0.3849
 9825TIP3    H150966   3.393   0.414   5.986 -1.6437  0.8590  0.0045
 9825TIP3    H250967   3.508   0.427   5.888 -0.2584  0.7838  1.5933
 9826TIP3   OH250968   6.551   4.010   3.297 -0.6257 -0.7217  0.2241
 9826TIP3    H150969   6.513   3.986   3.382  1.1682 -0.8849  1.0001
 9826TIP3    H250970   6.477   4.042   3.246 -1.4862  0.9179  2.4075
 9827TIP3   OH250971   6.538   1.992   0.243 -0.6114  0.5938 -0.3850
 9827TIP3    H150972   6.590   1.974   0.321  0.5568  0.5239 -1.1730
 9827TIP3    H250973   6.500   2.079   0.259 -1.1457  0.1730  0.6648
 9828TIP3   OH250974   3.463   4.347   5.081  0.1897  0.0350 -0.3174
 9828TIP3    H150975   3.552   4.318   5.097  0.3419 -0.9825 -2.7465
 9828TIP3    H250976   3.408   4.287   5.132  0.7800 -1.1171 -1.0084
 9829TIP3   OH250977   1.693   6.717   3.067  0.0060 -0.7410 -0.1658
 9829TIP3    H150978   1.601   6.736   3.047  0.9296  1.4350 -2.5798
 9829TIP3    H250979   1.705   6.744   3.158 -1.9064 -1.7775  0.4213
 9830TIP3   OH250980   5.002   5.045   4.671  0.2398  0.2100 -0.0680
 9830TIP3    H150981   4.919   5.009   4.639  1.0613 -1.5617 -0.2810
 9830TIP3    H250982   5.068   4.980   4.646  1.5639  1.1063  0.9727
 9831TIP3   OH250983   1.087   5.527   2.879  0.2634 -0.5025  0.3850
 9831TIP3    H150984   1.158   5.525   2.944 -0.3400 -1.6587  1.0367
 9831TIP3    H250985   1.036   5.448   2.898 -1.7246  0.7886  0.5096
 9832TIP3   OH250986   1.896   0.920   1.664  0.1527  0.5334 -0.1688
 9832TIP3    H150987   1.858   0.844   1.707 -1.1126 -0.3954 -2.9023
 9832TIP3    H250988   1.828   0.952   1.606  0.9858  3.2594  0.2757
 9833TIP3   OH250989   3.240   4.236   4.373 -0.0969 -0.1587 -0.2436
 9833TIP3    H150990   3.199   4.312   4.413 -0.0545 -0.6378  0.7191
 9833TIP3    H250991   3.334   4.256   4.375 -0.1889  0.4391 -1.4124
 9834TIP3   OH250992   1.488   3.688  14.857  0.5618 -0.4355 -0.0044
 9834TIP3    H150993   1.401   3.678  14.895  1.7023 -0.7704  2.6089
 9834TIP3    H250994   1.525   3.600  14.858  1.3170 -0.1275 -0.0865
 9835TIP3   OH250995   1.797   1.107  11.019 -0.7451 -0.4030 -0.2768
 9835TIP3    H150996   1.832   1.069  10.938  0.4707 -0.8652  0.4534
 9835TIP3    H250997   1.798   1.035  11.082  1.3662  0.7453  1.0665
 9836TIP3   OH250998   1.071   6.427  14.133 -0.1234 -0.4280 -0.1168
 9836TIP3    H150999   1.104   6.374  14.060  0.1211 -3.6233  2.1854
 9836TIP3    H251000   0.979   6.442  14.113  0.4728  0.6463 -2.1415
 9837TIP3   OH251001   4.413   1.770   0.454 -0.3160 -0.1904 -0.3199
 9837TIP3    H151002   4.328   1.760   0.498 -0.4290 -1.7336 -0.8626
 9837TIP3    H251003   4.475   1.783   0.525 -0.7651 -0.7736  0.1872
 9838TIP3   OH251004   5.840   1.506  13.143  0.2360 -0.2834  0.0992
 9838TIP3    H151005   5.820   1.415  13.165 -0.0359 -0.2971 -0.1949
 9838TIP3    H251006   5.756   1.544  13.119  0.2562  0.2095  0.7850
 9839TIP3   OH251007   1.919   0.588  12.288  0.0359 -0.0525 -0.1763
 9839TIP3    H151008   1.891   0.509  12.335 -1.5781  0.0841 -0.8742
 9839TIP3    H251009   1.900   0.659  12.349  0.4149 -0.1044  0.0031
 9840TIP3   OH251010   0.708   4.538   3.221  0.2519  0.0464 -0.4255
 9840TIP3    H151011   0.693   4.443   3.217 -1.3405  0.1948  1.4488
 9840TIP3    H251012   0.653   4.574   3.151 -2.3835 -0.1031  1.4742
 9841TIP3   OH251013   1.236   5.379   0.178 -0.4674 -0.8865  0.1378
 9841TIP3    H151014   1.201   5.327   0.105  0.7803  0.1192 -1.2038
 9841TIP3    H251015   1.317   5.416   0.144  0.2044 -0.5145  2.1049
 9842TIP3   OH251016   6.248   1.426  16.156  0.1526 -0.5285  0.3543
 9842TIP3    H151017   6.341   1.410  16.141  0.0453 -0.1153 -0.7994
 9842TIP3    H251018   6.202   1.369  16.094 -0.3027  1.0335 -0.7836
 9843TIP3   OH251019   2.707   5.901  11.916  0.6095  0.3154  0.2304
 9843TIP3    H151020   2.674   5.871  12.000  0.8377 -2.6481 -0.6473
 9843TIP3    H251021   2.801   5.884  11.920  1.0719  2.7709  0.3862
 9844TIP3   OH251022   0.372   2.726   1.566  0.1984 -0.1459 -0.3248
 9844TIP3    H151023   0.290   2.743   1.520  1.6500  0.5354 -2.7658
 9844TIP3    H251024   0.422   2.807   1.557  1.8638 -1.1640 -0.5173
 9845TIP3   OH251025   3.300   2.139   2.753  0.3905  0.6668  0.0312
 9845TIP3    H151026   3.393   2.145   2.772  0.9308  0.7661 -2.4353
 9845TIP3    H251027   3.278   2.047   2.766  0.9335  0.5501  0.1337
 9846TIP3   OH251028   1.628   2.893   0.261  0.0763 -0.0357 -0.5145
 9846TIP3    H151029   1.602   2.978   0.225 -0.0623  0.3569  0.4927
 9846TIP3    H251030   1.697   2.863   0.203 -0.3699  0.4321 -1.3013
 9847TIP3   OH251031   3.119   5.180   5.081 -0.3237 -0.1315  0.5224
 9847TIP3    H151032   3.160   5.245   5.139 -0.8687  0.2300  0.5063
 9847TIP3    H251033   3.188   5.156   5.019 -0.6082  1.7023 -0.5404
 9848TIP3   OH251034   3.682   1.165  12.013  0.2939 -0.4776 -0.4247
 9848TIP3    H151035   3.604   1.193  11.965  1.2914  1.3252 -1.0536
 9848TIP3    H251036   3.709   1.084  11.970  0.9664  0.9255 -2.7399
 9849TIP3   OH251037   2.106   4.034   2.582 -0.4015 -0.1560 -0.4149
 9849TIP3    H151038   2.187   3.987   2.564  0.4299  1.4601 -0.9692
 9849TIP3    H251039   2.065   3.985   2.653  1.5430 -0.4462  0.5414
 9850TIP3   OH251040   3.988   2.329  14.779  0.0411 -0.0621  0.1550
 9850TIP3    H151041   4.049   2.380  14.832  0.0461 -0.7359  0.8047
 9850TIP3    H251042   3.994   2.240  14.814 -0.9208 -0.2443 -0.1230
 9851TIP3   OH251043   2.366   4.136   0.275 -0.1223 -0.2501 -0.0674
 9851TIP3    H151044   2.410   4.155   0.358  0.3929  0.4369 -0.4867
 9851TIP3    H251045   2.409   4.194   0.212 -0.7279 -0.5365 -0.7490
 9852TIP3   OH251046   4.445   3.613  14.161  0.4174 -0.0830 -0.3965
 9852TIP3    H151047   4.526   3.586  14.117  1.2627  0.8146  0.5624
 9852TIP3    H251048   4.378   3.609  14.093  1.9131  2.3534 -2.0858
 9853TIP3   OH251049   5.028   2.838   0.082 -0.3068 -0.6371  0.2849
 9853TIP3    H151050   5.102   2.787   0.116  1.0569  1.5479  0.7204
 9853TIP3    H251051   5.026   2.916   0.138 -1.5499  0.3855 -1.1666
 9854TIP3   OH251052   1.763   4.108  16.230  0.1784 -0.4614  0.2002
 9854TIP3    H151053   1.809   4.192  16.237  1.0802 -0.9556  0.2790
 9854TIP3    H251054   1.695   4.113  16.297 -0.1471  0.4428 -0.1874
 9855TIP3   OH251055   0.834   1.104   0.709 -0.0464  0.5645  0.1386
 9855TIP3    H151056   0.776   1.131   0.781  1.5366  1.4324  1.1406
 9855TIP3    H251057   0.890   1.037   0.748  1.0121  1.2456 -0.1996
 9856TIP3   OH251058   1.049   2.444  13.213  0.0603  0.1604  0.4795
 9856TIP3    H151059   1.047   2.368  13.156  0.9645 -0.7314  1.6255
 9856TIP3    H251060   1.105   2.507  13.167 -0.1374 -0.1154 -0.1472
 9857TIP3   OH251061   2.021   1.238   1.157 -0.4757  0.0470 -0.1816
 9857TIP3    H151062   2.067   1.302   1.101 -0.5658 -0.4302 -0.8065
 9857TIP3    H251063   1.992   1.289   1.232 -0.4547  0.7326 -0.6306
 9858TIP3   OH251064   1.711   2.058   5.171 -0.7502 -0.2094  0.1223
 9858TIP3    H151065   1.700   2.006   5.250  0.3485 -1.8445 -0.7636
 9858TIP3    H251066   1.651   2.018   5.108  0.2687 -0.5784 -0.6309
 9859TIP3   OH251067   6.678   2.687  17.157  0.1219  0.4913 -0.0640
 9859TIP3    H151068   6.736   2.655  17.226  1.2415  1.8418 -0.3551
 9859TIP3    H251069   6.706   2.777  17.142 -1.4935  0.8881 -0.8284
 9860TIP3   OH251070   2.795   3.965  16.703  0.5012 -0.0899 -0.3787
 9860TIP3    H151071   2.802   4.023  16.628 -2.3674  0.3644 -0.3615
 9860TIP3    H251072   2.776   4.022  16.777  0.8659 -0.7477  0.2306
 9861TIP3   OH251073   3.172   2.088   4.883  0.4188  0.2351  0.9946
 9861TIP3    H151074   3.234   2.148   4.840 -0.8768  1.6537  1.0901
 9861TIP3    H251075   3.086   2.128   4.870 -0.3899 -1.2421  1.6845
 9862TIP3   OH251076   6.019   0.210  16.889 -0.2217  0.3917 -0.5339
 9862TIP3    H151077   5.930   0.190  16.917 -0.7823  2.0159 -1.0642
 9862TIP3    H251078   6.010   0.293  16.841  1.4453  0.1363 -1.3033
 9863TIP3   OH251079   6.018   2.757  16.498 -0.0280 -0.5775 -0.5589
 9863TIP3    H151080   6.096   2.702  16.511 -0.5351 -1.1926 -0.1096
 9863TIP3    H251081   6.025   2.825  16.564 -0.0255 -0.8115 -0.3170
 9864TIP3   OH251082   3.267   6.493   2.140 -0.4079 -0.1084 -0.4249
 9864TIP3    H151083   3.240   6.410   2.179 -1.1071  0.2793 -0.0800
 9864TIP3    H251084   3.202   6.511   2.073  0.5173 -0.5231 -1.4409
 9865TIP3   OH251085   1.736   5.720  12.651 -0.1061  0.1747 -0.0059
 9865TIP3    H151086   1.732   5.775  12.573 -0.2697 -1.2575 -1.0219
 9865TIP3    H251087   1.650   5.729  12.692 -0.2133  0.4878 -0.3037
 9866TIP3   OH251088   4.898   2.899  15.787  1.1168  0.1242  0.1023
 9866TIP3    H151089   4.964   2.845  15.742  2.1480  0.6296  0.9801
 9866TIP3    H251090   4.854   2.838  15.847  1.1628 -0.0949 -0.0875
 9867TIP3   OH251091   0.120   3.174  16.397 -0.1466  0.0916 -0.1548
 9867TIP3    H151092   0.186   3.118  16.358  0.3655 -0.0783  0.9299
 9867TIP3    H251093   0.128   3.158  16.491 -0.3028  1.6390  0.1294
 9868TIP3   OH251094   1.879   6.695   1.608  0.2186 -0.5692  0.6892
 9868TIP3    H151095   1.826   6.678   1.530  2.0206 -0.9968 -0.4688
 9868TIP3    H251096   1.868   6.617   1.662  0.8449 -1.3095 -0.2399
 9869TIP3   OH251097   3.296   3.773   5.056  0.0849 -0.2973 -0.2882
 9869TIP3    H151098   3.340   3.688   5.056  0.3475 -0.1859 -2.4683
 9869TIP3    H251099   3.246   3.774   5.138  2.1812 -1.4343  1.0732
 9870TIP3   OH251100   3.072   4.863   2.415  1.2094 -0.7283  0.1104
 9870TIP3    H151101   3.107   4.827   2.334 -0.8232 -0.0687 -1.1062
 9870TIP3    H251102   3.102   4.954   2.415 -0.6306 -0.0792 -1.0787
 9871TIP3   OH251103   5.154   5.590   1.688 -0.0281 -0.5621  0.4969
 9871TIP3    H151104   5.150   5.538   1.768 -2.1223 -0.5139  0.4446
 9871TIP3    H251105   5.158   5.681   1.718  1.2490 -0.6327  0.5589
 9872TIP3   OH251106   3.694   0.761  11.556  0.1075  0.2208 -0.0571
 9872TIP3    H151107   3.641   0.841  11.548  1.3762  1.0241 -0.5521
 9872TIP3    H251108   3.677   0.714  11.475  1.5148  1.3422 -1.0375
 9873TIP3   OH251109   6.090   2.236   2.065 -0.2823 -0.2603 -0.2356
 9873TIP3    H151110   6.152   2.188   2.011  1.5383 -0.9818  2.4296
 9873TIP3    H251111   6.047   2.169   2.118 -1.0953  0.5831  0.1885
 9874TIP3   OH251112   2.897   1.138   1.900  0.1371  0.0825 -0.0426
 9874TIP3    H151113   2.990   1.140   1.879 -0.1548 -0.0324 -1.3766
 9874TIP3    H251114   2.859   1.077   1.837 -0.9681  0.7203 -0.0122
 9875TIP3   OH251115   5.283   0.808  16.233 -0.0891 -0.5034 -0.9015
 9875TIP3    H151116   5.283   0.735  16.295  1.1069  1.5976  1.6759
 9875TIP3    H251117   5.372   0.844  16.239 -0.2374  0.3250 -3.1883
 9876TIP3   OH251118   0.048   6.540   1.351  0.2551 -0.1433 -0.0461
 9876TIP3    H151119   0.124   6.598   1.346  0.2936 -0.2768 -1.0455
 9876TIP3    H251120   0.052   6.504   1.440 -0.2565  2.0416  0.9029
 9877TIP3   OH251121   4.651   0.704  16.168 -0.7297  0.4650 -0.2372
 9877TIP3    H151122   4.720   0.762  16.137  0.4634  0.0231  1.5012
 9877TIP3    H251123   4.608   0.673  16.088  0.1828  1.8197 -1.2753
 9878TIP3   OH251124   1.114   0.561  10.418 -0.7964  0.2450 -0.1720
 9878TIP3    H151125   1.039   0.553  10.359 -0.6783  1.6798 -0.5452
 9878TIP3    H251126   1.178   0.613  10.369  0.2099 -0.4620  0.3706
 9879TIP3   OH251127   0.082   4.499  11.731  0.3981  0.5130  0.3564
 9879TIP3    H151128   0.086   4.553  11.652 -1.2676 -1.5791 -1.2142
 9879TIP3    H251129   0.172   4.501  11.765  1.6333 -0.0318 -2.6450
 9880TIP3   OH251130   3.134   2.696   5.523  0.1697  0.8723 -0.3441
 9880TIP3    H151131   3.068   2.674   5.588 -1.7340  0.5946 -2.3046
 9880TIP3    H251132   3.206   2.636   5.540 -0.6812  0.1943  0.9146
 9881TIP3   OH251133   2.151   5.464   1.843  0.6171  0.4625  0.3378
 9881TIP3    H151134   2.238   5.478   1.807  0.1000  1.4837 -0.5466
 9881TIP3    H251135   2.092   5.507   1.782 -0.5809 -0.7913  0.5663
 9882TIP3   OH251136   0.890   4.745   3.301  0.8134 -0.2634 -0.1220
 9882TIP3    H151137   0.863   4.805   3.231  0.5269  0.9034  0.9585
 9882TIP3    H251138   0.824   4.676   3.301  0.2588  0.2661 -0.3403
 9883TIP3   OH251139   1.556   4.472   6.511 -0.0266  0.6978 -0.2864
 9883TIP3    H151140   1.525   4.402   6.568  0.5127 -0.4658 -1.3808
 9883TIP3    H251141   1.537   4.553   6.558 -0.0294 -0.2200  1.3109
 9884TIP3   OH251142   3.166   0.683  11.535  0.2620  0.4253 -0.5884
 9884TIP3    H151143   3.205   0.700  11.449  0.1792 -0.7901 -0.8630
 9884TIP3    H251144   3.175   0.589  11.548  0.2118  0.5938  0.7132
 9885TIP3   OH251145   2.931   3.704  16.713 -0.2619 -0.0111 -0.4688
 9885TIP3    H151146   2.999   3.749  16.663  0.1007 -0.1209 -0.0709
 9885TIP3    H251147   2.877   3.774  16.750  0.7144  0.1121  0.7296
 9886TIP3   OH251148   6.703   4.792  15.592  0.4795 -0.4918  0.2857
 9886TIP3    H151149   6.692   4.825  15.503  2.8680  2.2866  0.9402
 9886TIP3    H251150   6.625   4.824  15.639  0.3822  0.0655 -0.2549
 9887TIP3   OH251151   5.482   6.636  11.442 -0.2386 -0.2197  0.0716
 9887TIP3    H151152   5.502   6.652  11.534 -2.3392  1.1062  0.3150
 9887TIP3    H251153   5.476   6.541  11.435 -2.0899 -0.2494  1.7471
 9888TIP3   OH251154   6.397   6.106   0.048 -0.1018  0.0475 -0.0284
 9888TIP3    H151155   6.422   6.044  -0.021  1.4870  1.0063 -0.3507
 9888TIP3    H251156   6.462   6.093   0.117 -1.0869 -0.1991  0.8609
 9889TIP3   OH251157   2.409   3.060   3.887 -0.7893  0.1928  0.7270
 9889TIP3    H151158   2.317   3.066   3.861 -0.5017  0.8773 -0.1574
 9889TIP3    H251159   2.445   3.147   3.868  0.2466 -0.3331  0.2720
 9890TIP3   OH251160   3.626   1.014  15.670  0.0907  0.4902 -0.0574
 9890TIP3    H151161   3.689   1.085  15.680 -0.6951  1.0093  1.3268
 9890TIP3    H251162   3.543   1.057  15.648 -0.1413 -0.0710 -0.3134
 9891TIP3   OH251163   6.453   6.718   2.412 -0.0468  0.3737 -0.3834
 9891TIP3    H151164   6.487   6.727   2.323  1.3185 -2.4114 -0.1966
 9891TIP3    H251165   6.531   6.710   2.467 -0.9112 -0.9314  0.6901
 9892TIP3   OH251166   4.121   3.083  12.548  0.0558 -0.3543  0.0828
 9892TIP3    H151167   4.095   2.998  12.585  0.2336 -0.8081 -0.8138
 9892TIP3    H251168   4.205   3.066  12.506 -0.5240 -0.0488 -1.2294
 9893TIP3   OH251169   3.669   6.483   0.079  0.2400  0.0760  0.1752
 9893TIP3    H151170   3.595   6.480   0.019 -0.0026 -0.3123  0.4914
 9893TIP3    H251171   3.733   6.422   0.043 -0.5236 -1.3065  1.1158
 9894TIP3   OH251172   0.927   2.752  14.677  0.3151  0.3162  0.0769
 9894TIP3    H151173   0.925   2.689  14.749 -0.5985  0.3040  0.0398
 9894TIP3    H251174   1.007   2.730  14.628 -1.1322 -2.2163 -1.2123
 9895TIP3   OH251175   5.047   2.835  15.008  0.1200  0.0378  0.4116
 9895TIP3    H151176   4.953   2.850  15.020  0.2981  0.4245  1.3800
 9895TIP3    H251177   5.059   2.741  15.027  0.2659  0.4617  2.5918
 9896TIP3   OH251178   5.833   2.792   2.435 -0.0939 -0.2469 -0.0566
 9896TIP3    H151179   5.845   2.789   2.340 -1.6451  0.6263 -0.2828
 9896TIP3    H251180   5.899   2.854   2.466  0.4125 -0.5309 -0.5459
 9897TIP3   OH251181   0.847   0.701  13.281  0.0533 -0.5140  0.1634
 9897TIP3    H151182   0.844   0.702  13.185  2.0374  0.5652  0.0867
 9897TIP3    H251183   0.888   0.784  13.305  1.7213 -1.7834  1.8406
 9898TIP3   OH251184   4.642   1.958  11.951 -0.5119  0.5833  0.3096
 9898TIP3    H151185   4.570   1.897  11.931  0.4352  0.3185 -2.6708
 9898TIP3    H251186   4.714   1.901  11.978  0.3008  0.3063 -2.2529
 9899TIP3   OH251187   2.433   2.110  12.651 -0.6977  0.3390  0.2084
 9899TIP3    H151188   2.461   2.168  12.580 -2.1909  1.4953  0.5393
 9899TIP3    H251189   2.472   2.148  12.730 -0.5630  0.1176  0.2481
 9900TIP3   OH251190   6.288   4.622   2.935 -0.1542 -0.3343 -0.5758
 9900TIP3    H151191   6.333   4.685   2.992  1.0187 -0.8383 -0.9300
 9900TIP3    H251192   6.201   4.660   2.922 -1.0507 -1.0453  2.9129
 9901TIP3   OH251193   3.592   2.762   4.080  0.3824 -0.1235 -0.0096
 9901TIP3    H151194   3.686   2.773   4.066  0.9459 -0.1219  3.4725
 9901TIP3    H251195   3.582   2.669   4.098  0.1026  0.3243  2.2192
 9902TIP3   OH251196   4.391   2.346   4.189 -0.2514  0.4010 -0.4185
 9902TIP3    H151197   4.435   2.261   4.187 -0.9109  0.0900 -1.8623
 9902TIP3    H251198   4.359   2.353   4.279  1.9650  0.2527  0.4218
 9903TIP3   OH251199   1.894   6.250   0.401 -0.4377 -0.4333 -0.0973
 9903TIP3    H151200   1.866   6.159   0.402 -1.4044 -0.1321 -0.0218
 9903TIP3    H251201   1.927   6.264   0.312  1.5255 -1.4014  0.4550
 9904TIP3   OH251202   0.428   4.310   1.615 -0.6780  0.2301  0.5051
 9904TIP3    H151203   0.483   4.367   1.561 -0.1234 -1.1910 -0.4825
 9904TIP3    H251204   0.345   4.305   1.568 -0.6459  0.0551  0.4642
 9905TIP3   OH251205   2.762   5.223  13.106  0.4449  0.1030 -0.0145
 9905TIP3    H151206   2.746   5.284  13.179 -1.8900  0.1007 -0.4743
 9905TIP3    H251207   2.817   5.273  13.045  2.1159  0.2294  1.5725
 9906TIP3   OH251208   4.568   3.450  16.857  0.6129 -0.2330  0.0131
 9906TIP3    H151209   4.653   3.432  16.817  1.0250 -0.6081  1.0414
 9906TIP3    H251210   4.505   3.406  16.799  1.0910  0.2255 -0.8641
 9907TIP3   OH251211   5.945   6.317  13.277  0.4866  0.3739 -0.2894
 9907TIP3    H151212   5.914   6.279  13.359  1.7069  0.9746  0.4572
 9907TIP3    H251213   5.989   6.245  13.232  0.1649  0.1417 -0.2298
 9908TIP3   OH251214   0.787   4.888  13.129  0.1615  0.6642  0.5149
 9908TIP3    H151215   0.871   4.927  13.103 -0.1212  0.6081 -0.4859
 9908TIP3    H251216   0.721   4.948  13.094 -0.2334  0.2937  0.6215
 9909TIP3   OH251217   3.484   3.952  10.924 -0.1934  0.0311 -0.5569
 9909TIP3    H151218   3.461   3.891  10.854  1.6519 -0.4973 -0.7146
 9909TIP3    H251219   3.545   3.903  10.980 -2.4351  0.0809  2.0216
 9910TIP3   OH251220   0.434   4.682  15.739  0.0666 -0.0646  0.5370
 9910TIP3    H151221   0.525   4.709  15.724  0.2969 -1.8525 -1.6848
 9910TIP3    H251222   0.441   4.605  15.796  0.0505 -0.8699 -0.5278
 9911TIP3   OH251223   5.358   3.928   2.392  0.1934 -0.4763 -0.1172
 9911TIP3    H151224   5.276   3.947   2.436  0.3172 -1.3410  0.4861
 9911TIP3    H251225   5.333   3.908   2.302 -0.0755  1.1125 -0.4148
 9912TIP3   OH251226   1.661   0.689   2.288  0.7464  0.1650  0.2331
 9912TIP3    H151227   1.687   0.715   2.377  2.1732 -0.2971 -0.0418
 9912TIP3    H251228   1.633   0.598   2.298  1.6697 -0.1387  0.0660
 9913TIP3   OH251229   1.109   6.575   6.219 -0.2723  0.0131  0.2454
 9913TIP3    H151230   1.131   6.543   6.131 -2.6387 -0.8798 -0.0649
 9913TIP3    H251231   1.015   6.596   6.214 -0.1181  1.2907  2.1741
 9914TIP3   OH251232   1.066   0.063  16.963 -0.0112 -0.1320 -0.5829
 9914TIP3    H151233   0.998   0.093  16.903 -0.6704 -4.1169 -2.0314
 9914TIP3    H251234   1.038   0.093  17.049 -1.1969  2.1493 -1.7203
 9915TIP3   OH251235   4.248   4.103  11.335  0.0277 -0.1557 -0.0741
 9915TIP3    H151236   4.217   4.097  11.425 -1.2149  0.4281 -0.4470
 9915TIP3    H251237   4.294   4.187  11.331 -0.5210  0.1433 -0.1572
 9916TIP3   OH251238   0.747   6.123  11.796  0.3462  0.0238  0.7910
 9916TIP3    H151239   0.798   6.112  11.716  0.1677 -2.1929  0.9616
 9916TIP3    H251240   0.783   6.059  11.857 -0.6094  0.5588  1.9504
 9917TIP3   OH251241   5.276   4.606  10.254 -0.1063  0.4748  0.0499
 9917TIP3    H151242   5.285   4.513  10.236 -1.9939  0.7651 -2.5673
 9917TIP3    H251243   5.209   4.611  10.322  0.0158 -0.0793  0.2110
 9918TIP3   OH251244   1.242   1.311   4.388 -0.7161  0.0669  0.2075
 9918TIP3    H151245   1.246   1.401   4.357  1.1527  0.2869  1.0400
 9918TIP3    H251246   1.152   1.283   4.369 -1.1745  1.9400 -0.4658
 9919TIP3   OH251247   4.300   4.360  16.095  0.4325  0.2076  0.5965
 9919TIP3    H151248   4.296   4.289  16.159 -2.0179 -0.4385 -0.1990
 9919TIP3    H251249   4.357   4.327  16.026  0.8369 -0.2086  1.1228
 9920TIP3   OH251250   6.509   2.422  13.087  1.3643  0.3597  0.2501
 9920TIP3    H151251   6.483   2.338  13.049  1.8433  0.4140 -0.1998
 9920TIP3    H251252   6.567   2.398  13.159 -0.0292  0.2337  1.3444
 9921TIP3   OH251253   4.904   0.070  12.643 -0.0255 -0.2967 -0.2825
 9921TIP3    H151254   4.979   0.029  12.599 -0.3485  0.3575 -1.4573
 9921TIP3    H251255   4.937   0.156  12.671 -0.7425  0.5965 -2.1037
 9922TIP3   OH251256   1.932   4.244   5.470  0.4013  0.4266  0.3096
 9922TIP3    H151257   1.880   4.164   5.479  0.7498  0.3381  1.6942
 9922TIP3    H251258   1.867   4.312   5.452  0.1849 -0.2961 -1.7219
 9923TIP3   OH251259   2.506   0.423   4.977 -0.3632 -0.2549  0.1256
 9923TIP3    H151260   2.554   0.443   5.057  0.1725  1.5599 -0.6256
 9923TIP3    H251261   2.466   0.506   4.951 -1.0316 -0.9617 -1.1543
 9924TIP3   OH251262   1.990   0.340   0.147  0.3762 -0.0995 -0.5511
 9924TIP3    H151263   2.047   0.279   0.100  1.1497  0.6097 -0.5367
 9924TIP3    H251264   1.912   0.289   0.166  0.7169 -0.8747 -1.1884
 9925TIP3   OH251265   6.781   1.677  13.788  0.1275 -0.0559  0.4589
 9925TIP3    H151266   6.759   1.596  13.833  2.3195 -1.0770 -0.2483
 9925TIP3    H251267   6.851   1.716  13.842 -1.3155  1.6967  1.1330
 9926TIP3   OH251268   3.938   4.057  14.102 -0.8217 -0.8438 -0.4779
 9926TIP3    H151269   4.029   4.075  14.126 -0.4126  1.1625 -3.3362
 9926TIP3    H251270   3.913   3.983  14.158  2.1732 -0.6985  1.1699
 9927TIP3   OH251271   5.313   0.709   2.974  0.0589  0.5572  0.4029
 9927TIP3    H151272   5.272   0.795   2.976 -0.2723  0.4555 -1.3576
 9927TIP3    H251273   5.253   0.652   3.022  0.2958  1.3001  1.6004
 9928TIP3   OH251274   4.990   0.684  12.826  0.2120 -0.5905  0.1489
 9928TIP3    H151275   4.999   0.648  12.914  2.1182 -0.7186 -0.0778
 9928TIP3    H251276   4.974   0.777  12.839  1.8668 -0.3624  0.6189
 9929TIP3   OH251277   3.953   3.322  11.206 -0.4528 -0.3481  0.0034
 9929TIP3    H151278   3.967   3.410  11.172  2.4804 -0.2526  1.3012
 9929TIP3    H251279   3.898   3.279  11.140  1.3197  1.2403 -2.6054
 9930TIP3   OH251280   0.427   3.852   2.523 -0.2563  0.4021  0.1253
 9930TIP3    H151281   0.392   3.934   2.488  2.8498  0.9893 -1.8502
 9930TIP3    H251282   0.419   3.790   2.450  1.6774  0.2722 -0.0194
 9931TIP3   OH251283   5.218   1.418   2.653 -0.5132 -0.1561 -0.0352
 9931TIP3    H151284   5.311   1.427   2.676 -0.4453  1.0801 -0.7457
 9931TIP3    H251285   5.215   1.341   2.597  0.5582  1.4599 -2.3932
 9932TIP3   OH251286   4.802   2.869  11.021 -0.3967 -0.6352  0.1040
 9932TIP3    H151287   4.813   2.957  11.057  0.6502 -0.5047 -0.4941
 9932TIP3    H251288   4.892   2.841  11.000 -0.8777 -1.1902 -1.2453
 9933TIP3   OH251289   1.013   6.586  11.306  0.1361  0.0601 -0.0840
 9933TIP3    H151290   1.024   6.679  11.287  0.0293  0.1758  0.4111
 9933TIP3    H251291   1.097   6.559  11.343  0.0497  0.0409  0.0970
 9934TIP3   OH251292   6.242   5.662   3.563  0.5819 -0.3592  0.0904
 9934TIP3    H151293   6.263   5.706   3.646 -0.2324  0.0071  0.1111
 9934TIP3    H251294   6.149   5.680   3.550  1.0446  0.8794 -1.6854
 9935TIP3   OH251295   4.950   2.215   0.292  0.2387 -0.0265  0.0105
 9935TIP3    H151296   5.007   2.282   0.253 -0.9239  1.3294  0.6086
 9935TIP3    H251297   4.930   2.249   0.379 -2.8161  0.3334 -0.7860
 9936TIP3   OH251298   3.336   0.185  13.487 -0.1355 -0.5150  0.1112
 9936TIP3    H151299   3.347   0.254  13.421 -1.3618 -1.8243 -1.5024
 9936TIP3    H251300   3.287   0.228  13.558 -0.2422  0.4619 -0.5365
 9937TIP3   OH251301   1.704   4.608   1.073 -0.0732 -0.3169  0.3236
 9937TIP3    H151302   1.630   4.579   1.126 -1.7374 -0.1865 -1.8821
 9937TIP3    H251303   1.678   4.693   1.038  1.3123 -0.0458 -0.0978
 9938TIP3   OH251304   3.864   0.297  13.283  0.0133 -0.1027 -0.1526
 9938TIP3    H151305   3.861   0.242  13.205  0.4153 -0.0870 -0.1812
 9938TIP3    H251306   3.831   0.242  13.354 -1.0124  0.1024 -0.4594
 9939TIP3   OH251307   2.370   4.468   5.037 -0.0758  0.5470 -0.2240
 9939TIP3    H151308   2.412   4.484   4.952 -1.5887  1.1615 -0.8848
 9939TIP3    H251309   2.426   4.512   5.100  1.4120 -0.4528 -0.8209
 9940TIP3   OH251310   3.970   4.803  12.404  0.3883 -0.8461 -0.3685
 9940TIP3    H151311   4.045   4.812  12.345  0.6181 -2.3947 -0.3351
 9940TIP3    H251312   3.911   4.743  12.358 -0.2661 -0.6198  0.1722
 9941TIP3   OH251313   1.687   5.600   1.718 -0.0538  0.0167 -0.7732
 9941TIP3    H151314   1.667   5.534   1.784 -0.5344 -0.5063 -1.4281
 9941TIP3    H251315   1.617   5.665   1.728  0.5746  0.5656  0.0538
 9942TIP3   OH251316   2.837   3.159  11.953  0.0832  0.3579 -1.0870
 9942TIP3    H151317   2.771   3.226  11.935  0.3925  1.7830  2.6389
 9942TIP3    H251318   2.921   3.206  11.948  0.2511  0.5515  2.4047
 9943TIP3   OH251319   6.172   2.992   0.929 -0.5156 -0.3414  0.0886
 9943TIP3    H151320   6.118   2.939   0.870 -0.3423  0.1126 -0.4890
 9943TIP3    H251321   6.208   3.061   0.873 -0.6543  0.3275  0.8107
 9944TIP3   OH251322   1.134   1.815   2.116  0.5682 -0.3423  0.6092
 9944TIP3    H151323   1.129   1.791   2.208  0.5284  0.4266  0.8091
 9944TIP3    H251324   1.044   1.816   2.086  0.5464 -0.1095  0.6848
 9945TIP3   OH251325   1.533   4.752   6.273 -0.3064 -0.4162  0.4445
 9945TIP3    H151326   1.554   4.741   6.180 -1.4553  1.9256 -0.1187
 9945TIP3    H251327   1.619   4.755   6.316  0.2283 -2.9902 -0.2986
 9946TIP3   OH251328   5.061   5.371  16.778  0.0173 -0.6131  0.2007
 9946TIP3    H151329   5.120   5.400  16.708 -1.1023 -2.4317 -1.5593
 9946TIP3    H251330   5.117   5.362  16.855  0.7956  3.9993  0.2857
 9947TIP3   OH251331   2.709   3.839   0.764 -0.2617 -0.1185 -0.0146
 9947TIP3    H151332   2.760   3.916   0.791 -0.6267 -0.5632  1.9964
 9947TIP3    H251333   2.636   3.875   0.714  1.5087  0.5861 -2.1512
 9948TIP3   OH251334   1.577   0.846  14.213  0.1358 -0.3740 -0.3875
 9948TIP3    H151335   1.499   0.900  14.229  0.5335  0.0685  0.0567
 9948TIP3    H251336   1.650   0.899  14.245  0.7232 -0.3717 -1.6827
 9949TIP3   OH251337   3.167   1.601   0.801  0.4867 -0.2466 -0.2703
 9949TIP3    H151338   3.153   1.694   0.783 -0.3064 -0.5739 -1.4425
 9949TIP3    H251339   3.197   1.598   0.892  1.6494  1.2431 -0.5763
 9950TIP3   OH251340   2.976   4.821   3.290 -0.2931  0.0632  0.5133
 9950TIP3    H151341   2.985   4.897   3.233 -0.2259 -0.0815  0.3278
 9950TIP3    H251342   3.030   4.753   3.248 -0.3142 -0.0718  0.7012
 9951TIP3   OH251343   4.141   5.577  10.705 -0.0978 -0.2448  0.0662
 9951TIP3    H151344   4.171   5.489  10.684  0.6249 -0.6429  2.5811
 9951TIP3    H251345   4.220   5.630  10.706 -0.4349  0.2803 -0.6954
 9952TIP3   OH251346   5.077   4.898  11.009  0.0943 -0.1223 -0.1380
 9952TIP3    H151347   5.103   4.811  11.039  0.6419  0.0660 -0.0802
 9952TIP3    H251348   5.068   4.889  10.914  0.9393 -0.0365 -0.2292
 9953TIP3   OH251349   0.939   3.893   2.153  0.0600 -0.2760 -0.3492
 9953TIP3    H151350   0.915   3.841   2.076 -0.9092 -0.2279 -0.0894
 9953TIP3    H251351   0.980   3.830   2.212 -1.3251 -0.8041  0.0611
 9954TIP3   OH251352   2.311   4.612  11.653 -0.1833 -0.3880 -0.1819
 9954TIP3    H151353   2.304   4.699  11.693 -0.1073 -0.4635 -0.0049
 9954TIP3    H251354   2.255   4.617  11.575 -1.1218 -0.5571  0.4687
 9955TIP3   OH251355   6.401   3.376   3.559 -0.0615 -0.4099  0.4675
 9955TIP3    H151356   6.307   3.387   3.568  0.0238  3.0246 -1.8728
 9955TIP3    H251357   6.436   3.399   3.645 -1.3190 -1.6590  1.3270
 9956TIP3   OH251358   6.612   5.860  10.824  0.5805 -0.5734  0.5729
 9956TIP3    H151359   6.596   5.929  10.889  0.1964  0.7681 -0.8858
 9956TIP3    H251360   6.528   5.815  10.817  0.5958 -0.6615  0.9354
 9957TIP3   OH251361   4.571   0.331  13.167 -0.2642  0.1486 -0.0040
 9957TIP3    H151362   4.574   0.235  13.171 -0.7629  0.1310 -0.0138
 9957TIP3    H251363   4.483   0.353  13.197 -0.3905  0.5659 -0.6747
 9958TIP3   OH251364   0.326   3.235   0.350  0.2820 -0.2235 -0.2558
 9958TIP3    H151365   0.361   3.279   0.272 -2.9878  2.4863 -0.3027
 9958TIP3    H251366   0.297   3.150   0.318  1.1796 -0.0882 -1.4719
 9959TIP3   OH251367   0.402   4.029  11.618 -0.3599 -0.1254 -0.7512
 9959TIP3    H151368   0.353   4.079  11.553  0.5220  1.7212 -0.0194
 9959TIP3    H251369   0.402   4.084  11.697  0.7174 -1.2122  0.0349
 9960TIP3   OH251370   3.564   1.021   4.160 -0.2052 -0.3744  0.6805
 9960TIP3    H151371   3.644   1.073   4.148 -0.5911  0.0977  0.1558
 9960TIP3    H251372   3.528   1.011   4.072  0.9153 -3.2333  0.5012
 9961TIP3   OH251373   1.769   1.080  14.133 -0.1240  0.0406 -0.0880
 9961TIP3    H151374   1.803   1.167  14.116  0.4801  0.0202  0.9575
 9961TIP3    H251375   1.721   1.057  14.054 -0.0985  1.2262 -0.4585
 9962TIP3   OH251376   6.423   6.749  16.868 -0.0791  0.5663 -0.3590
 9962TIP3    H151377   6.476   6.681  16.826  1.7565  1.9836 -0.3933
 9962TIP3    H251378   6.375   6.790  16.795  2.3829  2.3912 -1.0170
 9963TIP3   OH251379   0.762   0.241   0.871  0.6257 -0.5390  0.2287
 9963TIP3    H151380   0.769   0.147   0.891 -1.4130 -0.6228  0.6345
 9963TIP3    H251381   0.784   0.285   0.953 -1.4830 -0.7428  0.9184
 9964TIP3   OH251382   2.475   2.628   2.991 -0.4549 -0.3488 -0.7687
 9964TIP3    H151383   2.414   2.638   2.918 -0.8414 -1.5522 -0.6353
 9964TIP3    H251384   2.463   2.537   3.019  1.6584 -0.7184 -0.9760
 9965TIP3   OH251385   3.542   3.193  15.104 -0.0106 -0.3247 -0.1730
 9965TIP3    H151386   3.564   3.193  15.197 -0.9851 -4.2076  0.1708
 9965TIP3    H251387   3.623   3.219  15.060  1.1189 -0.6538  1.6581
 9966TIP3   OH251388   0.518   4.362   2.295  0.1823  0.3164  0.0758
 9966TIP3    H151389   0.491   4.276   2.263  1.3663 -0.6849  1.6674
 9966TIP3    H251390   0.480   4.424   2.233 -1.9256 -1.2688 -0.2720
 9967TIP3   OH251391   6.049   6.105  12.831 -0.2227 -0.5379 -0.6079
 9967TIP3    H151392   6.128   6.126  12.880 -2.2174  1.4256  1.8717
 9967TIP3    H251393   6.065   6.140  12.743  0.9577  1.3395  0.3421
 9968TIP3   OH251394   1.233   1.400   0.439  0.3466  0.1560 -0.7956
 9968TIP3    H151395   1.155   1.399   0.496 -0.4890 -0.5542 -1.9312
 9968TIP3    H251396   1.236   1.488   0.404  0.5148  0.4176 -0.1429
 9969TIP3   OH251397   2.404   0.335  12.420  0.4956 -0.2412  0.1166
 9969TIP3    H151398   2.468   0.335  12.348  0.1518  0.2826 -0.1913
 9969TIP3    H251399   2.415   0.249  12.461 -0.4858 -1.2343 -1.6327
 9970TIP3   OH251400   2.111   4.696  13.187 -0.4380  1.0366 -0.3602
 9970TIP3    H151401   2.127   4.763  13.121  0.7726  0.0723 -1.0498
 9970TIP3    H251402   2.159   4.619  13.157 -0.4820  0.3456  1.2541
 9971TIP3   OH251403   5.682   4.491   2.449 -0.2057  0.3385 -0.0210
 9971TIP3    H151404   5.615   4.443   2.497  0.0107  0.2757  0.2150
 9971TIP3    H251405   5.764   4.469   2.493  0.0330  0.0156 -0.6216
 9972TIP3   OH251406   0.697   4.797  16.147 -0.3303 -0.1705 -0.3470
 9972TIP3    H151407   0.760   4.745  16.097 -1.3814 -1.3929 -0.4329
 9972TIP3    H251408   0.729   4.792  16.237 -1.7833 -3.1657  0.0856
 9973TIP3   OH251409   1.621   2.622   1.186 -0.1560 -0.5164 -0.3649
 9973TIP3    H151410   1.642   2.626   1.279 -1.7788  1.2887 -0.0442
 9973TIP3    H251411   1.583   2.708   1.166 -3.1179 -2.0754 -1.8608
 9974TIP3   OH251412   2.860   5.866   1.217  0.2017  0.5712 -0.3838
 9974TIP3    H151413   2.941   5.917   1.210  0.3726  0.4528  0.6273
 9974TIP3    H251414   2.860   5.833   1.307 -1.0248  0.6417 -0.3508
 9975TIP3   OH251415   5.913   3.814   4.623 -0.4068 -0.7141 -0.6802
 9975TIP3    H151416   5.836   3.813   4.679 -0.1746 -0.9332 -0.3620
 9975TIP3    H251417   5.893   3.752   4.553 -0.3573 -1.0852 -0.3713
 9976TIP3   OH251418   0.055   1.528   0.919  0.1546 -0.4046  0.3429
 9976TIP3    H151419   0.050   1.620   0.942 -0.1942 -0.4409  0.4207
 9976TIP3    H251420  -0.007   1.518   0.847  4.1735  0.5671 -3.4821
 9977TIP3   OH251421   4.382   4.047  16.561  0.0316 -0.8911  0.1813
 9977TIP3    H151422   4.337   4.066  16.478 -0.3890  0.3731  0.6889
 9977TIP3    H251423   4.317   4.002  16.614 -0.4508  0.4007  0.6930
 9978TIP3   OH251424   6.339   0.701   5.533 -0.6566  0.0803 -0.5891
 9978TIP3    H151425   6.342   0.758   5.610  1.6851 -1.1890  0.3035
 9978TIP3    H251426   6.397   0.743   5.469 -1.1968  0.1922 -1.0146
 9979TIP3   OH251427   1.928   0.261  11.308 -0.6210 -0.2860  0.2965
 9979TIP3    H151428   1.887   0.216  11.382 -0.1659  2.7633  2.5072
 9979TIP3    H251429   1.857   0.311  11.268 -0.8285 -1.7925 -1.2625
 9980TIP3   OH251430   0.857   0.848   0.010  0.2674 -0.0741 -0.3698
 9980TIP3    H151431   0.882   0.898   0.087  1.6173 -2.9800  1.1673
 9980TIP3    H251432   0.796   0.781   0.044 -0.8917 -0.0004 -2.2156
 9981TIP3   OH251433   1.398   6.063   1.165  0.0243 -0.4570 -0.0709
 9981TIP3    H151434   1.378   6.111   1.085  1.4840 -1.0292 -0.8073
 9981TIP3    H251435   1.343   5.985   1.160  0.8189 -0.9724 -1.0171
 9982TIP3   OH251436   5.117   1.109  11.858  0.6021  0.5593  0.2693
 9982TIP3    H151437   5.108   1.085  11.766 -0.1273  0.4795  0.3628
 9982TIP3    H251438   5.210   1.097  11.876  0.9982  1.7908 -0.8033
 9983TIP3   OH251439   1.058   5.289  15.841  0.5523 -0.0562 -0.3604
 9983TIP3    H151440   1.135   5.322  15.887  0.0618 -0.9044  1.1168
 9983TIP3    H251441   0.984   5.317  15.896 -0.1031 -0.3133 -1.1062
 9984TIP3   OH251442   3.047   6.651  16.858 -0.6813  0.4538  0.5971
 9984TIP3    H151443   3.088   6.659  16.771 -1.7380 -0.3907  0.0072
 9984TIP3    H251444   3.109   6.693  16.917  0.2523  0.6805 -0.5128
 9985TIP3   OH251445   5.640   3.862  15.971 -0.1031 -0.2168  0.1103
 9985TIP3    H151446   5.612   3.914  16.046 -0.6857  0.5099 -0.5966
 9985TIP3    H251447   5.609   3.773  15.991 -0.0220 -0.0792  0.8503
 9986TIP3   OH251448   6.505   0.411   5.673 -0.2924 -0.1123  0.0136
 9986TIP3    H151449   6.426   0.366   5.644  0.2835 -0.7016 -0.6644
 9986TIP3    H251450   6.525   0.472   5.603  1.5498 -2.0972 -1.2579
 9987TIP3   OH251451   0.993   5.291   2.750 -0.0877  0.1481  0.1400
 9987TIP3    H151452   0.956   5.220   2.698 -2.3117  2.3398 -1.4323
 9987TIP3    H251453   1.061   5.329   2.694  0.1145  0.1382  0.3790
 9988TIP3   OH251454   0.978   5.626  12.310 -0.1929 -0.6569 -0.3592
 9988TIP3    H151455   0.930   5.544  12.322 -0.8966 -0.0861  0.8143
 9988TIP3    H251456   1.058   5.615  12.361 -0.6904 -0.2871  0.5068
 9989TIP3   OH251457   2.321   0.297  16.073  0.2555  0.0088  0.4740
 9989TIP3    H151458   2.290   0.347  15.998  2.1624  0.9617  0.2805
 9989TIP3    H251459   2.322   0.206  16.043 -2.1987 -0.0441  0.4758
 9990TIP3   OH251460   2.010   5.432  16.208 -0.5070  0.6880 -0.1877
 9990TIP3    H151461   2.025   5.502  16.144 -5.4491  1.4292 -0.7246
 9990TIP3    H251462   2.012   5.476  16.293  0.1591  0.7786 -0.2488
 9991TIP3   OH251463   1.389   0.645  10.749 -0.2434 -0.7015 -0.2966
 9991TIP3    H151464   1.409   0.623  10.658 -0.2726  1.2340 -0.7929
 9991TIP3    H251465   1.423   0.734  10.760 -2.2674 -0.0534  0.9168
 9992TIP3   OH251466   4.213   4.958   2.057  0.0419 -0.3164  0.2914
 9992TIP3    H151467   4.142   5.021   2.044 -0.5813 -0.9712  0.5714
 9992TIP3    H251468   4.225   4.917   1.971 -1.1798 -1.5448  0.6948
 9993TIP3   OH251469   2.499   1.490   2.392 -0.0555  0.4809  0.5704
 9993TIP3    H151470   2.505   1.583   2.415  0.9335  0.7976 -0.9279
 9993TIP3    H251471   2.585   1.454   2.414 -0.9803 -0.4855  2.7741
 9994TIP3   OH251472   3.016   1.854   2.158 -0.1280  0.2957  0.1963
 9994TIP3    H151473   3.026   1.907   2.238  0.7391 -1.1257  1.0474
 9994TIP3    H251474   3.094   1.799   2.156 -0.9174 -0.8051 -0.7942
 9995TIP3   OH251475   6.182   2.170  14.187  0.1925  0.7092  0.4425
 9995TIP3    H151476   6.139   2.207  14.265 -0.4923  0.2056  0.3023
 9995TIP3    H251477   6.224   2.090  14.219 -0.6115  0.1742  0.1622
 9996TIP3   OH251478   5.875   2.221   3.789 -0.0625 -0.2409  0.0711
 9996TIP3    H151479   5.873   2.140   3.738 -1.2891 -0.4518  0.4207
 9996TIP3    H251480   5.968   2.240   3.800  0.3265 -2.9686  2.1270
 9997TIP3   OH251481   0.511   0.703   2.546  0.0882  0.0211 -0.6864
 9997TIP3    H151482   0.560   0.644   2.488 -0.3943  0.1073 -1.1807
 9997TIP3    H251483   0.449   0.645   2.592  1.9129 -0.3969  1.3305
 9998TIP3   OH251484   3.029   0.375  17.275 -0.2269  0.2279  0.3638
 9998TIP3    H151485   3.101   0.423  17.315 -0.4247  0.1068  0.8764
 9998TIP3    H251486   2.953   0.432  17.285  0.2839  1.4687 -2.4590
 9999TIP3   OH251487   2.390   5.399   4.086  0.5838  0.1614 -0.0051
 9999TIP3    H151488   2.368   5.321   4.137  0.2944 -0.1194 -0.5590
 9999TIP3    H251489   2.330   5.466   4.118  0.3967 -0.0154  0.0129
10000TIP3   OH251490   2.604   2.286  11.612 -0.1192 -0.1843 -0.0558
10000TIP3    H151491   2.518   2.243  11.612  0.3491 -1.1504 -0.4459
10000TIP3    H251492   2.664   2.217  11.640  0.7576  0.0168 -1.4133
10001TIP3   OH251493   6.281   5.082   3.128  0.2508 -0.7097 -0.8756
10001TIP3    H151494   6.218   5.011   3.121 -1.0705  0.4705 -1.1980
10001TIP3    H251495   6.230   5.157   3.159  1.8737 -0.2329  0.7331
10002TIP3   OH251496   4.528   5.709  16.717 -0.3176 -0.5600 -0.0654
10002TIP3    H151497   4.563   5.703  16.805 -0.3413  2.4827  0.2190
10002TIP3    H251498   4.593   5.666  16.662  0.8003 -0.4898  1.1829
10003TIP3   OH251499   6.229   1.296   0.683  0.1074  0.7367 -0.8463
10003TIP3    H151500   6.316   1.322   0.652  0.5417 -0.1323 -0.3848
10003TIP3    H251501   6.181   1.272   0.603  0.3326  1.1024 -1.0889
10004TIP3   OH251502   1.087   5.247  17.280 -0.2416  0.8462 -0.2258
10004TIP3    H151503   1.085   5.154  17.261  1.8910  0.7023  0.1403
10004TIP3    H251504   1.089   5.289  17.194  1.0787  0.4675 -0.3904
10005TIP3   OH251505   2.719   0.803   4.848 -0.7275 -0.1047  0.0952
10005TIP3    H151506   2.670   0.870   4.802  0.7118  1.3840  0.6887
10005TIP3    H251507   2.744   0.844   4.931  1.1598 -0.9731 -0.0259
10006TIP3   OH251508   2.384   5.943  16.811  0.2530 -0.4839 -0.7073
10006TIP3    H151509   2.432   5.901  16.882  1.5042 -1.9365 -2.3831
10006TIP3    H251510   2.294   5.950  16.845  1.3356  1.1671  1.9782
10007TIP3   OH251511   4.606   4.537  12.336  0.3881 -0.8506  0.2984
10007TIP3    H151512   4.653   4.518  12.254 -0.9673  1.6810 -1.1129
10007TIP3    H251513   4.655   4.609  12.376  0.3580 -1.2945  1.1392
10008TIP3   OH251514   2.266   2.341  14.898  0.2845  0.1604 -0.4655
10008TIP3    H151515   2.227   2.370  14.815 -1.6635  0.3961  0.5048
10008TIP3    H251516   2.252   2.415  14.957 -1.8862 -1.4957  1.1653
10009TIP3   OH251517   6.786   1.568   4.239  0.0169 -0.2413  0.1523
10009TIP3    H151518   6.702   1.608   4.262  0.7069  0.8682  0.7865
10009TIP3    H251519   6.763   1.480   4.210 -1.7057  1.1528 -2.9101
10010TIP3   OH251520   4.509   6.277  15.372  0.1275 -0.1810 -0.0779
10010TIP3    H151521   4.524   6.248  15.462  0.2439 -1.5158 -0.5107
10010TIP3    H251522   4.577   6.342  15.356  1.3551 -1.3831  0.1569
10011TIP3   OH251523   1.141   2.921   0.804  0.1394 -0.0350 -0.0136
10011TIP3    H151524   1.137   2.850   0.868  1.0416  1.0481  1.2876
10011TIP3    H251525   1.100   2.995   0.848  0.2183  0.5559 -0.9238
10012TIP3   OH251526   4.519   1.118   5.567 -0.3693 -0.1065  0.0080
10012TIP3    H151527   4.494   1.140   5.477  0.9321 -1.5820 -0.7484
10012TIP3    H251528   4.466   1.042   5.589 -1.0695  0.5770  0.6881
10013TIP3   OH251529   3.679   1.192   5.605  0.1454  0.4542  0.5210
10013TIP3    H151530   3.711   1.102   5.609  0.3464  0.6023  3.3665
10013TIP3    H251531   3.590   1.187   5.639 -0.2974  1.1593 -0.5085
10014TIP3   OH251532   3.477   1.577  16.807  0.9254 -0.2264 -0.2728
10014TIP3    H151533   3.561   1.616  16.781 -0.2865  2.4313 -0.2924
10014TIP3    H251534   3.417   1.599  16.736 -0.5065  0.4634  1.1155
10015TIP3   OH251535   3.129   4.424  16.737  0.8181  0.0722  0.1613
10015TIP3    H151536   3.063   4.447  16.672  1.8354  0.1683 -0.8524
10015TIP3    H251537   3.106   4.476  16.814  0.1747  0.7027 -0.4475
10016TIP3   OH251538   3.143   2.806  16.356  0.1118  0.1072 -0.0473
10016TIP3    H151539   3.132   2.753  16.277 -0.0893 -1.1615  0.8304
10016TIP3    H251540   3.054   2.838  16.375 -0.0250 -0.4391  0.2514
10017TIP3   OH251541   1.545   6.311  10.340 -0.0013 -0.0884  0.5326
10017TIP3    H151542   1.498   6.378  10.291  0.7735  0.2236  0.2025
10017TIP3    H251543   1.507   6.228  10.310  0.1810  0.1243 -0.2952
10018TIP3   OH251544   1.996   4.011  13.264 -0.2831 -0.3898 -0.0704
10018TIP3    H151545   1.980   4.101  13.235  2.0102 -0.5259 -1.8741
10018TIP3    H251546   1.916   3.964  13.240 -1.5677  1.1873  1.0333
10019TIP3   OH251547   0.124   1.739   0.748 -0.2720 -0.6757 -0.5603
10019TIP3    H151548   0.134   1.759   0.655  0.9897 -0.8973 -0.4806
10019TIP3    H251549   0.058   1.802   0.778  1.7670  1.7285 -0.8819
10020TIP3   OH251550   1.250   4.974   0.215 -0.6179  0.6562  0.3603
10020TIP3    H151551   1.313   5.045   0.205 -1.5819  1.8992  2.7351
10020TIP3    H251552   1.273   4.933   0.299 -0.5637 -1.3580 -0.6039
10021TIP3   OH251553   0.718   6.697   3.386  0.8601  0.2951 -0.6083
10021TIP3    H151554   0.740   6.771   3.442 -0.3502  0.9554 -0.9650
10021TIP3    H251555   0.687   6.629   3.447 -2.0740  1.6087 -0.5495
10022TIP3   OH251556   5.519   2.688   2.469  0.1819  0.2004 -0.2734
10022TIP3    H151557   5.461   2.614   2.488  1.6308 -1.1003 -0.8298
10022TIP3    H251558   5.599   2.668   2.516  1.0063  0.8314 -1.3843
10023TIP3   OH251559   4.858   5.833  12.546  0.7699  0.4532 -0.5483
10023TIP3    H151560   4.903   5.753  12.576  2.3255  2.2409  2.0555
10023TIP3    H251561   4.767   5.820  12.573  0.7080 -1.0173 -1.3771
10024TIP3   OH251562   2.949   5.024  13.342  0.3461 -0.5709  0.2003
10024TIP3    H151563   2.881   5.015  13.276  0.1117  0.4371  0.2890
10024TIP3    H251564   2.997   4.941  13.340 -0.5005 -1.0466 -0.2893
10025TIP3   OH251565   2.981   1.929   1.521  0.1550 -0.0061 -0.1607
10025TIP3    H151566   3.060   1.966   1.561  0.8210 -1.2892 -0.2683
10025TIP3    H251567   2.914   1.996   1.534  0.9393  0.5599  1.0778
10026TIP3   OH251568   5.197   1.285  16.348  0.0064 -0.6895 -0.3562
10026TIP3    H151569   5.145   1.223  16.297 -0.9530 -0.2771  0.1287
10026TIP3    H251570   5.226   1.351  16.285 -0.6028 -0.5560 -0.4914
10027TIP3   OH251571   1.713   3.608   5.456 -0.3444  0.3038  0.5408
10027TIP3    H151572   1.711   3.585   5.363 -2.9723  3.1381 -0.1553
10027TIP3    H251573   1.796   3.654   5.467 -0.9814  1.8470 -0.9047
10028TIP3   OH251574   2.021   4.642   5.185  0.4512 -0.2567  0.2481
10028TIP3    H151575   2.027   4.577   5.115  3.1904  1.2303 -1.0092
10028TIP3    H251576   2.075   4.607   5.256  0.4731 -0.1912  0.2645
10029TIP3   OH251577   0.451   5.520   1.819 -0.5609 -0.4849  0.0285
10029TIP3    H151578   0.403   5.437   1.813  0.5648 -1.3632  2.5204
10029TIP3    H251579   0.542   5.496   1.799 -0.1023 -0.0305  1.4641
10030TIP3   OH251580   1.249   6.414   3.001  1.0298 -0.6361 -0.4831
10030TIP3    H151581   1.209   6.338   2.958 -0.0286 -0.0875 -0.4703
10030TIP3    H251582   1.215   6.490   2.954  0.5612 -0.0766  0.7260
10031TIP3   OH251583   4.001   1.759  11.986 -0.0853 -0.3100 -0.1165
10031TIP3    H151584   3.932   1.701  12.019  1.2791 -1.8898  0.0113
10031TIP3    H251585   4.012   1.733  11.895  0.1188  0.1770 -0.2331
10032TIP3   OH251586   4.929   0.683   6.122 -0.1850  0.4052 -0.4185
10032TIP3    H151587   4.881   0.616   6.074  0.0795  1.2718 -1.9036
10032TIP3    H251588   5.014   0.644   6.140 -0.4257 -0.0679 -0.2889
10033TIP3   OH251589   5.860   3.729   0.708 -0.7555  0.5751  0.1205
10033TIP3    H151590   5.886   3.666   0.641  0.3195  1.7231 -0.5701
10033TIP3    H251591   5.942   3.770   0.736 -1.4811  1.9957  0.2113
10034TIP3   OH251592   6.554   5.704  13.602 -0.2714  0.0170 -0.4468
10034TIP3    H151593   6.579   5.769  13.536  1.2246 -1.0028 -0.9156
10034TIP3    H251594   6.474   5.664  13.568  0.0631  0.0410 -1.2700
10035TIP3   OH251595   0.980   4.971   5.152 -0.0203  0.2713  0.0202
10035TIP3    H151596   1.016   4.969   5.063  0.9228  2.6080  0.3287
10035TIP3    H251597   1.057   4.967   5.209 -0.5744 -0.3388  0.7331
10036TIP3   OH251598   5.954   0.293  11.978 -0.6871  0.2341  0.0402
10036TIP3    H151599   5.975   0.240  11.901  1.4340  1.9504 -0.6103
10036TIP3    H251600   5.859   0.285  11.987 -0.7401 -1.4643 -1.6489
10037TIP3   OH251601   2.910   2.395  16.947  0.3582  0.0068  0.0060
10037TIP3    H151602   3.003   2.376  16.955  0.0750 -1.1848  0.6761
10037TIP3    H251603   2.877   2.397  17.037 -0.5452 -1.1605 -0.2798
10038TIP3   OH251604   4.739   5.632   6.057  0.3424 -0.1660 -0.1805
10038TIP3    H151605   4.709   5.580   6.132  2.5268 -1.9862 -0.5266
10038TIP3    H251606   4.659   5.651   6.008 -0.9048 -0.4115  1.6886
10039TIP3   OH251607   1.936   1.354   4.449  0.4864 -0.4235 -0.2998
10039TIP3    H151608   1.908   1.417   4.383 -1.0739 -0.7498  0.0248
10039TIP3    H251609   1.855   1.326   4.491  1.1227 -2.8742 -0.6188
10040TIP3   OH251610   2.284   3.023  10.969  0.3589 -0.4545  0.4108
10040TIP3    H151611   2.330   2.939  10.963  2.2986  0.6196 -0.1051
10040TIP3    H251612   2.191   2.999  10.970  0.9015 -2.6764  1.6519
10041TIP3   OH251613   3.634   2.944   4.340  0.9267 -0.6634  0.4334
10041TIP3    H151614   3.583   2.886   4.396  1.9465 -1.1602  0.8591
10041TIP3    H251615   3.584   2.949   4.258 -0.6698  0.2321  1.4346
10042TIP3   OH251616   6.085   1.638  13.172  0.6625  0.3631 -0.0059
10042TIP3    H151617   5.995   1.605  13.171  0.4220  1.0320 -1.3189
10042TIP3    H251618   6.094   1.685  13.089  2.1058  0.6233  0.2923
10043TIP3   OH251619   0.205   2.926   2.766  0.1542  0.1233 -0.2061
10043TIP3    H151620   0.150   2.991   2.809  1.9261  1.0909  0.6399
10043TIP3    H251621   0.177   2.928   2.674 -3.0724 -1.3767  0.6605
10044TIP3   OH251622   4.203   4.070  16.864  0.3306  0.4097  0.5051
10044TIP3    H151623   4.162   4.130  16.926  0.6525 -0.8272  1.9411
10044TIP3    H251624   4.238   3.999  16.918  3.2002  0.7372 -0.7799
10045TIP3   OH251625   2.445   6.205   1.079  0.2351  0.1088 -0.2416
10045TIP3    H151626   2.528   6.171   1.111 -0.5747 -2.0991 -0.4139
10045TIP3    H251627   2.427   6.155   1.000 -2.1158 -0.6924  0.7608
10046TIP3   OH251628   3.812   1.304   4.428 -0.2533 -0.1116  0.1018
10046TIP3    H151629   3.789   1.269   4.342 -0.2861  0.8603 -0.3003
10046TIP3    H251630   3.837   1.228   4.480  1.5473 -0.5283 -1.3283
10047TIP3   OH251631   1.249   1.568   0.095  0.4636  0.0792  0.5464
10047TIP3    H151632   1.248   1.477   0.065  2.2280  0.3124 -0.2704
10047TIP3    H251633   1.171   1.576   0.150  0.2385 -1.8911  0.5430
10048TIP3   OH251634   0.124   6.188  11.861 -0.0839 -0.6249  0.1415
10048TIP3    H151635   0.185   6.181  11.787 -0.7802 -1.2334 -0.3869
10048TIP3    H251636   0.171   6.239  11.926  0.4069  0.2534 -0.8789
10049TIP3   OH251637   0.583   3.023  14.649 -1.1798 -0.9860 -0.2619
10049TIP3    H151638   0.578   3.003  14.743  1.1987  0.2257  0.1717
10049TIP3    H251639   0.655   2.970  14.617 -0.2001  0.6443 -0.8043
10050TIP3   OH251640   4.307   2.900   1.931  0.2356 -0.8440 -0.2853
10050TIP3    H151641   4.334   2.811   1.910 -0.6356 -1.2457  0.3004
10050TIP3    H251642   4.222   2.910   1.889  0.8669  0.1309 -1.3810
10051TIP3   OH251643   0.020   2.356   6.083  0.0677  0.0502 -0.4515
10051TIP3    H151644   0.056   2.348   6.172 -1.6809 -1.2530  0.1651
10051TIP3    H251645   0.013   2.265   6.053  1.7196  0.5367 -2.3811
10052TIP3   OH251646   6.519   2.838  13.145  0.1659  0.6528  0.1648
10052TIP3    H151647   6.512   2.878  13.231  0.3266  2.1100 -0.4790
10052TIP3    H251648   6.435   2.855  13.103  0.3608  0.6337 -0.2451
10053TIP3   OH251649   2.972   0.559   3.494  0.2209 -0.0718 -0.1548
10053TIP3    H151650   2.916   0.590   3.565  1.0670  1.1071  0.0060
10053TIP3    H251651   2.944   0.609   3.417  1.0930  0.5773 -0.0589
10054TIP3   OH251652   2.443   6.791  13.886  0.1331 -0.4658  0.6168
10054TIP3    H151653   2.497   6.825  13.958 -0.9912  1.3117  0.6758
10054TIP3    H251654   2.417   6.704  13.915  1.3544 -0.5655  1.4587
10055TIP3   OH251655   4.510   2.660  16.064 -0.8077 -0.8418 -0.6054
10055TIP3    H151656   4.551   2.732  16.016  0.4628  0.2861  2.0872
10055TIP3    H251657   4.535   2.581  16.015  0.2672  0.2808 -1.9137
10056TIP3   OH251658   4.526   0.756   0.734 -0.7351  0.5175  0.3515
10056TIP3    H151659   4.476   0.786   0.658 -1.5533 -1.1020  0.2423
10056TIP3    H251660   4.531   0.833   0.791  0.2500  1.8738 -1.5010
10057TIP3   OH251661   2.819   4.966   0.140 -0.5493 -0.0540  0.0121
10057TIP3    H151662   2.842   4.878   0.111 -0.4340 -0.4567  1.3097
10057TIP3    H251663   2.749   4.954   0.203 -0.8967  0.8300 -0.1878
10058TIP3   OH251664   2.316   0.246   0.382  0.2129 -0.0713  0.3182
10058TIP3    H151665   2.327   0.197   0.463  0.8917 -0.6745 -0.1346
10058TIP3    H251666   2.315   0.338   0.410  0.4407 -0.2774  1.0083
10059TIP3   OH251667   5.108   3.948   2.516  0.2038  0.4300  0.1668
10059TIP3    H151668   5.102   3.910   2.603  0.4821 -1.3588 -0.5750
10059TIP3    H251669   5.065   4.033   2.524 -1.6206 -0.5927  1.5383
10060TIP3   OH251670   4.141   3.556   3.894 -0.3273 -0.7471 -0.2058
10060TIP3    H151671   4.105   3.468   3.895 -1.1857 -0.4102  2.1043
10060TIP3    H251672   4.079   3.608   3.843 -0.4041 -1.2276 -0.6037
10061TIP3   OH251673   3.411   2.867   4.493 -0.1518 -0.1092  0.0835
10061TIP3    H151674   3.321   2.846   4.518 -0.4873 -1.5738 -2.2534
10061TIP3    H251675   3.406   2.955   4.457 -0.9421 -0.7759 -1.4670
10062TIP3   OH251676   2.601   3.245  14.594 -0.2215  0.0845  0.4791
10062TIP3    H151677   2.614   3.328  14.641  0.7563  1.4551 -2.1074
10062TIP3    H251678   2.519   3.211  14.628  0.0678  1.3893  2.6161
10063TIP3   OH251679   3.470   3.007   4.107  0.5577  0.2092 -0.1977
10063TIP3    H151680   3.384   3.016   4.066 -0.2507 -0.0068  1.4339
10063TIP3    H251681   3.503   2.923   4.074 -0.4233 -0.3404  0.1748
10064TIP3   OH251682   2.913   5.778  16.043  0.7396  0.5959 -0.4211
10064TIP3    H151683   2.863   5.700  16.066 -1.1868  1.4970 -1.3808
10064TIP3    H251684   2.999   5.745  16.017  1.0385 -0.9078  2.2770
10065TIP3   OH251685   3.511   6.651  13.198 -0.2848  0.1544 -0.0379
10065TIP3    H151686   3.546   6.591  13.132  0.0053 -0.4248  0.6445
10065TIP3    H251687   3.416   6.634  13.197 -0.1538 -0.6003  0.4416
10066TIP3   OH251688   1.689   3.674   2.524 -0.0056 -0.2684 -0.3977
10066TIP3    H151689   1.739   3.733   2.582 -0.9119  0.2178 -0.0934
10066TIP3    H251690   1.692   3.589   2.568 -2.2740  0.5023  1.3843
10067TIP3   OH251691   0.341   1.720  12.064  0.0915  0.1574 -0.0809
10067TIP3    H151692   0.363   1.654  12.130  0.5633 -1.8770 -2.1735
10067TIP3    H251693   0.404   1.791  12.079  0.8029 -0.6913  1.0361
10068TIP3   OH251694   4.107   4.055  16.617 -0.0922  0.8190 -0.3214
10068TIP3    H151695   4.126   4.066  16.710  1.8262 -0.9560 -0.4567
10068TIP3    H251696   4.047   4.127  16.596  0.6316  2.1360  1.9230
10069TIP3   OH251697   6.754   2.150   4.704 -0.7124  0.2193  0.2845
10069TIP3    H151698   6.691   2.131   4.774 -0.7696  2.2055  0.8027
10069TIP3    H251699   6.700   2.181   4.632 -0.3599  1.8046  0.6842
10070TIP3   OH251700   4.692   2.168  15.969 -0.2870  0.5039  0.3399
10070TIP3    H151701   4.611   2.214  15.991 -1.7716 -2.6037  1.7171
10070TIP3    H251702   4.760   2.235  15.976 -2.2294  2.3286  3.0353
10071TIP3   OH251703   5.861   5.528  17.106 -0.3255  0.1044 -0.4796
10071TIP3    H151704   5.879   5.595  17.172 -0.3041 -0.7507  0.4031
10071TIP3    H251705   5.792   5.474  17.146  0.7546 -1.3322 -0.5028
10072TIP3   OH251706   4.229   1.112  15.859 -0.1203  0.1162 -0.4222
10072TIP3    H151707   4.279   1.158  15.926 -0.7449  0.3626 -0.1208
10072TIP3    H251708   4.236   1.020  15.883 -2.2233  0.3632  1.3053
10073TIP3   OH251709   4.663   0.642   0.339  0.1513  0.2335  0.3478
10073TIP3    H151710   4.661   0.560   0.389 -0.1594 -0.4139 -0.7170
10073TIP3    H251711   4.706   0.705   0.398  0.7511 -0.7959  1.0246
10074TIP3   OH251712   2.936   3.508   4.319  0.4253  0.1467 -0.0936
10074TIP3    H151713   2.970   3.536   4.234 -0.6290  0.0230 -0.5583
10074TIP3    H251714   2.906   3.419   4.306  0.4688  0.0436  0.4724
10075TIP3   OH251715   5.516   6.128   2.092  0.3894  0.0297 -0.4732
10075TIP3    H151716   5.447   6.113   2.027 -0.5177 -0.0529  0.5140
10075TIP3    H251717   5.578   6.187   2.047  0.7076 -1.4543 -2.0645
10076TIP3   OH251718   3.453   0.215   3.306  0.1815 -0.0470  0.1539
10076TIP3    H151719   3.408   0.235   3.388  0.9444 -0.5019  0.6859
10076TIP3    H251720   3.439   0.292   3.251 -1.5182 -0.3106  0.1972
10077TIP3   OH251721   0.422   4.509   2.085  0.2297 -0.1975 -0.0385
10077TIP3    H151722   0.351   4.457   2.048 -0.3486 -0.0267  0.8346
10077TIP3    H251723   0.492   4.502   2.020 -1.0930  0.8412 -1.6632
10078TIP3   OH251724   6.695   4.672   0.578  0.5384  0.0806  0.6009
10078TIP3    H151725   6.663   4.760   0.601  0.0710  0.5438 -1.7223
10078TIP3    H251726   6.779   4.666   0.623  1.3324  2.3786 -0.4387
10079TIP3   OH251727   3.942   4.107   0.416 -0.0651 -0.3589  0.1122
10079TIP3    H151728   3.987   4.097   0.500  0.0556  1.3218  0.2611
10079TIP3    H251729   3.964   4.196   0.387 -1.6207 -0.2463 -0.7933
10080TIP3   OH251730   5.499   1.529  14.006  0.5644 -0.3092 -0.2228
10080TIP3    H151731   5.540   1.518  14.092  0.7399  0.0684 -0.2590
10080TIP3    H251732   5.552   1.595  13.962  0.9333 -1.0619 -0.9159
10081TIP3   OH251733   0.649   5.778   3.503  0.3855  0.7393 -0.4758
10081TIP3    H151734   0.693   5.709   3.552  1.0186  2.3362  1.2800
10081TIP3    H251735   0.608   5.833   3.570 -0.6881  1.6835 -1.8651
10082TIP3   OH251736   6.223   4.210  12.017  0.0727  0.4620  0.1123
10082TIP3    H151737   6.283   4.147  12.057  1.3018  1.0285 -0.8114
10082TIP3    H251738   6.235   4.198  11.923 -0.1897  1.6085 -0.0691
10083TIP3   OH251739   2.098   1.374  13.054  0.4200  0.7188 -0.0248
10083TIP3    H151740   2.110   1.313  12.981 -0.2137 -0.2041  0.6407
10083TIP3    H251741   2.019   1.423  13.031  0.5730  0.8606 -0.2540
10084TIP3   OH251742   0.321   3.667   0.671  0.0105  0.5084  0.1032
10084TIP3    H151743   0.391   3.705   0.724  0.1362  0.4561 -0.0252
10084TIP3    H251744   0.342   3.574   0.666 -0.7683  0.2646  1.1421
10085TIP3   OH251745   3.654   6.203  16.773 -0.1487 -0.3672 -0.8308
10085TIP3    H151746   3.608   6.200  16.689 -1.0608  0.1277 -0.3605
10085TIP3    H251747   3.597   6.155  16.833 -0.4684  0.9511 -0.0521
10086TIP3   OH251748   3.206   6.177   2.881 -0.5646 -0.0035 -0.7313
10086TIP3    H151749   3.249   6.211   2.803  0.0452  0.1469 -0.3319
10086TIP3    H251750   3.238   6.088   2.891 -0.0757  0.2220 -0.2426
10087TIP3   OH251751   5.803   2.428  13.170 -0.3526  0.1464 -0.2990
10087TIP3    H151752   5.879   2.475  13.204  0.3354  0.0671 -1.7025
10087TIP3    H251753   5.728   2.479  13.202  0.1272 -1.2974  3.4073
10088TIP3   OH251754   0.113   3.437   3.344 -0.2688 -0.4685 -0.0472
10088TIP3    H151755   0.080   3.487   3.419  1.2381  1.1714 -0.4482
10088TIP3    H251756   0.163   3.500   3.293 -0.9614 -1.6515 -2.2656
10089TIP3   OH251757   0.544   1.810   5.226  0.4000 -0.2694 -0.4418
10089TIP3    H151758   0.578   1.900   5.219 -0.5747  0.1061 -0.3319
10089TIP3    H251759   0.451   1.821   5.243  0.3941 -1.3051  0.1955
10090TIP3   OH251760   3.134   2.439  16.385  0.0904  0.1142 -0.0213
10090TIP3    H151761   3.227   2.461  16.389  0.2019 -0.2614 -0.5451
10090TIP3    H251762   3.119   2.413  16.294 -0.6783  0.8313 -0.1025
10091TIP3   OH251763   0.906   1.456   1.325  0.3239 -0.1683  0.3560
10091TIP3    H151764   0.970   1.431   1.391  1.5677  1.4619 -0.2174
10091TIP3    H251765   0.930   1.545   1.299 -0.9145 -0.2937 -1.3507
10092TIP3   OH251766   0.032   5.911  15.329 -0.2993 -0.0255  0.7673
10092TIP3    H151767   0.114   5.864  15.344  0.5435  1.4574  0.8123
10092TIP3    H251768  -0.027   5.844  15.292  1.8735 -0.3534 -2.2465
10093TIP3   OH251769   2.762   3.977  14.139 -0.1209 -0.3241  0.2745
10093TIP3    H151770   2.670   3.974  14.166  0.5653 -1.1848  2.6014
10093TIP3    H251771   2.771   3.903  14.079 -0.6827 -0.9248  0.9228
10094TIP3   OH251772   2.976   6.473   0.229  0.0623 -0.2727 -1.1495
10094TIP3    H151773   2.980   6.558   0.273  0.5818 -0.1560 -1.4255
10094TIP3    H251774   2.886   6.469   0.195 -0.6313 -0.7688  0.7185
10095TIP3   OH251775   1.335   3.713  14.464 -0.6096 -0.3123 -0.2823
10095TIP3    H151776   1.375   3.753  14.541 -0.2866  0.3741 -0.7975
10095TIP3    H251777   1.410   3.687  14.410 -0.8443 -0.1793 -0.6687
10096TIP3   OH251778   3.562   4.822   0.604  0.0856 -0.1533  0.4911
10096TIP3    H151779   3.573   4.911   0.637 -0.2109  0.7895 -1.8763
10096TIP3    H251780   3.638   4.775   0.638  0.9950  1.3607  0.6000
10097TIP3   OH251781   6.516   6.398  15.229  0.8234 -0.3624 -0.3254
10097TIP3    H151782   6.490   6.385  15.138 -1.1095  1.1531 -0.0138
10097TIP3    H251783   6.555   6.486  15.230 -0.1848  0.0847  0.5013
10098TIP3   OH251784   3.945   3.325  14.147  0.7217 -0.6794  0.2365
10098TIP3    H151785   3.895   3.256  14.190 -0.6683  0.3147  0.2694
10098TIP3    H251786   3.888   3.402  14.152  1.7286  0.1600 -0.8686
10099TIP3   OH251787   2.410   4.261   1.077 -0.0910  0.9764 -0.2482
10099TIP3    H151788   2.324   4.303   1.081  0.3654  2.0775 -1.6607
10099TIP3    H251789   2.426   4.230   1.166 -2.4849 -0.3260 -0.2386
10100TIP3   OH251790   1.280   1.856   4.348  0.5315 -0.0778  0.2606
10100TIP3    H151791   1.207   1.917   4.347  0.8766  0.3603  1.1747
10100TIP3    H251792   1.328   1.875   4.268 -0.2278 -0.2234 -0.2380
10101TIP3   OH251793   3.824   3.132   0.733  0.0399  0.3521 -0.5522
10101TIP3    H151794   3.730   3.145   0.752  0.0903 -1.6492  1.1890
10101TIP3    H251795   3.826   3.060   0.670  0.4391 -0.0215 -0.1103
10102TIP3   OH251796   6.341   1.494  15.441  0.6782  0.5063  0.7299
10102TIP3    H151797   6.340   1.551  15.365 -2.4836 -1.2918 -0.6570
10102TIP3    H251798   6.353   1.406  15.405  0.3890 -0.2373  2.4096
10103TIP3   OH251799   5.755   0.822   4.374 -0.4898 -0.5441  0.1943
10103TIP3    H151800   5.759   0.769   4.294  0.9363 -0.0549 -0.0863
10103TIP3    H251801   5.845   0.852   4.387 -0.9805  0.5420  1.2088
10104TIP3   OH251802   4.486   4.561   1.204 -0.1719 -0.2838  0.0308
10104TIP3    H151803   4.546   4.490   1.224  0.9913  1.1160  1.7628
10104TIP3    H251804   4.542   4.630   1.167 -0.9250  0.4935  0.3142
10105TIP3   OH251805   2.686   5.561  15.115 -0.2090 -0.1510 -0.1367
10105TIP3    H151806   2.751   5.615  15.071  1.2197 -0.4452  1.5675
10105TIP3    H251807   2.618   5.624  15.142  0.7755  0.5920  0.6339
10106TIP3   OH251808   2.295   1.902  11.321  0.5115 -0.5621  0.3488
10106TIP3    H151809   2.279   1.895  11.415  1.2678 -2.3466  0.3570
10106TIP3    H251810   2.384   1.936  11.314  0.5591 -0.7071  0.2657
10107TIP3   OH251811   6.636   3.464  15.832  0.3361 -0.4083  0.1503
10107TIP3    H151812   6.666   3.555  15.842  0.2307 -0.3109 -0.3571
10107TIP3    H251813   6.577   3.450  15.906  2.0387 -0.7756  1.4402
10108TIP3   OH251814   5.440   1.414  12.918  0.1925  0.2503 -0.1708
10108TIP3    H151815   5.488   1.438  12.839  0.2825  0.1157 -0.1579
10108TIP3    H251816   5.371   1.480  12.926  0.1421  0.2250 -0.3981
10109TIP3   OH251817   3.218   5.125  12.305 -0.1634  0.1692 -0.4536
10109TIP3    H151818   3.258   5.038  12.309 -2.1112 -0.7465 -0.4573
10109TIP3    H251819   3.201   5.148  12.396  0.4078  0.5871 -0.4485
10110TIP3   OH251820   0.805   6.069  14.914 -0.0775 -0.0076 -0.1952
10110TIP3    H151821   0.782   6.105  14.999 -1.1215 -1.4218  0.1358
10110TIP3    H251822   0.876   6.007  14.934  0.3830  0.4165 -0.5026
10111TIP3   OH251823   1.877   1.158   1.945 -0.0829  0.0057  0.5762
10111TIP3    H151824   1.873   1.070   1.981 -0.5829  0.0024  0.5211
10111TIP3    H251825   1.873   1.215   2.022  1.3308 -0.0250  0.6879
10112TIP3   OH251826   2.007   6.282  12.869 -0.1798  0.3692  0.1730
10112TIP3    H151827   1.969   6.366  12.895  0.3964  1.0637 -1.2408
10112TIP3    H251828   2.099   6.301  12.853 -0.0183 -0.5680 -0.0192
10113TIP3   OH251829   1.671   2.833   3.629  0.3786  0.2739  0.0844
10113TIP3    H151830   1.682   2.745   3.591 -1.1236  0.3900 -0.6491
10113TIP3    H251831   1.721   2.830   3.710  0.2519 -1.3144  0.1256
10114TIP3   OH251832   1.410   3.634   4.751  0.5036 -0.1237 -0.6747
10114TIP3    H151833   1.500   3.621   4.780 -0.0946 -1.5278  0.6256
10114TIP3    H251834   1.358   3.625   4.830 -0.7550  1.0927 -1.3488
10115TIP3   OH251835   3.016   5.253  12.462 -0.5435  0.4400 -0.2474
10115TIP3    H151836   2.990   5.161  12.469  0.4311  0.0472 -1.6781
10115TIP3    H251837   2.980   5.283  12.379  0.3723  0.9316 -0.4840
10116TIP3   OH251838   1.124   3.906  16.415  0.2884 -0.4243  0.5969
10116TIP3    H151839   1.053   3.922  16.478  0.5452  0.5401  0.6469
10116TIP3    H251840   1.089   3.937  16.331  0.9467  0.8114  0.7737
10117TIP3   OH251841   5.376   1.434   2.994  0.0104 -0.2925  0.3760
10117TIP3    H151842   5.463   1.397   3.010  0.3072  0.5387  0.7328
10117TIP3    H251843   5.359   1.488   3.072 -0.7324 -0.2799  0.2077
10118TIP3   OH251844   3.832   2.970   4.654 -0.6535  0.2750  0.1468
10118TIP3    H151845   3.879   3.044   4.693  0.4691 -0.3693  0.0326
10118TIP3    H251846   3.847   2.978   4.560 -0.0257 -0.4290  0.1811
10119TIP3   OH251847   4.347   2.448  16.276  0.2066  0.0543  0.1869
10119TIP3    H151848   4.277   2.388  16.302 -0.0181  0.2844  0.1289
10119TIP3    H251849   4.306   2.505  16.211  0.4967  0.0859  0.0332
10120TIP3   OH251850   5.358   0.815   0.127 -0.0136 -0.0914  0.3945
10120TIP3    H151851   5.365   0.902   0.089 -0.7613  0.4625  1.5004
10120TIP3    H251852   5.264   0.797   0.129  0.2122 -1.4653 -1.0285
10121TIP3   OH251853   2.087   4.107   3.733 -0.0136 -0.2807 -0.0760
10121TIP3    H151854   2.013   4.067   3.778 -0.4868  0.8208  0.1431
10121TIP3    H251855   2.048   4.165   3.668  0.6627 -0.4836 -0.6797
10122TIP3   OH251856   6.119   2.617  12.795  0.3165 -0.1789  0.3121
10122TIP3    H151857   6.100   2.621  12.701  0.0402  1.8186  0.4331
10122TIP3    H251858   6.116   2.524  12.816 -0.4900 -0.5838 -1.4859
10123TIP3   OH251859   2.081   6.534  14.343 -0.8691 -0.1056  0.1209
10123TIP3    H151860   2.066   6.596  14.272 -0.2329 -0.2116 -0.1162
10123TIP3    H251861   2.063   6.448  14.304 -0.5321 -0.1631  0.0908
10124TIP3   OH251862   2.174   1.975  15.607 -0.1389  0.8040  0.4498
10124TIP3    H151863   2.124   2.055  15.621  0.8612  1.5950 -0.3826
10124TIP3    H251864   2.223   1.991  15.526  0.3448 -0.5068  0.4703
10125TIP3   OH251865   5.234   2.657   0.972  0.0989 -0.0624 -0.0248
10125TIP3    H151866   5.158   2.709   0.999  0.4194  0.4730 -0.1601
10125TIP3    H251867   5.200   2.600   0.903  0.1299  1.1034 -1.0047
10126TIP3   OH251868   4.841   3.250   5.143  0.3315 -0.3152 -0.5890
10126TIP3    H151869   4.784   3.308   5.092  0.3976  0.9022  0.6714
10126TIP3    H251870   4.915   3.305   5.169  1.2177 -1.4151 -0.7435
10127TIP3   OH251871   0.679   2.011   2.841  0.2729  0.1934  0.0579
10127TIP3    H151872   0.663   1.917   2.843  0.9710  0.0717  0.1463
10127TIP3    H251873   0.717   2.027   2.754  2.5492 -0.0208  0.9803
10128TIP3   OH251874   1.642   6.695   1.820  0.2611 -0.2931  0.3870
10128TIP3    H151875   1.687   6.625   1.774 -0.7212 -1.2273  0.8154
10128TIP3    H251876   1.557   6.702   1.777 -0.1289 -0.2340  1.1420
10129TIP3   OH251877   1.238   6.657   1.123  0.1296  0.3985 -0.9078
10129TIP3    H151878   1.152   6.619   1.140 -0.6550  2.2334 -0.7118
10129TIP3    H251879   1.269   6.612   1.044 -0.4743 -1.1111 -0.3038
10130TIP3   OH251880   6.164   2.326  12.132 -0.0310 -0.5191  0.1827
10130TIP3    H151881   6.155   2.239  12.093 -0.4936 -1.6094  2.5861
10130TIP3    H251882   6.096   2.329  12.200  0.7878  1.2505  0.9682
10131TIP3   OH251883   3.386   0.357  14.374  0.6187 -0.0484 -0.1249
10131TIP3    H151884   3.293   0.376  14.358  0.8111  0.1411 -0.9983
10131TIP3    H251885   3.384   0.278  14.429 -0.0277 -0.8825 -1.3228
10132TIP3   OH251886   2.994   4.262   6.110  0.1509 -0.2694  0.1075
10132TIP3    H151887   2.971   4.238   6.021  0.1352  0.1551 -0.0073
10132TIP3    H251888   3.015   4.356   6.105  0.1741 -0.2479  0.5422
10133TIP3   OH251889   0.151   4.151  13.474 -0.0487  0.0398 -0.2318
10133TIP3    H151890   0.186   4.125  13.559 -1.6603  1.9511  1.0698
10133TIP3    H251891   0.094   4.078  13.448  0.4172 -0.5345  0.3484
10134TIP3   OH251892   0.691   6.368   2.130  0.1366  0.1371  0.3287
10134TIP3    H151893   0.650   6.296   2.178 -2.9722  0.9518 -1.0205
10134TIP3    H251894   0.715   6.330   2.046  0.3894  0.1521  0.3946
10135TIP3   OH251895   5.932   3.658  14.988 -0.2152 -0.6587  0.0922
10135TIP3    H151896   5.932   3.562  14.986 -2.2609 -0.6582 -0.2162
10135TIP3    H251897   5.858   3.681  15.043 -1.5596  0.7662 -2.2393
10136TIP3   OH251898   3.740   5.563   3.144 -0.2251  0.4927  0.4895
10136TIP3    H151899   3.795   5.620   3.197 -1.9447  0.1398  2.6817
10136TIP3    H251900   3.773   5.474   3.162 -2.4689  0.1407  3.0075
10137TIP3   OH251901   0.346   0.788  14.581  0.4995  0.5506 -0.3860
10137TIP3    H151902   0.350   0.870  14.532  0.5636  0.1702 -1.0265
10137TIP3    H251903   0.295   0.809  14.659  0.5500  1.2095 -0.5262
10138TIP3   OH251904   3.280   6.094  11.711  0.8012 -0.2319  0.5300
10138TIP3    H151905   3.207   6.149  11.682 -0.2769 -1.7368  0.2585
10138TIP3    H251906   3.320   6.063  11.630 -1.4736 -3.4877  0.5411
10139TIP3   OH251907   1.285   3.498  12.474  0.4990 -0.2019 -0.1240
10139TIP3    H151908   1.255   3.548  12.551  0.2832  0.5530 -0.6875
10139TIP3    H251909   1.340   3.560  12.426 -0.6438 -0.1396 -1.3987
10140TIP3   OH251910   0.011   2.674  15.148 -0.2002  0.1996 -0.3568
10140TIP3    H151911  -0.079   2.676  15.182  0.0660 -0.2921  0.3917
10140TIP3    H251912   0.046   2.590  15.178 -0.5187 -1.0647 -3.3528
10141TIP3   OH251913   3.222   5.128   6.489  0.4776 -0.0772 -0.5947
10141TIP3    H151914   3.199   5.197   6.552  0.6782 -0.0271 -0.5763
10141TIP3    H251915   3.261   5.175   6.415  1.1493 -0.2136 -0.3371
10142TIP3   OH251916   4.702   1.495   1.441 -0.1863 -0.6858 -0.0626
10142TIP3    H151917   4.781   1.532   1.479 -0.0765 -1.1837  0.2026
10142TIP3    H251918   4.645   1.570   1.426 -0.5760 -0.5774  1.8968
10143TIP3   OH251919   4.731   5.793  10.864 -0.0086 -0.1316 -0.0475
10143TIP3    H151920   4.726   5.887  10.847 -0.0088  0.0482  0.9237
10143TIP3    H251921   4.782   5.758  10.791  4.0528  1.2901  1.9589
10144TIP3   OH251922   5.589   0.655   3.865 -0.2486 -0.3040 -0.0633
10144TIP3    H151923   5.667   0.645   3.810 -0.3834  0.4525 -0.3998
10144TIP3    H251924   5.549   0.568   3.866  0.1461 -0.4932 -0.5745
10145TIP3   OH251925   5.340   2.152   5.397 -0.0584  0.0105  0.5151
10145TIP3    H151926   5.342   2.116   5.308  1.7400  0.7807  0.2103
10145TIP3    H251927   5.272   2.219   5.394 -0.0281  0.0170 -0.2903
10146TIP3   OH251928   0.815   1.171   2.989 -0.0118 -0.6142  0.0968
10146TIP3    H151929   0.866   1.165   2.908  0.3543 -2.2760  0.4447
10146TIP3    H251930   0.770   1.087   2.996 -1.9742  0.4226  0.3632
10147TIP3   OH251931   3.231   0.846   0.498 -0.1081 -0.0201  0.2714
10147TIP3    H151932   3.320   0.812   0.492 -0.5179 -0.8924 -1.0470
10147TIP3    H251933   3.236   0.915   0.564  1.4775 -0.2731  0.4274
10148TIP3   OH251934   3.581   2.333   5.093  0.6499 -0.0809  0.0328
10148TIP3    H151935   3.575   2.378   5.009 -0.3300  0.1887  0.2352
10148TIP3    H251936   3.552   2.243   5.073  1.4446 -0.3017 -0.1306
10149TIP3   OH251937   4.846   2.576   2.295 -0.8173 -0.7147  0.1392
10149TIP3    H151938   4.772   2.568   2.234 -1.9319  1.2609  1.1910
10149TIP3    H251939   4.827   2.513   2.365 -2.3217  0.8902  1.1993
10150TIP3   OH251940   3.149   4.326  13.042 -0.1210  0.4830  0.2671
10150TIP3    H151941   3.101   4.254  13.001  1.9330 -0.1278 -1.1709
10150TIP3    H251942   3.142   4.310  13.136 -1.5382 -0.3364  0.0385
10151TIP3   OH251943   5.801   4.120   0.674 -0.8344 -0.0586  0.5584
10151TIP3    H151944   5.817   4.176   0.598  2.3858 -0.6760  0.7073
10151TIP3    H251945   5.774   4.181   0.743  0.1769  1.0270  0.0214
10152TIP3   OH251946   5.452   3.264  15.290 -0.3179  0.1173  0.2515
10152TIP3    H151947   5.473   3.175  15.317  2.8688  0.5289 -0.6290
10152TIP3    H251948   5.445   3.313  15.371  3.2368  0.1181  0.6354
10153TIP3   OH251949   2.068   2.863  17.225 -0.2498  0.0996  0.1381
10153TIP3    H151950   2.035   2.840  17.138 -0.4257 -0.3080  0.3121
10153TIP3    H251951   2.146   2.808  17.236  0.5376  1.1050 -0.3021
10154TIP3   OH251952   3.414   0.764   4.715  0.3481  0.0645 -0.3383
10154TIP3    H151953   3.464   0.813   4.780  0.8389 -1.0588  0.1276
10154TIP3    H251954   3.480   0.727   4.657  0.0198 -0.8201 -0.1518
10155TIP3   OH251955   1.328   5.027   3.625 -0.1600 -0.0213 -0.0057
10155TIP3    H151956   1.406   5.055   3.578  2.1449 -3.6563  1.5190
10155TIP3    H251957   1.321   5.088   3.699  0.4190  1.1245 -0.8825
10156TIP3   OH251958   4.249   2.969   2.941  0.2359  0.5131 -0.0961
10156TIP3    H151959   4.224   2.893   2.994 -1.5104  0.9787 -0.2158
10156TIP3    H251960   4.166   3.016   2.925  1.1677  2.0046 -0.6983
10157TIP3   OH251961   3.880   1.298  14.595 -0.4789 -0.4885  0.3455
10157TIP3    H151962   3.854   1.334  14.510 -1.0689 -1.2622  0.1949
10157TIP3    H251963   3.851   1.364  14.658  2.2715  1.3455 -0.1943
10158TIP3   OH251964   3.499   0.638  14.719 -0.1755 -0.7432 -0.6687
10158TIP3    H151965   3.562   0.571  14.743  0.0500 -0.4395 -0.3994
10158TIP3    H251966   3.438   0.642  14.793  0.9361  0.6956  0.2077
10159TIP3   OH251967   4.564   2.899  15.151  0.7414 -0.2402  0.1043
10159TIP3    H151968   4.555   2.972  15.211 -0.5120 -0.1179 -0.2251
10159TIP3    H251969   4.615   2.834  15.199  0.4007  0.1667  1.0121
10160TIP3   OH251970   6.647   2.865  16.394 -0.1992  0.1566  0.2014
10160TIP3    H151971   6.596   2.851  16.313  0.2518  1.8335 -0.3905
10160TIP3    H251972   6.588   2.836  16.464 -0.4769 -1.6181 -0.7465
10161TIP3   OH251973   3.260   1.857   2.763 -0.0740 -0.1444 -0.1330
10161TIP3    H151974   3.249   1.899   2.848  0.2952  0.3203 -0.3039
10161TIP3    H251975   3.265   1.764   2.782  1.9626  0.0794  0.5754
10162TIP3   OH251976   5.954   3.978   3.611 -0.5884 -0.0279  0.0372
10162TIP3    H151977   5.907   3.903   3.647 -1.6162  0.5459 -0.0723
10162TIP3    H251978   5.903   4.054   3.641 -0.4923  0.5389 -1.2005
10163TIP3   OH251979   5.840   5.285  10.281  0.5385  1.0700  0.4434
10163TIP3    H151980   5.832   5.314  10.190  0.6775  0.8353  0.3554
10163TIP3    H251981   5.751   5.291  10.317  0.3129  0.2558  0.0210
10164TIP3   OH251982   0.617   2.304  13.144 -0.5473 -0.1490 -0.1965
10164TIP3    H151983   0.583   2.320  13.056 -1.4084 -0.7083  0.0211
10164TIP3    H251984   0.555   2.241  13.182  0.5561 -0.9229  0.3469
10165TIP3   OH251985   3.617   3.409  14.175 -0.6086  0.0335  0.6188
10165TIP3    H151986   3.596   3.328  14.221 -0.6119  0.1785  0.8769
10165TIP3    H251987   3.617   3.385  14.082  0.1708 -0.4357  0.7331
10166TIP3   OH251988   0.635   4.275  15.749  0.7262  0.7576 -0.2062
10166TIP3    H151989   0.606   4.192  15.712  0.3908  0.9432 -0.3604
10166TIP3    H251990   0.641   4.335  15.674  0.5627  0.9871 -0.0398
10167TIP3   OH251991   6.497   2.141  16.644  0.0796  0.0947  0.0227
10167TIP3    H151992   6.444   2.201  16.696  1.6136 -0.0531  1.7970
10167TIP3    H251993   6.446   2.128  16.564 -1.2882  2.0543  0.5277
10168TIP3   OH251994   1.604   4.337   0.849 -0.4391  0.1065  0.2804
10168TIP3    H151995   1.544   4.265   0.829 -1.2414  0.7200  0.4516
10168TIP3    H251996   1.562   4.384   0.921 -0.5102  1.4366 -0.6070
10169TIP3   OH251997   3.281   5.835  14.551 -0.3525 -0.6457 -0.2757
10169TIP3    H151998   3.309   5.858  14.640 -2.6231 -0.6993  0.5139
10169TIP3    H251999   3.330   5.756  14.530 -1.7747 -2.2332  2.0693
10170TIP3   OH252000   6.165   2.587  14.963 -0.6339 -0.4488 -0.1752
10170TIP3    H152001   6.137   2.550  15.047 -3.2662  0.4177 -0.6204
10170TIP3    H252002   6.105   2.660  14.948  2.3661  1.9615 -0.9085
10171TIP3   OH252003   1.136   5.560  17.103  0.2305  0.3632 -0.0276
10171TIP3    H152004   1.228   5.566  17.128 -0.2084  0.2662  1.6354
10171TIP3    H252005   1.088   5.595  17.178 -1.0814  0.7730 -1.0343
10172TIP3   OH252006   2.098   2.356  13.563  0.3922  0.2203  0.0020
10172TIP3    H152007   2.057   2.274  13.590  1.6652 -0.0003  1.3569
10172TIP3    H252008   2.143   2.336  13.481  1.6701 -0.7551  0.9257
10173TIP3   OH252009   1.650   1.744  15.629 -0.4323  0.4559  0.1626
10173TIP3    H152010   1.565   1.776  15.660 -1.8437 -1.0772 -1.9930
10173TIP3    H252011   1.658   1.656  15.664 -0.4464  0.0128 -0.9323
10174TIP3   OH252012   0.935   2.589   1.052 -0.3898 -0.1754  0.1258
10174TIP3    H152013   0.879   2.653   1.008  0.0104 -0.0019 -0.1380
10174TIP3    H252014   1.006   2.572   0.990  1.1565  1.4191  1.3848
10175TIP3   OH252015   5.947   2.110   3.057  0.1105  0.1259  1.1834
10175TIP3    H152016   6.040   2.092   3.043  0.2651  1.2701  0.6902
10175TIP3    H252017   5.946   2.193   3.105 -0.6857  0.5833  0.3683
10176TIP3   OH252018   0.666   5.771   5.332  0.0658  0.5812 -0.4674
10176TIP3    H152019   0.749   5.815   5.313 -0.0626  1.8347  1.6799
10176TIP3    H252020   0.690   5.679   5.343  1.3771  1.0683  1.0917
10177TIP3   OH252021   0.325   1.075  12.288  0.2497  0.1674 -0.0182
10177TIP3    H152022   0.241   1.118  12.274  0.3976  0.9280  1.4537
10177TIP3    H252023   0.303   0.992  12.329  0.2069  0.2383  0.1002
10178TIP3   OH252024   5.096   3.218  13.715  0.3191 -0.1271 -0.0719
10178TIP3    H152025   5.151   3.145  13.745 -0.3904 -0.1379  1.2315
10178TIP3    H252026   5.055   3.251  13.794  0.3294  1.4564 -0.7190
10179TIP3   OH252027   6.704   5.074  11.503 -0.6345 -0.1638  0.2805
10179TIP3    H152028   6.691   5.169  11.506 -0.3178 -0.0806 -0.7581
10179TIP3    H252029   6.616   5.038  11.489 -0.5107  0.0876 -1.1986
10180TIP3   OH252030   3.551   4.824  13.390 -0.0112  0.3656  0.2164
10180TIP3    H152031   3.527   4.883  13.318  3.1689  1.1188 -0.3426
10180TIP3    H252032   3.551   4.737  13.351 -1.1572  0.4284  0.0727
10181TIP3   OH252033   2.247   1.510  12.487 -0.3247 -0.9848  0.9618
10181TIP3    H152034   2.307   1.470  12.423 -0.2584 -1.3703  1.2629
10181TIP3    H252035   2.232   1.441  12.552 -0.4440 -0.6141  1.3274
10182TIP3   OH252036   2.529   3.627  11.888  0.0666 -0.1840 -0.3907
10182TIP3    H152037   2.603   3.662  11.838  0.6925  1.8353  1.8933
10182TIP3    H252038   2.466   3.698  11.893 -0.3980 -0.6662  0.8900
10183TIP3   OH252039   0.798   2.349  16.629 -0.6348 -0.6688  0.4521
10183TIP3    H152040   0.842   2.268  16.654 -0.4726 -0.1641  1.8500
10183TIP3    H252041   0.738   2.324  16.558 -0.9801 -2.1142  1.2411
10184TIP3   OH252042   6.153   1.046  15.583  0.7495 -0.2816  0.5590
10184TIP3    H152043   6.192   1.030  15.669  0.1321  0.2870  0.9481
10184TIP3    H252044   6.228   1.063  15.526  1.1537 -0.4934  1.0250
10185TIP3   OH252045   0.145   1.256   5.167  0.2090 -0.1029 -0.0595
10185TIP3    H152046   0.097   1.198   5.226  1.2738 -0.9856 -0.0482
10185TIP3    H252047   0.192   1.315   5.226  3.0088 -2.3703  0.0929
10186TIP3   OH252048   3.405   6.777   4.775 -0.5472  0.2460 -0.2042
10186TIP3    H152049   3.341   6.836   4.817  1.2645  1.4770  0.9253
10186TIP3    H252050   3.482   6.783   4.831  0.3979 -1.5988 -1.2808
10187TIP3   OH252051   2.466   4.859   4.008  0.5937  0.9097 -0.3172
10187TIP3    H152052   2.539   4.909   3.973  2.4938 -1.1715  0.5789
10187TIP3    H252053   2.502   4.811   4.082 -1.4865 -0.7412 -0.3088
10188TIP3   OH252054   3.584   1.712  12.725 -0.3175  0.0121  0.2578
10188TIP3    H152055   3.621   1.692  12.811  0.1047  1.6287  0.4788
10188TIP3    H252056   3.635   1.659  12.664 -1.7111 -2.4019  1.1322
10189TIP3   OH252057   0.445   4.385   4.382 -0.3453 -0.8400  0.2778
10189TIP3    H152058   0.443   4.398   4.287 -0.2673 -1.2917  0.2160
10189TIP3    H252059   0.377   4.321   4.399 -0.7731 -0.2964  0.5993
10190TIP3   OH252060   4.637   2.524  11.552  0.5212 -0.5227 -0.4330
10190TIP3    H152061   4.707   2.564  11.603 -0.5079 -0.1373  0.7013
10190TIP3    H252062   4.639   2.569  11.468  0.3200  0.9002  0.3117
10191TIP3   OH252063   0.335   6.236   4.935 -0.9411 -0.1616  0.5122
10191TIP3    H152064   0.262   6.174   4.942 -1.8099  0.7073 -0.7544
10191TIP3    H252065   0.294   6.320   4.915  0.4121  0.3202 -0.3154
10192TIP3   OH252066   3.937   4.500   2.818 -0.5620 -0.5106 -0.0795
10192TIP3    H152067   3.843   4.495   2.802 -0.7712  3.1562 -0.3928
10192TIP3    H252068   3.975   4.526   2.734  0.6171 -0.9498  0.3073
10193TIP3   OH252069   3.183   3.664   6.143  0.1065 -0.2055  0.0448
10193TIP3    H152070   3.262   3.645   6.193  0.1041 -2.5711 -0.7588
10193TIP3    H252071   3.121   3.595   6.169 -0.9444  0.3408 -0.9384
10194TIP3   OH252072   2.131   2.471   4.761 -0.2089  0.2910  0.4716
10194TIP3    H152073   2.074   2.411   4.714 -2.1664 -0.0290  3.1063
10194TIP3    H252074   2.207   2.418   4.784 -0.5450 -0.3392  0.1572
10195TIP3   OH252075   0.867   0.895  16.931 -0.0545 -0.1558  0.0381
10195TIP3    H152076   0.838   0.986  16.943 -0.1260 -0.4981  2.7493
10195TIP3    H252077   0.925   0.899  16.855  0.5357  2.2963  0.5577
10196TIP3   OH252078   2.270   5.814   2.079  0.1811  0.4891 -1.0752
10196TIP3    H152079   2.330   5.743   2.061 -1.6050 -1.1305 -0.7906
10196TIP3    H252080   2.326   5.885   2.110  1.7701 -1.6008  1.0213
10197TIP3   OH252081   3.608   4.455   3.674 -0.2422 -0.2327 -0.7680
10197TIP3    H152082   3.562   4.513   3.613  0.1705  2.3797  1.3519
10197TIP3    H252083   3.684   4.505   3.703  1.6006 -2.8652 -0.8913
10198TIP3   OH252084   2.065   4.115   5.781 -0.5756  0.1073  0.4115
10198TIP3    H152085   2.023   4.043   5.735 -1.1383  0.4071  0.4566
10198TIP3    H252086   2.097   4.077   5.863  0.2785 -0.3910 -0.1356
10199TIP3   OH252087   0.133   6.563  13.773 -0.1128  0.0159  0.1491
10199TIP3    H152088   0.144   6.505  13.848 -1.0822 -1.9350 -1.1806
10199TIP3    H252089   0.126   6.504  13.698  1.2120  1.9352 -1.5360
10200TIP3   OH252090   2.535   4.518   2.517 -0.0926 -0.2712  0.3689
10200TIP3    H152091   2.569   4.566   2.593  0.6662 -0.8393  0.3945
10200TIP3    H252092   2.574   4.561   2.442 -0.5621  0.0668  0.3177
10201TIP3   OH252093   6.364   3.372   3.903  0.2371 -0.1062  0.3644
10201TIP3    H152094   6.446   3.422   3.902  0.1444  0.2870 -5.4191
10201TIP3    H252095   6.390   3.284   3.875 -1.1934 -0.1487 -0.8673
10202TIP3   OH252096   1.037   4.161   2.304  0.3477  0.5217  0.4450
10202TIP3    H152097   1.017   4.155   2.211 -0.9703  2.3463  0.5832
10202TIP3    H252098   1.042   4.070   2.333 -0.4386 -0.0628 -1.1648
10203TIP3   OH252099   2.708   5.491  11.977  0.0975  0.0245 -0.0818
10203TIP3    H152100   2.779   5.497  11.912  0.0042  1.9267 -0.0508
10203TIP3    H252101   2.638   5.546  11.941 -1.4138 -1.9127 -0.1469
10204TIP3   OH252102   6.157   3.654  17.066  0.2190 -0.7231  0.0778
10204TIP3    H152103   6.159   3.670  16.971 -1.6570  0.0163  0.1444
10204TIP3    H252104   6.203   3.729  17.104 -1.9277  0.6890 -0.0657
10205TIP3   OH252105   4.826   2.912  17.127 -0.7663 -0.4702 -0.0130
10205TIP3    H152106   4.769   2.928  17.203 -2.1028  0.1450 -1.1098
10205TIP3    H252107   4.849   3.000  17.096  2.7703 -0.6821  1.8147
10206TIP3   OH252108   2.332   6.568  16.179 -0.6276  0.0921  0.4417
10206TIP3    H152109   2.238   6.575  16.163 -0.5806  0.7861  0.4466
10206TIP3    H252110   2.348   6.475  16.191 -0.9715 -0.2605 -1.6669
10207TIP3   OH252111   0.267   2.024   6.791 -0.4327 -0.9714 -0.2926
10207TIP3    H152112   0.297   2.093   6.732 -2.0577 -0.6435 -0.7657
10207TIP3    H252113   0.238   2.070   6.869 -1.7968 -1.0725 -0.7225
10208TIP3   OH252114   0.469   0.770  12.637 -0.5354  0.3593  0.3345
10208TIP3    H152115   0.543   0.786  12.695  0.6344  0.3040 -1.0977
10208TIP3    H252116   0.465   0.675  12.629 -0.5499  0.3749  0.1510
10209TIP3   OH252117   4.383   3.079  13.383  0.5328 -0.2794 -0.2522
10209TIP3    H152118   4.408   3.126  13.303  0.7073 -0.8027 -0.5046
10209TIP3    H252119   4.298   3.039  13.361  0.6093 -0.4726 -0.1922
10210TIP3   OH252120   5.348   3.459   6.275  0.3260 -0.3485  0.0257
10210TIP3    H152121   5.359   3.552   6.257 -2.1364  0.3532  1.7582
10210TIP3    H252122   5.275   3.432   6.219  1.3180 -1.3477 -0.7936
10211TIP3   OH252123   4.431   3.676  15.688  0.8218 -0.4992 -0.1009
10211TIP3    H152124   4.498   3.735  15.723  0.4825 -0.1236 -0.0902
10211TIP3    H252125   4.410   3.713  15.602 -0.9942  0.6433  0.8279
10212TIP3   OH252126   1.468   5.604   5.286  0.0812  0.6446  0.6839
10212TIP3    H152127   1.465   5.695   5.258 -0.5129 -0.0584 -1.5953
10212TIP3    H252128   1.551   5.571   5.251 -0.6303 -0.2188 -0.2291
10213TIP3   OH252129   6.054   3.782  11.798  0.3907  0.7213  0.3455
10213TIP3    H152130   6.099   3.818  11.721  1.4887  1.3041  1.2409
10213TIP3    H252131   6.097   3.698  11.814  1.1749  1.2678  1.1871
10214TIP3   OH252132   0.209   3.563  12.689 -0.3454 -0.0739  0.1627
10214TIP3    H152133   0.206   3.547  12.783  0.0269 -0.2277  0.1494
10214TIP3    H252134   0.208   3.658  12.681 -3.3590 -0.0543  0.2164
10215TIP3   OH252135   6.686   5.743  10.463 -0.3599  0.1600  0.2501
10215TIP3    H152136   6.755   5.707  10.407  0.1352  0.8687  0.4042
10215TIP3    H252137   6.713   5.833  10.481 -1.6442  0.6578 -0.2090
10216TIP3   OH252138   4.597   6.380  15.640 -0.0880  0.0979 -0.5174
10216TIP3    H152139   4.566   6.326  15.713  0.3802  2.2195  1.2984
10216TIP3    H252140   4.669   6.330  15.603  1.8243  0.4279  2.5431
10217TIP3   OH252141   2.332   2.913   3.401  0.3767 -0.0027  0.2440
10217TIP3    H152142   2.370   2.994   3.435  1.4953 -0.4697  0.1179
10217TIP3    H252143   2.405   2.868   3.359  0.3113 -2.2124  2.3875
10218TIP3   OH252144   4.994   4.824  12.698  0.4890 -0.0873 -0.3010
10218TIP3    H152145   4.967   4.733  12.703  1.6043 -0.3669  1.3309
10218TIP3    H252146   4.924   4.868  12.650 -0.3270 -1.6885 -0.6132
10219TIP3   OH252147   5.586   4.783  16.277 -0.0225  0.8346  0.2826
10219TIP3    H152148   5.645   4.815  16.345 -0.7425  0.1887  1.2142
10219TIP3    H252149   5.498   4.798  16.311 -0.3850 -0.5881  0.0265
10220TIP3   OH252150   3.524   0.412  15.181 -0.2194 -0.3538  0.5440
10220TIP3    H152151   3.474   0.380  15.106  1.4300 -0.8380 -0.3820
10220TIP3    H252152   3.498   0.356  15.253  0.0164 -1.5007 -0.2501
10221TIP3   OH252153   3.594   5.377  13.565  0.1914 -0.2891 -0.2671
10221TIP3    H152154   3.658   5.432  13.521 -0.2271  0.1673 -0.3071
10221TIP3    H252155   3.543   5.338  13.493  1.1427 -1.5306 -0.2841
10222TIP3   OH252156   2.206   0.336   3.244 -0.4699 -0.2913  0.8811
10222TIP3    H152157   2.292   0.378   3.240 -0.2001 -0.8222  0.9781
10222TIP3    H252158   2.155   0.378   3.175 -1.0429  2.0215  2.6534
10223TIP3   OH252159   3.497   5.534  12.429  0.2585  0.0256  0.5934
10223TIP3    H152160   3.542   5.548  12.346  0.0061 -2.3033  0.0369
10223TIP3    H252161   3.557   5.569  12.495  2.9695 -3.0042 -0.1233
10224TIP3   OH252162   5.680   3.861  13.459 -0.0520 -0.6221 -0.4729
10224TIP3    H152163   5.749   3.912  13.502 -0.9337 -0.7550  1.1420
10224TIP3    H252164   5.657   3.913  13.382  1.5312 -0.3627 -0.7937
10225TIP3   OH252165   3.344   5.986  13.924  0.3338 -0.0643 -0.0894
10225TIP3    H152166   3.397   5.979  14.004 -0.1602  0.0787  0.2556
10225TIP3    H252167   3.281   6.056  13.944 -0.4501 -0.7199 -0.2201
10226TIP3   OH252168   1.109   0.938  10.664  0.2123  0.4910 -0.0200
10226TIP3    H152169   1.080   0.902  10.581  1.6486 -0.2804 -0.1947
10226TIP3    H252170   1.129   1.030  10.645 -1.1587  0.7777 -0.1098
10227TIP3   OH252171   2.241   0.223   1.852 -0.3114  0.7260 -0.1674
10227TIP3    H152172   2.213   0.237   1.942 -1.1535  0.5812 -0.3968
10227TIP3    H252173   2.176   0.163   1.816  0.8694 -0.3871 -0.4376
10228TIP3   OH252174   5.093   3.827  17.147 -0.0822 -0.2773  0.5581
10228TIP3    H152175   5.144   3.773  17.087  0.3077 -0.2141  0.8323
10228TIP3    H252176   5.040   3.765  17.197 -0.5847 -0.3142 -0.0102
10229TIP3   OH252177   6.029   1.665  12.571 -0.3139 -0.9774 -0.3140
10229TIP3    H152178   6.024   1.760  12.561 -0.2192 -0.9274  0.1092
10229TIP3    H252179   6.055   1.634  12.484  1.9540 -0.4172  0.1310
10230TIP3   OH252180   3.601   2.100   1.535 -0.4309  0.4463  0.0749
10230TIP3    H152181   3.525   2.042   1.544  1.3704 -1.8697  0.7534
10230TIP3    H252182   3.646   2.069   1.457  1.7182 -0.4905  1.6427
10231TIP3   OH252183   5.267   6.028  16.869 -0.1565  0.3798  0.0788
10231TIP3    H152184   5.306   5.973  16.801 -1.2267 -0.4586  0.1308
10231TIP3    H252185   5.332   6.097  16.884  2.1362 -1.9659  1.4042
10232TIP3   OH252186   2.770   4.905   3.074  0.1565 -0.6513 -0.2868
10232TIP3    H152187   2.846   4.910   3.017  0.2426 -1.9961 -0.3112
10232TIP3    H252188   2.724   4.825   3.046 -2.6469  1.4566 -1.9978
10233TIP3   OH252189   6.674   1.284  10.631  0.1221  0.1619  0.2716
10233TIP3    H152190   6.692   1.222  10.560  0.1192  0.1119  0.3139
10233TIP3    H252191   6.580   1.301  10.625  0.0774 -0.0345  0.4185
10234TIP3   OH252192   1.679   6.148  13.942 -0.1430  0.5185 -0.0114
10234TIP3    H152193   1.613   6.202  13.898 -3.4516 -3.5484 -0.3057
10234TIP3    H252194   1.639   6.125  14.026  0.7045 -2.2598 -0.3176
10235TIP3   OH252195   4.712   3.624  10.655 -0.3200 -0.1294  0.3145
10235TIP3    H152196   4.681   3.545  10.610 -0.3908 -1.3080  2.3319
10235TIP3    H252197   4.648   3.691  10.633 -0.8128 -0.8975 -0.6386
10236TIP3   OH252198   0.855   6.715  11.629  0.2968  0.4564 -0.5506
10236TIP3    H152199   0.869   6.641  11.689 -1.4120  0.8302  0.3391
10236TIP3    H252200   0.776   6.692  11.580  0.4738  1.1280 -1.1708
10237TIP3   OH252201   3.303   0.393  13.290 -0.1711  0.2899 -0.1441
10237TIP3    H152202   3.230   0.440  13.331 -0.6002 -0.8438  0.4359
10237TIP3    H252203   3.318   0.439  13.207 -0.1453  1.8186  0.6966
10238TIP3   OH252204   3.665   0.855   5.865 -0.4131  0.0569  0.2823
10238TIP3    H152205   3.588   0.905   5.836 -0.7056 -1.1139 -1.0014
10238TIP3    H252206   3.688   0.893   5.950 -1.1970  1.7456 -0.2490
10239TIP3   OH252207   6.493   4.698   4.766 -0.0953 -0.0535 -0.4293
10239TIP3    H152208   6.494   4.760   4.839 -2.0748 -1.9772  1.2977
10239TIP3    H252209   6.564   4.728   4.709 -0.2648  3.1110  0.8877
10240TIP3   OH252210   1.645   6.341   3.104  0.1213  0.3842  0.2280
10240TIP3    H152211   1.559   6.376   3.129  0.2480  0.6596  0.2768
10240TIP3    H252212   1.687   6.318   3.187  1.0453  2.4741  0.3752
10241TIP3   OH252213   5.211   2.706   1.560 -0.7510 -0.0004  0.2745
10241TIP3    H152214   5.280   2.657   1.606 -0.0301  0.1769 -0.5940
10241TIP3    H252215   5.200   2.660   1.477 -0.2046  1.1687 -0.4644
10242TIP3   OH252216   3.537   3.782  15.103 -0.3885  0.0088  0.5307
10242TIP3    H152217   3.454   3.757  15.062 -0.1090  1.4388 -0.9770
10242TIP3    H252218   3.578   3.699  15.127 -0.5439 -0.9040 -2.1960
10243TIP3   OH252219   2.800   4.863   6.455 -0.0379 -0.3007  0.4297
10243TIP3    H152220   2.889   4.830   6.440 -0.2252 -0.1343 -1.1288
10243TIP3    H252221   2.812   4.947   6.499  0.5797 -0.2325  0.1361
10244TIP3   OH252222   1.373   1.976   6.766  0.2955  0.7575 -0.0210
10244TIP3    H152223   1.283   1.948   6.747  0.1798 -0.4230  2.0812
10244TIP3    H252224   1.417   1.974   6.681 -1.0634 -0.9376 -0.7312
10245TIP3   OH252225   0.540   4.055   4.954 -0.3670  0.2262  0.0161
10245TIP3    H152226   0.634   4.038   4.967 -0.5196 -1.1171 -0.5942
10245TIP3    H252227   0.535   4.149   4.939  0.6366  0.6815  2.2567
10246TIP3   OH252228   1.423   3.454   0.416  0.9258 -0.2483  0.3067
10246TIP3    H152229   1.412   3.494   0.330  0.1412 -0.3158  0.3701
10246TIP3    H252230   1.394   3.364   0.405  2.2245 -0.6731  0.2849
10247TIP3   OH252231   2.697   1.080  11.436  0.5561  0.2500 -0.5160
10247TIP3    H152232   2.664   1.008  11.382 -0.9488 -0.0710  0.8071
10247TIP3    H252233   2.776   1.046  11.476  0.3682 -0.3359 -0.6412
10248TIP3   OH252234   4.782   0.001   5.240  0.1825  0.1003 -0.2159
10248TIP3    H152235   4.871   0.034   5.225 -0.4804  1.5119 -1.1916
10248TIP3    H252236   4.744  -0.005   5.152 -1.6585  2.3581  0.3657
10249TIP3   OH252237   4.143   0.497   3.948 -0.1206 -0.0302  0.2778
10249TIP3    H152238   4.122   0.582   3.908  1.5760  0.2176 -0.1111
10249TIP3    H252239   4.212   0.460   3.893  0.9261 -0.5271  1.8812
10250TIP3   OH252240   5.783   2.893   0.401  0.3545 -0.1934 -0.0684
10250TIP3    H152241   5.722   2.828   0.435  2.4259 -1.1092  2.0462
10250TIP3    H252242   5.809   2.943   0.478  0.3225  1.8650 -1.3616
10251TIP3   OH252243   3.657   5.420  11.951 -0.9660 -0.1908 -0.5631
10251TIP3    H152244   3.615   5.495  11.910  0.8085  1.3677  0.3682
10251TIP3    H252245   3.603   5.401  12.028 -1.0478  0.5740 -0.4295
10252TIP3   OH252246   4.835   5.843   3.051  0.3068  0.1215  0.1877
10252TIP3    H152247   4.810   5.859   2.960  2.5415  1.7927 -0.1669
10252TIP3    H252248   4.837   5.929   3.091  0.4659 -0.4954  1.5213
10253TIP3   OH252249   2.420   5.205   0.944 -0.5263 -0.0918  0.2570
10253TIP3    H152250   2.347   5.153   0.910 -0.6097  0.4441 -0.3728
10253TIP3    H252251   2.418   5.286   0.894  1.1014 -0.4632 -0.4412
10254TIP3   OH252252   6.596   6.070   2.363 -0.4101 -0.1533  0.1740
10254TIP3    H152253   6.596   6.132   2.436  1.2743 -1.1949  1.0901
10254TIP3    H252254   6.617   5.985   2.403  0.9340 -0.6749 -1.5566
10255TIP3   OH252255   6.287   1.939  12.063 -0.3153 -0.5028  0.1501
10255TIP3    H152256   6.230   1.971  11.993 -0.1182 -0.2310  0.1150
10255TIP3    H252257   6.367   1.991  12.055  0.5259 -1.8751 -0.7391
10256TIP3   OH252258   2.679   3.340   2.859 -0.2339 -0.3462 -0.5394
10256TIP3    H152259   2.691   3.359   2.766 -1.1604 -1.9825 -1.0062
10256TIP3    H252260   2.716   3.252   2.871 -1.8707 -0.9569  0.2181
10257TIP3   OH252261   2.613   4.182  11.506  0.4076  0.4346 -0.5865
10257TIP3    H152262   2.560   4.117  11.551  0.0506  1.9115  1.1930
10257TIP3    H252263   2.550   4.243  11.468  0.7505  0.0004 -1.8987
10258TIP3   OH252264   4.595   6.767   0.187 -0.2796  0.0575 -0.1518
10258TIP3    H152265   4.606   6.694   0.248  1.1512 -1.5408 -2.2316
10258TIP3    H252266   4.501   6.772   0.172 -0.3306 -1.9190 -0.6259
10259TIP3   OH252267   2.486   3.607  13.275  0.2772 -0.1956  0.2020
10259TIP3    H152268   2.444   3.525  13.250 -3.9225  1.4691  1.3606
10259TIP3    H252269   2.499   3.600  13.369  2.1751 -0.4145 -0.0395
10260TIP3   OH252270   3.925   1.325  14.222 -0.4214  0.0259 -0.0909
10260TIP3    H152271   3.903   1.375  14.143 -0.6007  0.8289  0.4665
10260TIP3    H252272   3.844   1.323  14.272 -0.3195 -0.5312  0.0572
10261TIP3   OH252273   4.909   5.663  15.224 -0.2547 -0.1505 -0.0239
10261TIP3    H152274   4.899   5.698  15.135  3.2577  2.5813  0.5473
10261TIP3    H252275   4.870   5.730  15.280  2.2946  0.6963  0.7844
10262TIP3   OH252276   4.542   0.358   5.270 -0.1885 -0.2565 -0.5861
10262TIP3    H152277   4.481   0.347   5.343 -3.0813  0.1848 -2.8162
10262TIP3    H252278   4.556   0.270   5.237  1.5306 -0.5156  0.7700
10263TIP3   OH252279   4.812   0.862   2.644 -0.3983 -0.6093 -0.2167
10263TIP3    H152280   4.876   0.816   2.699 -0.7454  0.1527  0.8299
10263TIP3    H252281   4.824   0.954   2.666 -2.3514 -0.5226  0.5401
10264TIP3   OH252282   0.335   2.543   3.870  0.5329  0.1996  0.7502
10264TIP3    H152283   0.381   2.616   3.913 -0.6947  0.7576  1.1260
10264TIP3    H252284   0.248   2.577   3.851  0.5559 -0.5702 -0.7720
10265TIP3   OH252285   2.357   4.672  15.292  0.6719 -0.4530  0.2769
10265TIP3    H152286   2.398   4.758  15.281  0.2702 -0.5766 -2.7874
10265TIP3    H252287   2.412   4.613  15.241 -1.4946 -1.1825 -1.2998
10266TIP3   OH252288   1.587   2.957  11.496  0.2273  0.6014  0.6072
10266TIP3    H152289   1.576   2.901  11.573 -0.3486 -1.5706 -1.0136
10266TIP3    H252290   1.647   2.908  11.439 -0.9705  1.2248 -1.2282
10267TIP3   OH252291   5.545   1.521  12.196 -1.0454  0.6095 -0.0174
10267TIP3    H152292   5.564   1.461  12.123 -0.4473  0.3483  0.3516
10267TIP3    H252293   5.572   1.607  12.163 -1.0793  0.5411 -0.2280
10268TIP3   OH252294   5.998   4.127   5.298 -0.3138 -0.0521  0.0601
10268TIP3    H152295   6.077   4.114   5.350 -0.1030  0.1614 -0.2031
10268TIP3    H252296   5.926   4.115   5.359 -0.0872 -0.7244  0.1983
10269TIP3   OH252297   0.880   5.028   4.662  0.1393 -0.0704  0.3219
10269TIP3    H152298   0.957   5.025   4.720  0.8632  1.7590 -0.5276
10269TIP3    H252299   0.904   5.089   4.593 -1.9158  0.1417 -0.2329
10270TIP3   OH252300   1.361   4.416   5.221  0.3417  0.0602 -0.1165
10270TIP3    H152301   1.275   4.456   5.207  0.4446  0.2749 -0.1429
10270TIP3    H252302   1.342   4.330   5.258  0.1712  1.0617  2.2478
10271TIP3   OH252303   4.134   0.407  15.907  0.7194 -0.2024 -0.2970
10271TIP3    H152304   4.137   0.465  15.983  1.0383 -2.5256  1.5443
10271TIP3    H252305   4.223   0.371  15.901  0.4553 -0.7161 -1.2336
10272TIP3   OH252306   2.334   5.666  14.483 -0.4539 -0.2213 -0.6392
10272TIP3    H152307   2.394   5.592  14.470  1.2079  0.8819  0.7406
10272TIP3    H252308   2.319   5.669  14.577 -0.4507  1.2826 -0.6861
10273TIP3   OH252309   2.406   6.342   0.708  0.0675 -0.1628  0.0779
10273TIP3    H152310   2.364   6.389   0.780 -1.0786 -0.7520 -0.1974
10273TIP3    H252311   2.389   6.250   0.726  0.4248 -0.3568 -0.5537
10274TIP3   OH252312   2.347   2.316   1.492 -0.5241  0.4537 -0.0784
10274TIP3    H152313   2.364   2.396   1.542 -0.6506  0.4542 -0.0337
10274TIP3    H252314   2.351   2.344   1.401 -0.5339  0.5046 -0.0637
10275TIP3   OH252315   1.025   4.579  12.489  0.4425 -0.3307 -0.8375
10275TIP3    H152316   0.985   4.643  12.430  0.0084 -0.6695 -0.9099
10275TIP3    H252317   1.024   4.622  12.575  0.1134 -0.2559 -0.8779
10276TIP3   OH252318   5.758   6.386  16.102  0.3118 -0.3660 -0.0369
10276TIP3    H152319   5.802   6.363  16.020 -0.4076 -0.2998 -0.4480
10276TIP3    H252320   5.671   6.348  16.095  0.5535 -1.1646  1.1004
10277TIP3   OH252321   1.245   4.326   2.150 -0.3267  0.1129 -0.6784
10277TIP3    H152322   1.338   4.312   2.172 -0.2400 -0.7530 -1.5601
10277TIP3    H252323   1.199   4.257   2.197 -0.3803 -0.2718 -1.2847
10278TIP3   OH252324   4.409   6.531   4.556 -0.1902 -0.4318  0.2544
10278TIP3    H152325   4.387   6.460   4.617 -1.8144 -0.3208 -0.1875
10278TIP3    H252326   4.389   6.495   4.469 -0.6936  0.4492 -0.0007
10279TIP3   OH252327   1.642   5.527  15.462  0.5826 -0.4130 -0.9077
10279TIP3    H152328   1.613   5.491  15.546  1.0088 -1.0167 -1.0096
10279TIP3    H252329   1.731   5.557  15.479 -0.3511  2.1556 -0.3857
10280TIP3   OH252330   6.298   0.309  15.934 -0.1062 -0.3569  0.1287
10280TIP3    H152331   6.353   0.381  15.903  0.2365 -0.9717 -0.7408
10280TIP3    H252332   6.358   0.235  15.943 -0.5389 -0.6603  0.5364
10281TIP3   OH252333   5.018   0.343  11.596 -0.1980 -0.1139  0.4323
10281TIP3    H152334   4.979   0.366  11.680 -2.7077 -0.9385 -0.4836
10281TIP3    H252335   4.962   0.274  11.561  1.5581 -0.6890 -1.3601
10282TIP3   OH252336   1.923   1.145  16.847  0.0936  0.1120 -0.1900
10282TIP3    H152337   1.844   1.157  16.900  1.6164  0.8684  1.9843
10282TIP3    H252338   1.930   1.226  16.796 -0.7929 -0.1668 -0.7642
10283TIP3   OH252339   1.473   1.497  14.904  0.1796 -0.0993 -0.0320
10283TIP3    H152340   1.449   1.509  14.812 -0.2983  0.5871  0.1852
10283TIP3    H252341   1.568   1.507  14.904  0.0119  1.7688 -0.1729
10284TIP3   OH252342   4.917   3.638   5.638 -0.3038 -0.4483 -0.1721
10284TIP3    H152343   4.937   3.590   5.558 -0.5074  0.8510 -1.0305
10284TIP3    H252344   4.881   3.721   5.607 -2.5729 -0.8481  1.2913
10285TIP3   OH252345   2.428   4.363  12.595  0.0475 -0.2746 -0.0676
10285TIP3    H152346   2.396   4.365  12.504  1.8245  1.3321 -0.6973
10285TIP3    H252347   2.518   4.332  12.588 -0.4246 -2.0725  1.3950
10286TIP3   OH252348   3.580   4.580  14.561 -0.0465 -0.3194 -0.0679
10286TIP3    H152349   3.588   4.636  14.484  0.9010 -1.0823 -0.5404
10286TIP3    H252350   3.670   4.553  14.580 -0.3721 -0.7983  0.8018
10287TIP3   OH252351   2.293   3.987   4.443  0.4142 -0.0690  0.5894
10287TIP3    H152352   2.300   3.931   4.366  0.2610 -0.5231  0.9007
10287TIP3    H252353   2.201   3.982   4.467  0.3577  0.5037  0.4818
10288TIP3   OH252354   0.955   6.406   1.561  0.0558 -0.2821 -0.8262
10288TIP3    H152355   0.972   6.497   1.538 -1.1421 -0.0886 -0.9657
10288TIP3    H252356   0.864   6.390   1.534 -0.5610 -0.7864  1.4592
10289TIP3   OH252357   1.521   6.333  13.161  0.1380  0.4602  0.0277
10289TIP3    H152358   1.454   6.265  13.164  1.5761 -0.9268  1.6289
10289TIP3    H252359   1.486   6.405  13.214 -0.4579  0.1186  0.0927
10290TIP3   OH252360   5.776   0.690   1.134  0.5293  0.4025  0.4584
10290TIP3    H152361   5.738   0.636   1.203  0.9132 -0.5250 -0.0469
10290TIP3    H252362   5.701   0.736   1.095  0.1204 -0.2602  0.4676
10291TIP3   OH252363   1.838   2.958  13.183  0.3440  0.5822 -0.2957
10291TIP3    H152364   1.927   2.924  13.181  1.2231  2.7448  0.1098
10291TIP3    H252365   1.838   3.029  13.119 -1.0088  0.8053 -0.0713
10292TIP3   OH252366   1.756   0.754  13.759 -0.5812 -0.1629  0.2653
10292TIP3    H152367   1.818   0.686  13.785  1.5681  1.0301 -1.5176
10292TIP3    H252368   1.674   0.707  13.743  1.2791 -2.6507 -2.5988
10293TIP3   OH252369   2.128   2.504   1.664 -0.1502  0.2261 -0.1878
10293TIP3    H152370   2.222   2.515   1.649 -0.3075  0.2719 -1.1620
10293TIP3    H252371   2.123   2.435   1.731  0.5615  0.0028 -0.3597
10294TIP3   OH252372   2.640   0.971  12.523  0.3536 -0.1460  0.0288
10294TIP3    H152373   2.697   0.897  12.545  0.6610  0.2980  0.7823
10294TIP3    H252374   2.684   1.013  12.449  0.8920  0.0483  0.4467
10295TIP3   OH252375   5.639   0.775   2.488  0.4927 -0.6305  0.0990
10295TIP3    H152376   5.613   0.861   2.521  2.1962  0.0453 -0.2287
10295TIP3    H252377   5.595   0.712   2.544  0.4807  0.4817  1.3491
10296TIP3   OH252378   4.782   6.574  14.182 -0.0382 -0.0072 -0.5508
10296TIP3    H152379   4.718   6.600  14.248  2.6000  3.2518  0.8354
10296TIP3    H252380   4.732   6.573  14.100 -1.9736  2.0713  0.5352
10297TIP3   OH252381   4.161   0.936   3.457 -0.3053  0.4217 -0.4706
10297TIP3    H152382   4.118   1.014   3.493  1.1070  0.7205  0.6284
10297TIP3    H252383   4.203   0.966   3.377 -2.5934 -0.0039 -1.8543
10298TIP3   OH252384   4.422   3.385  16.303 -0.2524  0.1634  0.0961
10298TIP3    H152385   4.358   3.317  16.325 -1.2048  1.1669  0.5002
10298TIP3    H252386   4.384   3.430  16.227 -0.6668  1.5908  1.1310
10299TIP3   OH252387   0.932   2.312  14.856 -0.2647 -0.1270 -0.3557
10299TIP3    H152388   0.977   2.347  14.780 -0.6046  2.3779  0.5187
10299TIP3    H252389   0.884   2.236  14.824 -0.8753  1.2458 -2.7744
10300TIP3   OH252390   0.531   6.536   3.528 -0.0277 -0.8641 -0.9095
10300TIP3    H152391   0.550   6.442   3.537  1.6423 -0.4860 -0.2559
10300TIP3    H252392   0.436   6.541   3.521 -0.3983 -2.3783  2.1368
10301TIP3   OH252393   0.351   0.021  14.837  0.8582  0.1443 -0.2620
10301TIP3    H152394   0.365   0.037  14.931  0.0997  0.9272 -0.2751
10301TIP3    H252395   0.355   0.107  14.797  3.0291 -0.3707 -1.2215
10302TIP3   OH252396   0.136   1.405  13.623  0.0093  0.0175 -0.9960
10302TIP3    H152397   0.178   1.455  13.553 -0.9161  1.3652 -0.6047
10302TIP3    H252398   0.050   1.382  13.588 -0.4681  0.7227 -0.3060
10303TIP3   OH252399   4.123   6.806   3.558 -0.3677  0.2251  0.0742
10303TIP3    H152400   4.031   6.831   3.556 -0.3804  0.0403 -2.3182
10303TIP3    H252401   4.132   6.737   3.493  1.4988  0.3323  0.1693
10304TIP3   OH252402   4.823   6.087   3.172 -0.2508 -0.3624 -0.2159
10304TIP3    H152403   4.732   6.088   3.143 -0.6235 -1.6812  0.8229
10304TIP3    H252404   4.817   6.092   3.267  0.6857 -1.9186 -0.0580
10305TIP3   OH252405   6.051   4.389   3.137 -0.6482 -0.1463 -0.1310
10305TIP3    H152406   6.073   4.451   3.207 -3.2859 -1.0065  1.5421
10305TIP3    H252407   6.136   4.364   3.100  0.9082 -0.1533  3.1883
10306TIP3   OH252408   0.902   2.517   5.386  0.5526 -0.0718  0.7183
10306TIP3    H152409   0.852   2.526   5.305  1.2505 -0.4709  0.2395
10306TIP3    H252410   0.916   2.422   5.395  0.3820 -0.0421  1.3652
10307TIP3   OH252411   3.586   1.101   3.049 -0.1925  0.2740 -0.0915
10307TIP3    H152412   3.497   1.111   3.081 -0.4810  1.2500 -1.1626
10307TIP3    H252413   3.606   1.184   3.006  0.8196 -0.3513 -0.8599
10308TIP3   OH252414   6.220   6.621  17.189 -0.3536  0.1767 -0.0864
10308TIP3    H152415   6.261   6.708  17.194  0.0956 -0.1123  1.6047
10308TIP3    H252416   6.182   6.607  17.276  0.5668 -1.7825  0.0279
10309TIP3   OH252417   1.311   2.188   2.155  0.1574  0.5428 -0.0917
10309TIP3    H152418   1.382   2.246   2.129 -0.0443  0.5520 -0.6140
10309TIP3    H252419   1.233   2.242   2.149  0.2058  0.7974  1.3509
10310TIP3   OH252420   0.228   2.775  14.207 -0.0660  0.0838  0.5581
10310TIP3    H152421   0.243   2.748  14.298 -0.4024 -1.6102  0.1181
10310TIP3    H252422   0.301   2.735  14.158 -1.5080 -1.4762 -0.3593
10311TIP3   OH252423   6.075   5.310   4.189  0.0158  0.0447  0.1461
10311TIP3    H152424   6.013   5.347   4.126 -0.6639  2.1882  1.9916
10311TIP3    H252425   6.142   5.378   4.200  0.3237 -0.4355  1.4210
10312TIP3   OH252426   1.445   1.554   3.824 -0.0008  0.1209  0.3875
10312TIP3    H152427   1.422   1.638   3.783  1.4783  0.8359  0.9840
10312TIP3    H252428   1.455   1.493   3.750  1.4406  1.0971 -0.2568
10313TIP3   OH252429   0.434   1.630   6.382 -0.4173  0.0240  0.5958
10313TIP3    H152430   0.473   1.585   6.457  0.3569  1.0226  0.8053
10313TIP3    H252431   0.340   1.616   6.391 -0.2284 -1.0489  0.9765
10314TIP3   OH252432   5.305   2.173   1.594 -0.0492 -0.0527 -0.3275
10314TIP3    H152433   5.319   2.187   1.688 -0.9498 -0.2276 -0.1641
10314TIP3    H252434   5.215   2.141   1.588 -0.7088  1.9566 -1.4372
10315TIP3   OH252435   2.611   2.658   2.685  0.7035 -0.2809  0.7579
10315TIP3    H152436   2.530   2.681   2.728  0.3241  0.8869 -0.5286
10315TIP3    H252437   2.584   2.611   2.606  1.2495  0.6071  0.0340
10316TIP3   OH252438   5.093   1.078  11.580  0.0651  0.6749 -0.1842
10316TIP3    H152439   5.139   1.162  11.580 -0.1969  0.8200  0.3739
10316TIP3    H252440   5.042   1.079  11.499 -2.5368  2.5011  1.3948
10317TIP3   OH252441   1.005   3.658   4.656 -0.8816 -0.6925 -0.2398
10317TIP3    H152442   1.018   3.683   4.564 -0.1464 -0.6881 -0.1345
10317TIP3    H252443   1.007   3.741   4.704 -2.9120 -0.5162 -0.3913
10318TIP3   OH252444   4.924   3.066   2.450 -0.6534  0.4961  0.1308
10318TIP3    H152445   4.854   3.089   2.388  0.0518  1.3773 -0.3632
10318TIP3    H252446   4.922   2.971   2.455 -1.9990  0.5275  0.2458
10319TIP3   OH252447   6.659   3.006   1.494  0.4659  0.4619  0.4206
10319TIP3    H152448   6.644   2.922   1.537  0.4511 -0.7025 -1.7904
10319TIP3    H252449   6.572   3.037   1.471  0.4822  1.0058  1.0898
10320TIP3   OH252450   4.796   0.717   0.113 -0.2510 -0.0073  0.3743
10320TIP3    H152451   4.886   0.694   0.137  0.1132 -1.0989 -1.8608
10320TIP3    H252452   4.741   0.672   0.176  0.7797  1.7575  2.6076
10321TIP3   OH252453   4.115   5.256  11.733 -0.2561  0.3783 -0.0757
10321TIP3    H152454   4.061   5.328  11.765 -2.3743 -1.1434 -0.1417
10321TIP3    H252455   4.064   5.177  11.751  1.7470 -1.0780 -0.5656
10322TIP3   OH252456   2.358   6.265  11.904 -0.2246  0.1024 -0.1937
10322TIP3    H152457   2.288   6.253  11.968  2.9680  0.1411  3.5121
10322TIP3    H252458   2.375   6.176  11.871 -0.8829 -0.1615  0.1660
10323TIP3   OH252459   3.122   0.883  13.838  0.4564 -0.0670 -0.5411
10323TIP3    H152460   3.161   0.968  13.815  0.0025 -0.2508 -2.0365
10323TIP3    H252461   3.160   0.822  13.775 -0.9536 -0.5588 -0.9149
10324TIP3   OH252462   2.799   0.180  13.300 -0.2491 -0.2113 -0.0260
10324TIP3    H152463   2.728   0.230  13.341 -0.5299 -1.5152  1.1291
10324TIP3    H252464   2.784   0.190  13.206 -0.8121  1.1364  0.1939
10325TIP3   OH252465   1.804   5.459   6.224 -0.3105  0.3848 -0.2395
10325TIP3    H152466   1.827   5.410   6.145 -0.1608  0.7227 -0.4038
10325TIP3    H252467   1.878   5.445   6.283 -0.5535 -0.1086 -0.0460
10326TIP3   OH252468   4.695   1.952  15.780  0.1851 -0.3146 -0.5414
10326TIP3    H152469   4.768   1.895  15.806 -0.2062 -0.6859 -0.2472
10326TIP3    H252470   4.697   2.024  15.843 -1.3776 -1.7248  1.1556
10327TIP3   OH252471   1.013   1.150   5.058  0.0924 -0.2009 -0.3303
10327TIP3    H152472   1.053   1.200   4.987  1.9020 -1.9975 -0.6388
10327TIP3    H252473   1.082   1.143   5.124 -0.5817 -1.0544  0.3033
10328TIP3   OH252474   1.527   3.844  13.759  0.1640  0.0955  0.1443
10328TIP3    H152475   1.510   3.794  13.679 -0.1519  0.2196  0.1355
10328TIP3    H252476   1.450   3.899  13.770  0.2885  0.2110  0.4349
10329TIP3   OH252477   3.304   4.913   0.890  0.8403 -0.1411  0.3327
10329TIP3    H152478   3.354   4.831   0.884  0.2807 -0.3707 -1.5084
10329TIP3    H252479   3.216   4.885   0.916  0.9310 -0.0252  0.7571
10330TIP3   OH252480   5.653   5.352  12.531  0.1618 -0.4872  0.4186
10330TIP3    H152481   5.640   5.310  12.446 -0.7842 -0.6124  0.6190
10330TIP3    H252482   5.582   5.415  12.537 -0.3260 -1.1362  1.5251
10331TIP3   OH252483   4.910   6.581  16.063  0.2222  0.4171  0.2659
10331TIP3    H152484   4.902   6.515  16.133 -0.0218  0.9581  0.7479
10331TIP3    H252485   4.887   6.533  15.983  2.1122 -0.6311  0.3309
10332TIP3   OH252486   4.945   5.044   4.048  0.5128 -0.3654  0.1788
10332TIP3    H152487   4.942   5.057   4.142  2.8603  1.3369  0.0649
10332TIP3    H252488   4.870   4.988   4.029 -2.1801  2.2020  2.5685
10333TIP3   OH252489   4.147   4.060  12.775  0.4310 -0.1003 -0.0617
10333TIP3    H152490   4.056   4.079  12.801  0.0501 -1.0397 -0.6877
10333TIP3    H252491   4.172   4.136  12.722  0.9689  1.4903  2.3650
10334TIP3   OH252492   0.308   4.029  16.800 -0.2161  0.3099  0.5632
10334TIP3    H152493   0.345   4.008  16.714 -1.1527  0.8804  0.0114
10334TIP3    H252494   0.310   4.125  16.804 -0.7824  0.3078  0.9050
10335TIP3   OH252495   4.312   3.913   4.760  0.7518  0.0694 -1.2215
10335TIP3    H152496   4.239   3.973   4.742 -0.2438  0.3051  2.9188
10335TIP3    H252497   4.390   3.961   4.734 -0.2231  2.1684 -0.4320
10336TIP3   OH252498   3.696   3.798  17.114  0.2956 -0.3708 -0.3032
10336TIP3    H152499   3.708   3.826  17.023  1.0568 -2.3998 -0.8709
10336TIP3    H252500   3.785   3.793  17.150  0.1811 -1.7454 -0.1647
10337TIP3   OH252501   1.857   3.328  10.261  0.6412  0.2690 -0.4814
10337TIP3    H152502   1.838   3.237  10.283 -1.2423  0.7802  0.1697
10337TIP3    H252503   1.946   3.342  10.292 -0.4950 -0.1903  3.3427
10338TIP3   OH252504   0.047   3.953   1.118 -0.4416  0.0305  0.1306
10338TIP3    H152505  -0.034   3.939   1.167 -0.9895 -0.3632 -0.8870
10338TIP3    H252506   0.063   4.048   1.126  0.8185 -0.3629  3.1384
10339TIP3   OH252507   2.640   0.637  12.282  0.9237 -0.1964  0.1356
10339TIP3    H152508   2.731   0.621  12.309  1.3602  1.9022 -0.0454
10339TIP3    H252509   2.603   0.549  12.271  1.9771 -1.1198  3.3893
10340TIP3   OH252510   6.432   4.125  16.874 -0.7091 -0.1393 -1.3580
10340TIP3    H152511   6.426   4.180  16.796  0.1704  0.6196 -0.8927
10340TIP3    H252512   6.525   4.110  16.886 -0.7142  1.2305  0.5751
10341TIP3   OH252513   0.915   1.479  17.219 -0.4786  0.1871  0.4634
10341TIP3    H152514   0.962   1.555  17.185  2.0755 -1.1293  0.9362
10341TIP3    H252515   0.834   1.515  17.256 -0.5889  2.3217 -1.7213
10342TIP3   OH252516   4.892   2.798  14.571 -0.2987  0.9652  0.3657
10342TIP3    H152517   4.947   2.876  14.574 -1.4571  1.8148 -0.1211
10342TIP3    H252518   4.803   2.832  14.561 -0.6141 -0.4404 -2.0525
10343TIP3   OH252519   4.346   2.398  14.087  0.3565  0.3499  0.3830
10343TIP3    H152520   4.278   2.416  14.153 -0.6644  0.0435 -0.5652
10343TIP3    H252521   4.421   2.369  14.138 -1.3004 -2.6079  1.2952
10344TIP3   OH252522   1.048   3.542  12.348 -0.1745  0.2895  0.0121
10344TIP3    H152523   1.063   3.635  12.362 -0.4416  0.1393  1.3671
10344TIP3    H252524   1.115   3.499  12.401 -1.1708 -0.3087  0.8013
10345TIP3   OH252525   1.757   2.466   5.428 -0.0918 -0.4205 -0.0747
10345TIP3    H152526   1.765   2.561   5.419 -1.7823 -0.1486  1.1532
10345TIP3    H252527   1.827   2.432   5.373  1.1751  1.5570  0.2404
10346TIP3   OH252528   4.674   4.522  14.364  0.5317 -0.3113 -0.2468
10346TIP3    H152529   4.711   4.487  14.283 -0.3917 -1.1593 -0.3114
10346TIP3    H252530   4.601   4.577  14.335 -0.3983 -1.3800  0.0555
10347TIP3   OH252531   6.111   5.378   0.951  0.4954  0.0390  0.0470
10347TIP3    H152532   6.112   5.456   1.007 -0.5270 -0.2942  0.5584
10347TIP3    H252533   6.102   5.305   1.013  0.3317 -0.4067 -0.4979
10348TIP3   OH252534   0.912   5.578   3.472  0.3677  0.0340 -0.2716
10348TIP3    H152535   0.896   5.498   3.422  1.4357 -0.0754 -0.4433
10348TIP3    H252536   0.853   5.571   3.547  1.6723 -1.7545  0.6322
10349TIP3   OH252537   1.560   4.650  15.219 -0.5955 -0.7086  0.1618
10349TIP3    H152538   1.511   4.624  15.296  1.0485  1.3984  1.9815
10349TIP3    H252539   1.570   4.745  15.228  1.2465 -0.6929 -1.6714
10350TIP3   OH252540   1.393   5.218  11.798  0.2752  0.1427  0.0973
10350TIP3    H152541   1.468   5.162  11.780  0.6794  1.2405 -1.8128
10350TIP3    H252542   1.388   5.222  11.893  1.0071 -2.0798  0.2739
10351TIP3   OH252543   6.561   0.978  16.651  0.1419 -0.0299  0.1044
10351TIP3    H152544   6.486   1.036  16.658 -0.6437 -1.1723  1.5742
10351TIP3    H252545   6.537   0.915  16.583  0.6229  0.8113 -0.8565
10352TIP3   OH252546   5.000   4.080  17.118 -0.1547  0.2969 -0.0462
10352TIP3    H152547   5.063   4.151  17.109  0.4956 -0.3587 -0.6917
10352TIP3    H252548   5.053   4.002  17.133 -0.8675 -0.0522  0.7390
10353TIP3   OH252549   6.435   5.440   1.442  0.2085 -0.3433  0.2502
10353TIP3    H152550   6.487   5.432   1.361 -1.2967 -0.5859 -0.7134
10353TIP3    H252551   6.386   5.358   1.446 -1.3040  0.5563  0.2961
10354TIP3   OH252552   2.516   6.059   2.959  0.2977 -0.8157 -0.3336
10354TIP3    H152553   2.533   6.153   2.952 -0.8937 -0.5048  0.8041
10354TIP3    H252554   2.590   6.025   3.008  1.6227 -0.7734 -2.2309
10355TIP3   OH252555   6.254   4.452  16.253 -0.4955  0.2361  0.4739
10355TIP3    H152556   6.251   4.356  16.249  2.5132  0.1830 -2.0860
10355TIP3    H252557   6.313   4.471  16.326  1.5197  0.0228 -1.0449
10356TIP3   OH252558   1.396   2.461   2.765 -0.1136 -0.5245 -0.6635
10356TIP3    H152559   1.410   2.430   2.855 -1.5956 -1.5968 -0.7918
10356TIP3    H252560   1.301   2.462   2.754 -0.1803  4.0500 -0.6909
10357TIP3   OH252561   5.827   0.536   2.045  0.2911 -0.2087  0.4383
10357TIP3    H152562   5.832   0.627   2.074 -0.8417 -0.6159  1.9154
10357TIP3    H252563   5.910   0.498   2.073  1.7344  0.9042 -2.1397
10358TIP3   OH252564   4.251   2.611  12.874 -0.2222 -0.6592 -0.1291
10358TIP3    H152565   4.192   2.640  12.943 -0.1935  0.4167 -0.5586
10358TIP3    H252566   4.336   2.599  12.917  0.2932  1.9604 -0.3621
10359TIP3   OH252567   0.203   1.912  16.221 -0.0839 -0.2373 -0.2635
10359TIP3    H152568   0.264   1.960  16.165 -1.0051 -1.0958 -2.0650
10359TIP3    H252569   0.225   1.820  16.207 -0.2190 -0.4558  0.9349
10360TIP3   OH252570   3.359   5.335  14.621 -0.3752 -0.1445  0.0551
10360TIP3    H152571   3.434   5.277  14.631 -1.2818 -1.4342 -0.4684
10360TIP3    H252572   3.304   5.292  14.556 -2.2204  0.0667  1.4139
10361TIP3   OH252573   0.355   5.895  16.618  0.1271  0.1535 -0.4468
10361TIP3    H152574   0.423   5.828  16.613 -0.1031 -0.2631  1.5186
10361TIP3    H252575   0.273   5.845  16.625 -0.0650  0.6187  0.7548
10362TIP3   OH252576   2.543   2.720  15.943  0.6296  0.1746 -0.0464
10362TIP3    H152577   2.531   2.663  16.019  0.2959  0.8008  0.3767
10362TIP3    H252578   2.635   2.711  15.920  0.5159 -0.7418 -0.1474
10363TIP3   OH252579   6.721   6.161  16.465  0.1168 -0.2669 -0.0611
10363TIP3    H152580   6.796   6.117  16.427  1.6412 -0.7409  3.3222
10363TIP3    H252581   6.680   6.095  16.521 -0.2534  1.2335  1.4980
10364TIP3   OH252582   0.508   2.636   5.887  0.0379 -0.1336 -0.0268
10364TIP3    H152583   0.475   2.629   5.797 -0.9663  1.1614  0.2065
10364TIP3    H252584   0.445   2.586   5.939 -0.2635  0.3915  0.1267
10365TIP3   OH252585   1.531   2.729  16.058  0.0513  0.3476 -0.1120
10365TIP3    H152586   1.584   2.670  16.113  0.5665  1.2832  0.4236
10365TIP3    H252587   1.454   2.678  16.036  0.1011 -0.2536  1.0277
10366TIP3   OH252588   2.234   6.028  11.089  0.0561  0.4077  0.7630
10366TIP3    H152589   2.155   5.999  11.134  2.1503 -0.9333  3.7538
10366TIP3    H252590   2.256   5.955  11.030 -1.3996  1.1659 -0.7373
10367TIP3   OH252591   1.388   4.440  12.918 -0.1458 -0.5325  0.3962
10367TIP3    H152592   1.301   4.433  12.958 -0.6200  1.0262 -0.3351
10367TIP3    H252593   1.437   4.497  12.977 -0.2768  0.2755 -0.2634
10368TIP3   OH252594   4.756   3.491   1.778 -0.0771 -0.3310  0.4097
10368TIP3    H152595   4.686   3.522   1.720  0.8351 -0.3186 -0.7024
10368TIP3    H252596   4.710   3.442   1.846 -1.3151  1.1144  0.6519
10369TIP3   OH252597   0.080   0.255  16.985  0.2269  0.1396 -0.0092
10369TIP3    H152598   0.061   0.315  16.912 -0.5615 -0.2784 -0.1493
10369TIP3    H252599   0.084   0.169  16.944  0.9236  0.0329  0.2713
10370TIP3   OH252600   2.306   5.681   0.681 -0.3487 -0.0872  0.6666
10370TIP3    H152601   2.315   5.618   0.609 -1.8248  0.2072  0.2114
10370TIP3    H252602   2.363   5.754   0.655 -1.1226  0.1612 -0.3736
10371TIP3   OH252603   6.547   2.315   5.407 -0.0539 -0.1309  0.2847
10371TIP3    H152604   6.483   2.331   5.338 -0.4287 -0.8636  0.4651
10371TIP3    H252605   6.536   2.223   5.430 -0.5410  0.3130  1.9398
10372TIP3   OH252606   4.787   1.981  12.298 -0.9081 -0.3496  0.1622
10372TIP3    H152607   4.692   1.985  12.283 -0.6910 -0.5393 -1.3157
10372TIP3    H252608   4.826   2.018  12.219  0.2374  1.0929  1.3730
10373TIP3   OH252609   3.361   4.961   2.411  0.3311 -0.9488  0.0300
10373TIP3    H152610   3.398   5.014   2.482 -0.0183 -2.7764  1.6158
10373TIP3    H252611   3.422   4.887   2.403 -0.8383 -1.9190 -0.0239
10374TIP3   OH252612   1.573   4.226  12.868 -0.4288 -0.1166  0.7261
10374TIP3    H152613   1.525   4.159  12.818  0.1439 -2.0200  2.6484
10374TIP3    H252614   1.506   4.289  12.893 -0.9791  0.0672 -1.1690
10375TIP3   OH252615   4.462   1.292  10.722  0.3745  0.0332  0.2116
10375TIP3    H152616   4.478   1.315  10.814 -0.7905  2.2514 -0.1021
10375TIP3    H252617   4.523   1.346  10.672  0.6461 -0.7914 -0.3590
10376TIP3   OH252618   5.320   3.543  15.231 -0.0589 -0.0640  0.5086
10376TIP3    H152619   5.328   3.602  15.157 -1.7652 -1.4965 -0.8633
10376TIP3    H252620   5.226   3.540  15.249  0.2154 -0.7034  1.9262
10377TIP3   OH252621   2.818   2.596   0.494  0.0573  0.0314  0.0072
10377TIP3    H152622   2.886   2.663   0.488  0.0395  0.2724  2.0682
10377TIP3    H252623   2.809   2.580   0.588 -0.9796 -1.7995 -0.3840
10378TIP3   OH252624   4.521   4.483   2.649 -0.1160 -0.2095 -0.6705
10378TIP3    H152625   4.448   4.491   2.711  0.7951 -0.4586  0.4511
10378TIP3    H252626   4.540   4.389   2.647  1.7252  0.0968  0.8882
10379TIP3   OH252627   5.736   3.516   1.255 -0.1256 -0.3649  0.0837
10379TIP3    H152628   5.774   3.450   1.196  0.9517  0.5845 -0.3172
10379TIP3    H252629   5.654   3.540   1.213 -0.1215 -0.8501 -0.2089
10380TIP3   OH252630   0.820   3.423  11.784 -0.0596  0.0279  0.0510
10380TIP3    H152631   0.860   3.407  11.698 -2.9799 -1.7725 -1.0536
10380TIP3    H252632   0.781   3.510  11.776 -0.0700 -0.0115 -0.3392
10381TIP3   OH252633   4.597   4.941   5.328 -0.0646 -0.2391 -0.3024
10381TIP3    H152634   4.615   4.871   5.266 -0.7281 -0.7064  0.0186
10381TIP3    H252635   4.548   5.006   5.278  0.5722  0.0091 -0.6070
10382TIP3   OH252636   3.089   5.498   0.226  0.3406  0.1000  0.6489
10382TIP3    H152637   3.100   5.592   0.213 -0.8886  0.3943  1.5993
10382TIP3    H252638   3.028   5.471   0.157  0.2453  0.1041  0.7320
10383TIP3   OH252639   6.100   1.469   1.696  0.2708 -0.8255 -0.0286
10383TIP3    H152640   6.061   1.512   1.772  2.4773  0.2519  0.5286
10383TIP3    H252641   6.069   1.378   1.702  0.3096 -0.7298  2.1123
10384TIP3   OH252642   6.363   3.559  15.906  0.3960  0.6361 -0.4389
10384TIP3    H152643   6.318   3.484  15.945  0.3234  1.2761  0.7354
10384TIP3    H252644   6.368   3.538  15.813  1.4785 -1.3957  0.0433
10385TIP3   OH252645   4.133   2.594   1.194 -0.0689 -0.4660  0.5706
10385TIP3    H152646   4.121   2.630   1.106  0.6167 -1.0322  0.2396
10385TIP3    H252647   4.228   2.599   1.210  0.1262 -2.6770  0.2634
10386TIP3   OH252648   2.614   0.170   2.878  0.1653  0.1232 -0.4620
10386TIP3    H152649   2.706   0.192   2.860  0.6510 -1.0550  0.5230
10386TIP3    H252650   2.599   0.199   2.968 -0.3353  0.0009 -0.5027
10387TIP3   OH252651   1.520   6.435   2.773 -0.1168  0.1142  0.1081
10387TIP3    H152652   1.446   6.377   2.756 -1.5008  0.7865  3.2995
10387TIP3    H252653   1.485   6.523   2.760  0.5041  0.3969  0.3219
10388TIP3   OH252654   6.372   5.728   0.181  0.2974 -0.6911  0.2320
10388TIP3    H152655   6.287   5.714   0.223 -0.1820 -1.4728 -0.9469
10388TIP3    H252656   6.371   5.669   0.106  1.3374  0.2838 -0.5708
10389TIP3   OH252657   6.402   3.903  10.741  0.5407 -0.1389  1.0166
10389TIP3    H152658   6.469   3.842  10.771  0.0195 -0.9066  0.6404
10389TIP3    H252659   6.319   3.861  10.762  0.1746 -0.2226 -0.5401
10390TIP3   OH252660   2.177   3.749  17.198  0.6566  0.5650 -0.4176
10390TIP3    H152661   2.246   3.789  17.144  1.0445  1.2141  0.5431
10390TIP3    H252662   2.225   3.691  17.258  0.1454 -0.9049 -1.4058
10391TIP3   OH252663   1.289   2.352   5.412  0.4838  0.1243 -0.0928
10391TIP3    H152664   1.378   2.325   5.392  0.9630  0.9079  0.9682
10391TIP3    H252665   1.278   2.332   5.504 -0.7201 -0.7185 -0.4066
10392TIP3   OH252666   1.672   2.291   1.810 -0.7122 -0.1879  0.6387
10392TIP3    H152667   1.708   2.265   1.725 -0.2268  0.4811  0.6357
10392TIP3    H252668   1.642   2.209   1.849  2.4664 -1.0583  1.4039
10393TIP3   OH252669   4.018   4.748  14.570  0.2292  0.1866 -0.2140
10393TIP3    H152670   3.955   4.798  14.517 -0.9341 -1.6419 -0.6088
10393TIP3    H252671   3.979   4.661  14.577  2.3056 -0.7229  0.2985
10394TIP3   OH252672   2.454   4.573  15.706  0.5575  0.2781  0.4606
10394TIP3    H152673   2.498   4.568  15.621 -0.7828  2.2296 -0.4018
10394TIP3    H252674   2.363   4.548  15.687  0.4470 -0.1486  1.4995
10395TIP3   OH252675   4.662   2.974  12.193 -0.1448 -0.5017  0.2927
10395TIP3    H152676   4.569   2.957  12.176 -0.7542  1.8558  1.0309
10395TIP3    H252677   4.689   3.035  12.124  0.3890  0.1101  1.0237
10396TIP3   OH252678   1.173   1.787   3.025  0.0687  0.8267  0.1151
10396TIP3    H152679   1.105   1.763   3.089 -0.2784 -0.7344 -0.8027
10396TIP3    H252680   1.255   1.757   3.064 -0.2047 -0.6368 -0.3803
10397TIP3   OH252681   2.173   5.370   2.579 -0.4017  0.3069 -0.0204
10397TIP3    H152682   2.182   5.401   2.669 -1.8754 -0.5756  0.4396
10397TIP3    H252683   2.089   5.324   2.577 -1.0565  1.5374 -2.2124
10398TIP3   OH252684   0.079   5.223  13.268 -0.5859  0.1692 -0.4311
10398TIP3    H152685   0.063   5.153  13.205 -0.3518 -0.8680  0.6555
10398TIP3    H252686   0.173   5.241  13.261 -0.8554  1.2197 -1.5674
10399TIP3   OH252687   0.543   4.506   1.855 -0.0453  0.0792 -0.1817
10399TIP3    H152688   0.632   4.539   1.872 -0.8461  2.4547 -0.3809
10399TIP3    H252689   0.534   4.513   1.760 -0.2715 -0.6191 -0.2081
10400TIP3   OH252690   5.110   5.723  10.947  0.4411 -0.0700 -0.0619
10400TIP3    H152691   5.162   5.736  10.867  1.1824  3.0517  0.8890
10400TIP3    H252692   5.099   5.810  10.983 -1.3860 -1.2594  2.3650
10401TIP3   OH252693   6.098   0.664   0.378 -0.4570 -0.5130  0.5236
10401TIP3    H152694   6.053   0.654   0.293  1.4643 -1.5617 -0.4000
10401TIP3    H252695   6.044   0.614   0.439 -1.5316 -0.2668 -0.2005
10402TIP3   OH252696   2.064   4.698  14.733 -0.0456 -0.2373 -0.0012
10402TIP3    H152697   2.007   4.762  14.691  0.6731  0.2619 -0.2353
10402TIP3    H252698   2.007   4.624  14.752 -0.8867  0.4669  0.2625
10403TIP3   OH252699   6.384   2.878   5.902  0.2384  0.0022 -0.1838
10403TIP3    H152700   6.296   2.902   5.932  0.1504  0.7545 -1.0180
10403TIP3    H252701   6.441   2.943   5.943  0.3252 -0.0622 -0.2013
10404TIP3   OH252702   5.616   5.586   3.979  0.1761  0.3334  0.1672
10404TIP3    H152703   5.546   5.651   3.982 -1.0009 -0.9481  1.5481
10404TIP3    H252704   5.601   5.537   3.898 -1.2083 -0.6364  0.9842
10405TIP3   OH252705   5.077   3.588   0.639 -0.0500  0.1337  0.6669
10405TIP3    H152706   5.170   3.608   0.626  0.2396 -2.1719 -1.2502
10405TIP3    H252707   5.077   3.501   0.677 -1.4446 -0.6027 -0.9527
10406TIP3   OH252708   1.637   0.596   0.588  0.4646  0.1663  0.0998
10406TIP3    H152709   1.600   0.605   0.675  1.4988 -0.4705  0.6123
10406TIP3    H252710   1.624   0.504   0.564  1.2752  0.0527  0.0863
10407TIP3   OH252711   4.322   1.171   0.660  0.2958 -0.1425  0.3846
10407TIP3    H152712   4.398   1.146   0.608  0.4444 -1.8222  1.3832
10407TIP3    H252713   4.349   1.253   0.703  0.9057  0.1677 -0.5834
10408TIP3   OH252714   4.689   1.851   1.853 -0.0868 -0.1875 -0.0581
10408TIP3    H152715   4.623   1.893   1.909 -0.0471 -1.2488  0.8117
10408TIP3    H252716   4.773   1.879   1.889 -0.0553 -1.6657  1.0528
10409TIP3   OH252717   5.925   3.943  16.595  0.1280  0.1480 -0.5987
10409TIP3    H152718   5.850   3.993  16.562  0.7039  0.4855 -1.4070
10409TIP3    H252719   5.941   3.876  16.528 -1.3665 -1.8837  1.0186
10410TIP3   OH252720   5.674   1.655   0.112 -0.2420 -0.2643  0.1140
10410TIP3    H152721   5.712   1.618   0.192 -2.4324 -2.0534  0.3697
10410TIP3    H252722   5.580   1.647   0.125 -0.6835  2.0344 -1.4640
10411TIP3   OH252723   4.763   6.265   4.883 -0.0423 -0.2760 -0.0006
10411TIP3    H152724   4.769   6.170   4.898 -0.4038 -0.3305 -0.1864
10411TIP3    H252725   4.853   6.293   4.869  0.0015 -0.6953 -0.5736
10412TIP3   OH252726   2.232   4.335  14.244  0.0790  0.4323  0.4210
10412TIP3    H152727   2.244   4.276  14.318  1.2617  1.2433  0.8803
10412TIP3    H252728   2.317   4.378  14.233 -0.2352  0.7039 -1.0719
10413TIP3   OH252729   5.811   5.324  16.030  0.3080 -0.4610  0.0865
10413TIP3    H152730   5.718   5.300  16.023  0.5308 -1.5627  0.7787
10413TIP3    H252731   5.858   5.240  16.027  1.2402  0.0417  0.3583
10414TIP3   OH252732   2.884   3.880   5.905  0.0158  0.0636 -0.0039
10414TIP3    H152733   2.826   3.824   5.956  0.0360 -0.8358 -0.9431
10414TIP3    H252734   2.958   3.897   5.963  0.0648 -0.9883  0.2588
10415TIP3   OH252735   4.751   3.098  16.166  0.0351 -0.1696 -0.1763
10415TIP3    H152736   4.700   3.176  16.148  0.3957 -0.3100 -1.8603
10415TIP3    H252737   4.778   3.108  16.257 -1.9664  0.4760  0.3679
10416TIP3   OH252738   1.508   4.992  16.543  0.1698 -0.1379  0.0288
10416TIP3    H152739   1.488   4.899  16.533 -1.4185  0.0938  0.8151
10416TIP3    H252740   1.557   4.997  16.625 -1.2699 -0.0897  0.9003
10417TIP3   OH252741   5.774   4.107  12.318  0.0850 -0.0961  0.2920
10417TIP3    H152742   5.787   4.044  12.247 -1.7490 -0.3608  0.1659
10417TIP3    H252743   5.862   4.129  12.347  0.7858 -2.8642  0.4406
10418TIP3   OH252744   5.173   2.037   6.215 -0.5585 -0.7162  0.1477
10418TIP3    H152745   5.176   2.133   6.214 -1.5083 -0.6710  1.0687
10418TIP3    H252746   5.125   2.014   6.136 -1.6780 -0.3591  0.7033
10419TIP3   OH252747   4.893   5.301  13.013  0.6427  0.3432 -0.2025
10419TIP3    H152748   4.837   5.297  12.935 -0.7603  0.2899  0.7851
10419TIP3    H252749   4.891   5.212  13.048 -0.1252  0.7612  0.8347
10420TIP3   OH252750   2.040   3.685  16.142  0.3960 -0.1083  0.4064
10420TIP3    H152751   2.013   3.727  16.224  1.3989  2.7143 -0.6626
10420TIP3    H252752   2.089   3.608  16.171 -1.7460 -0.7880  2.4108
10421TIP3   OH252753   1.988   4.943   2.830 -0.0633 -0.6798 -0.4595
10421TIP3    H152754   1.894   4.925   2.834  0.0615 -1.1239  0.6771
10421TIP3    H252755   2.017   4.942   2.921  0.5104  2.3466 -0.5553
10422TIP3   OH252756   5.273   5.272   0.789  0.1658 -0.1426 -0.1297
10422TIP3    H152757   5.340   5.303   0.850  0.1523 -0.6938  0.1712
10422TIP3    H252758   5.315   5.199   0.744 -0.8067 -1.6167  1.2874
10423TIP3   OH252759   5.004   5.010   5.636  0.0818  0.1826  0.3142
10423TIP3    H152760   5.032   5.097   5.665  0.0540  1.3061 -2.8303
10423TIP3    H252761   4.917   5.024   5.598 -0.7816 -1.6129  1.5689
10424TIP3   OH252762   0.923   3.626  12.077  0.2506 -0.3741 -0.9098
10424TIP3    H152763   0.936   3.715  12.109 -1.9504 -0.9141  1.6967
10424TIP3    H252764   0.861   3.635  12.005  0.2518  0.2453 -0.8340
10425TIP3   OH252765   2.217   5.826  16.421 -0.8558  0.4100 -0.4524
10425TIP3    H152766   2.163   5.812  16.499  0.9150 -0.5933  0.6493
10425TIP3    H252767   2.249   5.738  16.399  0.9808  1.0736 -0.5549
10426TIP3   OH252768   3.495   3.457   4.250 -0.1884 -0.3019 -0.6021
10426TIP3    H152769   3.563   3.505   4.203 -0.3621  1.2132  0.6786
10426TIP3    H252770   3.541   3.416   4.323 -0.4159 -0.4123 -0.5200
10427TIP3   OH252771   5.518   2.269  16.042  0.6096 -0.4630  0.2410
10427TIP3    H152772   5.598   2.281  16.092  2.0488 -0.0592 -2.0872
10427TIP3    H252773   5.522   2.178  16.012 -1.9053 -1.7810  3.5861
10428TIP3   OH252774   4.750   4.718  14.027 -0.2150 -0.5314 -0.5167
10428TIP3    H152775   4.780   4.701  13.938 -1.5165 -3.3480 -0.5092
10428TIP3    H252776   4.727   4.631  14.060  2.5802  0.1308  3.4550
10429TIP3   OH252777   5.034   0.829   2.215  0.4303  0.2545  0.1652
10429TIP3    H152778   5.066   0.889   2.147 -1.2275  1.0338  0.0625
10429TIP3    H252779   5.003   0.752   2.167  1.0054  0.0031  0.1861
10430TIP3   OH252780   3.434   2.249   1.257  0.1508  0.0236 -0.2058
10430TIP3    H152781   3.464   2.268   1.168 -0.0627  0.6019 -0.1557
10430TIP3    H252782   3.398   2.161   1.252  0.9000 -0.2684 -0.5077
10431TIP3   OH252783   4.350   5.735   2.016  0.2496  0.4520  0.4246
10431TIP3    H152784   4.369   5.724   1.923  0.7676 -0.9308  0.6925
10431TIP3    H252785   4.351   5.830   2.029  0.1758  0.6552 -0.9756
10432TIP3   OH252786   4.673   5.461  12.115 -0.1275  0.5105 -0.1503
10432TIP3    H152787   4.648   5.482  12.205 -1.6933  0.6421 -0.6043
10432TIP3    H252788   4.602   5.495  12.061 -0.2452 -1.4370 -1.2850
10433TIP3   OH252789   3.384   4.779   4.093 -0.4686 -0.4860  0.1090
10433TIP3    H152790   3.470   4.747   4.065 -0.0373  0.3513  0.4823
10433TIP3    H252791   3.333   4.782   4.012 -0.4693 -1.9763  0.0454
10434TIP3   OH252792   5.149   2.811   0.592  0.1105 -0.2014 -0.1445
10434TIP3    H152793   5.082   2.775   0.649 -1.1582  0.7798 -0.9752
10434TIP3    H252794   5.231   2.802   0.641 -0.5201 -2.0592  0.5913
10435TIP3   OH252795   3.266   4.296  11.911  0.3764 -0.2839 -0.8121
10435TIP3    H152796   3.229   4.209  11.897  0.2395  0.0497 -2.6683
10435TIP3    H252797   3.361   4.282  11.914  0.2349 -0.9794  2.7673
10436TIP3   OH252798   3.171   0.852   4.871 -0.3521 -0.5698 -0.1381
10436TIP3    H152799   3.103   0.868   4.805  1.3153  0.2063 -1.7211
10436TIP3    H252800   3.249   0.830   4.819  1.1465  0.6191  1.5683
10437TIP3   OH252801   4.509   4.139   1.120 -0.6579 -0.0323  0.5688
10437TIP3    H152802   4.599   4.136   1.087 -0.9175 -1.4531 -0.0665
10437TIP3    H252803   4.513   4.193   1.198  0.7478 -0.0698  0.5286
10438TIP3   OH252804   1.699   1.568   0.222 -0.2168 -0.4908 -0.3715
10438TIP3    H152805   1.627   1.509   0.202  0.9263 -1.6227 -1.2260
10438TIP3    H252806   1.778   1.518   0.201  0.8183  0.7881  0.3785
10439TIP3   OH252807   3.409   0.848   2.839  0.1058 -0.0291 -0.3115
10439TIP3    H152808   3.323   0.818   2.808  0.8134 -1.3748 -0.9865
10439TIP3    H252809   3.434   0.917   2.777 -0.6877  0.7108  0.1689
10440TIP3   OH252810   2.241   4.971  14.463  0.4828 -0.3250  0.2169
10440TIP3    H152811   2.159   5.016  14.444 -0.0362 -0.9407  0.9866
10440TIP3    H252812   2.308   5.022  14.417 -0.0923  1.2750  1.1254
10441TIP3   OH252813   0.325   0.706   5.132 -0.5575  0.6426 -0.2211
10441TIP3    H152814   0.295   0.708   5.223 -1.4158  1.6700 -0.5246
10441TIP3    H252815   0.274   0.773   5.088  0.8209  1.0783 -1.1807
10442TIP3   OH252816   1.589   1.741  12.831  0.0397  0.2481  0.2645
10442TIP3    H152817   1.498   1.763  12.812  0.5829  1.8825 -0.5695
10442TIP3    H252818   1.587   1.700  12.917 -1.4394  0.5833  0.3990
10443TIP3   OH252819   1.823   0.365   3.897 -0.2004  0.4418 -0.0934
10443TIP3    H152820   1.779   0.298   3.948 -1.3351  1.3797  0.1808
10443TIP3    H252821   1.788   0.448   3.930 -0.3942  1.0900 -1.8659
10444TIP3   OH252822   5.442   3.298   0.284  0.6901 -0.3157 -0.0717
10444TIP3    H152823   5.476   3.214   0.314  0.8026 -0.2769 -0.0882
10444TIP3    H252824   5.350   3.282   0.265  0.1812  0.0904  1.9711
10445TIP3   OH252825   1.471   5.487  15.026  0.0745 -0.3022  0.3911
10445TIP3    H152826   1.473   5.582  15.036 -0.1443 -0.3562  0.9420
10445TIP3    H252827   1.378   5.465  15.022  0.1194 -0.5256  0.5826
10446TIP3   OH252828   3.910   1.356   2.347  0.1342  1.1143 -0.0001
10446TIP3    H152829   3.980   1.294   2.367 -1.1029 -0.8507 -1.4776
10446TIP3    H252830   3.928   1.385   2.258 -1.1625  0.2000 -0.5874
10447TIP3   OH252831   2.238   0.728   1.256  0.6076 -0.3162 -0.3469
10447TIP3    H152832   2.209   0.781   1.182  1.5345  0.4814 -0.1547
10447TIP3    H252833   2.320   0.770   1.284 -0.0050 -0.3037  1.4518
10448TIP3   OH252834   6.529   5.762  16.955 -0.3362  0.2116 -0.3507
10448TIP3    H152835   6.434   5.756  16.950 -0.3302  0.0965 -0.3341
10448TIP3    H252836   6.560   5.679  16.917 -0.2512  0.1077 -0.0549
10449TIP3   OH252837   5.562   6.383  15.844 -0.4697  0.3140 -0.2187
10449TIP3    H152838   5.497   6.408  15.910  1.3568  0.0159  1.7649
10449TIP3    H252839   5.635   6.444  15.859  0.7051 -0.9368 -0.7480
10450TIP3   OH252840   4.005   5.467   2.415 -0.3761  0.5639 -0.3765
10450TIP3    H152841   3.920   5.469   2.371  0.1940 -0.2940 -1.5137
10450TIP3    H252842   3.984   5.441   2.505 -1.2470 -0.1963 -0.7905
10451TIP3   OH252843   1.077   5.890   1.921  0.0018 -0.2401  0.2723
10451TIP3    H152844   1.006   5.843   1.878 -1.3933  1.8758  0.1480
10451TIP3    H252845   1.043   5.980   1.930  2.2266  0.5268  1.2355
10452TIP3   OH252846   4.247   1.785  17.156  0.0979  0.3756  0.1221
10452TIP3    H152847   4.257   1.881  17.158  0.0844  0.3524  2.0416
10452TIP3    H252848   4.327   1.753  17.116  1.4190  1.0462  2.1516
10453TIP3   OH252849   6.753   4.693   4.622  0.2278 -0.2240  0.6530
10453TIP3    H152850   6.738   4.724   4.533  0.0139  0.2973  0.8672
10453TIP3    H252851   6.831   4.639   4.616 -0.9479 -1.8597 -0.2353
10454TIP3   OH252852   3.036   0.558  12.197 -0.2705  0.1105 -0.5053
10454TIP3    H152853   3.113   0.592  12.242  0.6167 -0.8781 -1.2135
10454TIP3    H252854   2.963   0.574  12.257  0.6032  0.4038  0.4985
10455TIP3   OH252855   1.222   1.892  15.209  0.0457  0.2116 -0.2273
10455TIP3    H152856   1.247   1.916  15.298 -1.1278  0.7516 -0.0255
10455TIP3    H252857   1.199   1.799  15.215 -2.1191  0.7663  0.5260
10456TIP3   OH252858   2.228   0.448  11.742  0.5604 -0.3911 -0.7136
10456TIP3    H152859   2.292   0.470  11.674  0.7933 -0.9470 -0.6807
10456TIP3    H252860   2.144   0.477  11.707  0.7452 -0.2514 -1.0367
10457TIP3   OH252861   1.069   0.672  11.928 -0.4101 -0.0371  0.5767
10457TIP3    H152862   0.975   0.664  11.911 -0.7395  0.5848  2.0449
10457TIP3    H252863   1.098   0.742  11.870 -1.0010  0.2834  0.6638
10458TIP3   OH252864   1.554   0.978  17.021  0.0634 -0.0297  0.5639
10458TIP3    H152865   1.539   1.056  17.075 -0.8442  0.0723  0.1662
10458TIP3    H252866   1.487   0.982  16.954  0.3637 -0.8674  0.2041
10459TIP3   OH252867   2.343   0.259  16.510 -0.2425  0.5157 -0.4555
10459TIP3    H152868   2.423   0.213  16.484 -0.5093  0.6245 -1.4883
10459TIP3    H252869   2.355   0.348  16.477 -1.6315  0.0204 -2.3649
10460TIP3   OH252870   1.333   6.496  13.320 -0.1823  0.3312  0.4640
10460TIP3    H152871   1.326   6.591  13.321  0.7538  0.4001  2.2062
10460TIP3    H252872   1.244   6.464  13.333 -0.7633  0.9271 -1.8251
10461TIP3   OH252873   5.515   1.133  11.606 -0.9299  0.3313 -0.1711
10461TIP3    H152874   5.459   1.056  11.610 -0.8440  0.2850  0.1560
10461TIP3    H252875   5.490   1.176  11.525 -0.0014 -0.7876 -1.0653
10462TIP3   OH252876   1.992   4.288   4.070 -0.4133 -0.1659  0.4083
10462TIP3    H152877   2.027   4.352   4.131 -1.3084  0.9015 -0.1834
10462TIP3    H252878   1.901   4.313   4.059 -0.7128 -1.4158 -0.0002
10463TIP3   OH252879   6.291   4.818  12.608  0.0565 -0.5446 -0.2644
10463TIP3    H152880   6.238   4.830  12.529 -1.3210 -1.2011  0.5366
10463TIP3    H252881   6.312   4.906  12.637  0.7835 -0.2948 -1.4892
10464TIP3   OH252882   4.363   1.989   4.891  0.1833 -0.3683  0.0833
10464TIP3    H152883   4.448   1.950   4.871  0.6677  0.5121  0.3787
10464TIP3    H252884   4.351   1.974   4.985 -0.4155 -1.3147 -0.1487
10465TIP3   OH252885   5.805   3.638  13.032  0.2226  0.1728  0.1548
10465TIP3    H152886   5.855   3.718  13.017  0.3486  0.1900  0.6628
10465TIP3    H252887   5.804   3.628  13.127  0.3506 -0.5167  0.0851
10466TIP3   OH252888   1.322   2.229  15.569  0.3919 -0.2397  0.1144
10466TIP3    H152889   1.232   2.203  15.585  0.3689  0.3349  0.9168
10466TIP3    H252890   1.318   2.282  15.489  0.4621 -2.7701 -1.6461
10467TIP3   OH252891   4.849   1.873  17.110  0.4229 -0.4424 -0.2796
10467TIP3    H152892   4.935   1.840  17.082  0.2211 -0.0591 -1.4173
10467TIP3    H252893   4.849   1.863  17.205  0.9542 -2.2722 -0.4464
10468TIP3   OH252894   4.537   6.736   0.785  0.4542 -0.1546 -0.5928
10468TIP3    H152895   4.521   6.670   0.853  2.8099 -0.7527 -0.5863
10468TIP3    H252896   4.503   6.817   0.822 -1.9518 -1.2121 -0.3595
10469TIP3   OH252897   2.946   6.706   4.915 -0.6885  0.4611  0.2602
10469TIP3    H152898   3.030   6.689   4.958 -0.4969 -0.3449 -0.4044
10469TIP3    H252899   2.959   6.789   4.869 -0.9898  1.4847  1.9625
10470TIP3   OH252900   6.148   2.995  15.177  0.1906 -0.4188 -0.0262
10470TIP3    H152901   6.206   2.935  15.129 -0.5317 -0.6359 -0.6324
10470TIP3    H252902   6.118   2.944  15.252  0.2840 -0.5174 -0.0548
10471TIP3   OH252903   3.778   5.823   2.805  0.2888  0.4943  0.2955
10471TIP3    H152904   3.767   5.917   2.793  1.6022  0.7241  0.7795
10471TIP3    H252905   3.739   5.805   2.891 -0.6266  0.4596 -0.1202
10472TIP3   OH252906   2.879   0.914  12.868 -0.1941 -0.1016  0.2877
10472TIP3    H152907   2.825   0.872  12.935 -1.6431 -0.2977 -0.9875
10472TIP3    H252908   2.817   0.960  12.812  0.9412 -0.5046 -1.3282
10473TIP3   OH252909   1.251   0.743   3.010  0.2335 -0.5110  0.5666
10473TIP3    H152910   1.291   0.829   3.016 -0.8672 -0.0825  1.8970
10473TIP3    H252911   1.318   0.688   2.969  1.6590  0.5098  1.5023
10474TIP3   OH252912   3.159   2.212   0.002 -0.0537 -0.1872 -0.2599
10474TIP3    H152913   3.212   2.289  -0.021  1.0081 -0.7182  0.3440
10474TIP3    H252914   3.121   2.183  -0.081 -1.7912  1.9489 -0.2441
10475TIP3   OH252915   3.216   5.127  15.081  0.1273 -0.4660  0.2099
10475TIP3    H152916   3.257   5.159  15.001 -0.0672  2.2671  1.1430
10475TIP3    H252917   3.125   5.112  15.057  0.4931 -1.5355 -0.5540
10476TIP3   OH252918   5.556   2.613   1.288 -0.2394  0.3741 -0.0802
10476TIP3    H152919   5.572   2.575   1.375  0.5433 -4.5732 -2.2185
10476TIP3    H252920   5.630   2.672   1.274 -0.9583  2.1353  2.9793
10477TIP3   OH252921   1.828   5.699  10.297  0.0821  0.3596 -0.4231
10477TIP3    H152922   1.886   5.748  10.238 -0.9553  0.9788 -0.9370
10477TIP3    H252923   1.784   5.767  10.348 -0.4668 -0.0962 -0.2953
10478TIP3   OH252924   1.026   6.438  13.193  0.0235  0.6110  0.1993
10478TIP3    H152925   1.010   6.378  13.120 -0.0792  0.5518  0.2705
10478TIP3    H252926   1.037   6.381  13.269  2.1337  0.5606 -0.1077
10479TIP3   OH252927   1.630   3.980   4.514  0.1619 -0.1867 -0.1658
10479TIP3    H152928   1.588   4.066   4.519 -1.1644 -0.7486 -1.3197
10479TIP3    H252929   1.629   3.947   4.604 -1.2853  0.0960 -0.0711
10480TIP3   OH252930   3.504   6.722  11.970  0.0092 -0.1289 -0.0325
10480TIP3    H152931   3.426   6.698  12.020  0.7118 -1.0639  0.6418
10480TIP3    H252932   3.480   6.705  11.879 -0.9911  0.7760  0.0514
10481TIP3   OH252933   0.999   1.015  16.720 -0.2228 -0.5300 -0.3840
10481TIP3    H152934   0.942   1.085  16.752  0.1149 -0.6743  0.5659
10481TIP3    H252935   1.070   1.059  16.674 -0.7361 -0.3164 -0.9698
10482TIP3   OH252936   5.102   2.987   2.022  0.0222 -0.0587 -0.3490
10482TIP3    H152937   5.071   2.910   2.070 -0.2357  0.3588  0.1646
10482TIP3    H252938   5.183   2.959   1.981 -0.5093 -0.8592 -0.8588
10483TIP3   OH252939   5.974   1.985  15.757  0.5639  0.0680 -0.5197
10483TIP3    H152940   5.997   1.897  15.726 -1.0302 -0.7464  0.5238
10483TIP3    H252941   5.902   1.970  15.819  1.3039  1.9881  0.8277
10484TIP3   OH252942   4.406   1.582  11.476 -0.2093 -0.0167  0.6246
10484TIP3    H152943   4.325   1.534  11.462 -0.6590  0.8483  0.2273
10484TIP3    H252944   4.431   1.613  11.389  0.0692  0.4753  0.8743
10485TIP3   OH252945   2.842   6.393   2.655 -0.0295 -0.4133 -0.6106
10485TIP3    H152946   2.781   6.448   2.606 -1.4906 -2.0243 -0.6382
10485TIP3    H252947   2.845   6.432   2.743  0.6904  1.0153 -1.2479
10486TIP3   OH252948   1.757   0.530  12.068 -0.3097  0.0159 -0.0863
10486TIP3    H152949   1.832   0.543  12.125 -0.9418  1.2389  0.4955
10486TIP3    H252950   1.739   0.436  12.072  0.4087 -0.0881  0.7608
10487TIP3   OH252951   1.734   2.491  15.507  0.3715  0.1874  0.1185
10487TIP3    H152952   1.793   2.547  15.558  0.4746  0.1341  0.0575
10487TIP3    H252953   1.785   2.466  15.430  0.9233 -1.3530  0.9516
10488TIP3   OH252954   4.518   0.511  15.979 -0.2210 -0.0813 -0.0995
10488TIP3    H152955   4.596   0.466  15.946 -0.5693 -1.3523  0.7857
10488TIP3    H252956   4.467   0.531  15.900  0.6242  0.0800 -0.6181
10489TIP3   OH252957   3.556   0.101   0.651 -0.5779 -0.1023 -0.0085
10489TIP3    H152958   3.598   0.083   0.567 -0.2363 -1.3514  0.4128
10489TIP3    H252959   3.495   0.172   0.633  0.0183  0.1340 -1.1500
10490TIP3   OH252960   5.714   5.694  15.021  0.0348 -0.3850  0.3910
10490TIP3    H152961   5.798   5.705  15.065  0.0144 -2.1201  0.9203
10490TIP3    H252962   5.651   5.741  15.075  0.3026 -1.0367  1.2846
10491TIP3   OH252963   5.325   2.617   4.483 -0.5687  0.3029  0.2446
10491TIP3    H152964   5.319   2.533   4.528  1.7092  0.6647  1.2941
10491TIP3    H252965   5.265   2.674   4.532 -1.2999 -0.4102  0.1936
10492TIP3   OH252966   6.464   3.082   0.637  0.0032  0.4014  0.4118
10492TIP3    H152967   6.444   3.068   0.545  2.1813 -1.1627  0.1230
10492TIP3    H252968   6.397   3.142   0.668  0.0147  1.9951 -2.5176
10493TIP3   OH252969   1.561   3.089   5.017  0.0091 -0.7499  0.1710
10493TIP3    H152970   1.615   3.165   5.036  0.9542 -1.0802 -1.1839
10493TIP3    H252971   1.589   3.059   4.931 -2.4900 -0.7871 -0.6779
10494TIP3   OH252972   4.047   0.631  13.997  0.7500 -0.1989 -0.1999
10494TIP3    H152973   4.062   0.701  13.933 -0.5256  0.2437 -0.0135
10494TIP3    H252974   3.970   0.585  13.964  1.3303 -1.2742 -0.0974
10495TIP3   OH252975   3.592   5.774   3.068  0.7034  0.6732 -0.0159
10495TIP3    H152976   3.634   5.693   3.096  0.0682  0.0408 -0.8648
10495TIP3    H252977   3.656   5.842   3.087  2.1341 -0.2772 -1.2895
10496TIP3   OH252978   4.794   1.055   0.370  0.4282  0.0706 -0.5189
10496TIP3    H152979   4.798   0.978   0.426 -2.4066 -0.4752 -0.9673
10496TIP3    H252980   4.843   1.031   0.292  0.6322 -0.8021 -0.1289
10497TIP3   OH252981   4.895   4.969  15.117  0.5623  0.1262 -0.5227
10497TIP3    H152982   4.958   4.906  15.082  1.1665  0.2613  0.3022
10497TIP3    H252983   4.948   5.044  15.142 -0.1143  0.8149 -1.1629
10498TIP3   OH252984   5.463   6.636   3.748 -0.1843 -0.3633 -0.0533
10498TIP3    H152985   5.498   6.701   3.687 -1.4967 -0.1717 -0.6099
10498TIP3    H252986   5.388   6.597   3.703 -1.0069 -0.4198  1.3116
10499TIP3   OH252987   6.313   3.802   5.909 -0.2008 -0.0883 -0.2446
10499TIP3    H152988   6.250   3.774   5.975 -0.5048 -1.9247 -1.2933
10499TIP3    H252989   6.347   3.721   5.871 -0.2456  0.9265 -2.5564
10500TIP3   OH252990   2.313   6.549  12.186 -0.4316 -0.1541 -0.1757
10500TIP3    H152991   2.356   6.531  12.102  1.6570  0.5594  0.7071
10500TIP3    H252992   2.355   6.490  12.248 -1.0653  0.2207  0.6127
10501TIP3   OH252993   0.509   4.183  12.244 -0.1487 -0.2736  0.0392
10501TIP3    H152994   0.541   4.097  12.219  1.7546  0.9526 -1.9569
10501TIP3    H252995   0.446   4.166  12.314  1.0004 -3.1901  0.4490
10502TIP3   OH252996   1.441   4.817   1.533 -0.8743  0.4252  0.5033
10502TIP3    H152997   1.381   4.875   1.582  2.3511  2.0161  2.7475
10502TIP3    H252998   1.526   4.861   1.537  1.4986 -3.9318  1.3759
10503TIP3   OH252999   1.112   0.627  16.691 -0.9277 -0.2032 -0.1764
10503TIP3    H153000   1.041   0.675  16.647 -0.4236  3.2063  2.5084
10503TIP3    H253001   1.073   0.543  16.715 -2.5434 -0.3193 -3.0559
10504TIP3   OH253002   0.390   1.239   4.002  0.1552  0.1629 -0.4933
10504TIP3    H153003   0.482   1.250   4.024  0.2816  0.2639 -1.0786
10504TIP3    H253004   0.348   1.321   4.030  0.4683  0.6515 -1.4570
10505TIP3   OH253005   6.396   5.259   6.076  0.2650  0.2611 -0.0509
10505TIP3    H153006   6.372   5.332   6.018  0.6518  0.5516  0.1559
10505TIP3    H253007   6.313   5.215   6.095  0.0839  0.4085 -0.4988
10506TIP3   OH253008   6.349   2.111  16.423 -0.3210  0.1526 -0.0813
10506TIP3    H153009   6.411   2.148  16.359  0.7004 -2.7209 -0.8207
10506TIP3    H253010   6.263   2.121  16.382 -0.1448  2.2320  0.0157
10507TIP3   OH253011   3.650   3.180  16.253  0.4297  0.1559 -0.1951
10507TIP3    H153012   3.642   3.275  16.249 -0.3588  0.2564  2.3711
10507TIP3    H253013   3.601   3.156  16.332  2.2855 -2.1752  0.3036
10508TIP3   OH253014   3.253   0.204   4.888  0.5824  0.7887  0.1601
10508TIP3    H153015   3.176   0.261   4.892 -0.6640 -0.8463 -0.4161
10508TIP3    H253016   3.327   0.265   4.885 -0.7302  2.3866 -0.4602
10509TIP3   OH253017   0.173   3.675  14.985 -0.3943 -0.6573  0.3701
10509TIP3    H153018   0.115   3.650  14.913  0.3810  0.3572 -0.6188
10509TIP3    H253019   0.114   3.707  15.054 -1.0281  0.0407 -0.4956
10510TIP3   OH253020   6.060   1.892  11.627  0.6571 -0.3377  0.2929
10510TIP3    H153021   6.123   1.925  11.562  1.8544  0.7158  1.9652
10510TIP3    H253022   5.996   1.962  11.635  0.3129 -0.6179 -0.0172
10511TIP3   OH253023   1.201   5.793   4.727 -0.1404 -0.2140  0.0402
10511TIP3    H153024   1.244   5.733   4.666  0.6991  1.7733 -1.3695
10511TIP3    H253025   1.130   5.832   4.677 -0.8904 -0.2601  1.0454
10512TIP3   OH253026   1.963   2.251  14.009 -0.0977  0.0441 -0.7206
10512TIP3    H153027   1.986   2.285  14.095  0.5680 -0.6382 -0.6231
10512TIP3    H253028   2.040   2.268  13.955 -1.2086  2.1767 -1.6917
10513TIP3   OH253029   3.117   3.661   3.802  0.1148  0.5233  0.0133
10513TIP3    H153030   3.153   3.629   3.885  0.1837  1.0813  0.2065
10513TIP3    H253031   3.098   3.754   3.819 -0.1158  0.5749 -0.5155
10514TIP3   OH253032   5.506   0.652  16.833  0.0316 -0.0122  0.0889
10514TIP3    H153033   5.575   0.713  16.808 -0.1599 -0.1158 -0.6978
10514TIP3    H253034   5.425   0.701  16.819 -0.1069 -0.3141 -0.1751
10515TIP3   OH253035   3.303   2.999  16.698  0.1941  0.5058  0.2654
10515TIP3    H153036   3.279   3.073  16.754 -4.2901 -0.8798  0.3041
10515TIP3    H253037   3.258   3.016  16.615  0.8978 -1.0933 -0.4693
10516TIP3   OH253038   1.998   2.245  16.036  0.0895 -0.4480 -0.3623
10516TIP3    H153039   2.024   2.336  16.026  0.5968 -0.5185  0.3217
10516TIP3    H253040   2.060   2.208  16.098 -0.7425 -0.9962  0.1585
10517TIP3   OH253041   5.629   1.815  16.493  0.0493 -0.4453 -0.8614
10517TIP3    H153042   5.562   1.771  16.440 -0.7082  0.3629 -0.5962
10517TIP3    H253043   5.685   1.744  16.525 -0.5597 -1.1161 -1.2634
10518TIP3   OH253044   3.410   5.142   5.286 -0.1150  0.2581 -0.2879
10518TIP3    H153045   3.475   5.150   5.217 -0.1041 -0.2288 -0.3399
10518TIP3    H253046   3.415   5.224   5.334  1.5115 -0.3216  0.5601
10519TIP3   OH253047   3.615   5.517  15.563 -0.2438  0.2716 -0.5655
10519TIP3    H153048   3.679   5.504  15.633 -2.3843 -0.7070  1.2829
10519TIP3    H253049   3.647   5.465  15.490  0.6583 -0.8464  0.6148
10520TIP3   OH253050   3.948   4.726   4.597  0.1691 -0.2763  0.1373
10520TIP3    H153051   3.958   4.667   4.672 -0.6775  0.8259  1.1463
10520TIP3    H253052   4.015   4.698   4.535 -1.0414 -3.1112  0.0502
10521TIP3   OH253053   3.472   5.791  13.744  0.0022  0.1387 -0.5128
10521TIP3    H153054   3.405   5.753  13.688 -0.1524 -1.6819  0.8877
10521TIP3    H253055   3.424   5.848  13.804 -0.0798  0.1765 -0.6135
10522TIP3   OH253056   3.850   0.673  14.827  0.5733  0.4281  0.1550
10522TIP3    H153057   3.782   0.740  14.837  1.7278  1.6372 -0.0494
10522TIP3    H253058   3.850   0.625  14.910  0.3218  1.2165  0.6069
10523TIP3   OH253059   1.032   0.327   4.692 -0.2093 -0.2650  0.4455
10523TIP3    H153060   1.027   0.423   4.689  0.7228 -0.1150  2.8387
10523TIP3    H253061   1.126   0.308   4.693 -0.3966 -1.1923  0.5132
10524TIP3   OH253062   3.266   1.989   3.009  0.1969 -0.6358 -0.2098
10524TIP3    H153063   3.242   2.075   3.046  1.1741  0.5786 -2.3152
10524TIP3    H253064   3.360   1.983   3.022  0.1168 -1.4355  0.0057
10525TIP3   OH253065   6.708   5.017  12.998  0.2395 -0.3166 -0.9789
10525TIP3    H153066   6.615   4.998  12.995  0.0761  0.2845 -0.0873
10525TIP3    H253067   6.718   5.096  12.944 -0.0577  0.6408  0.3241
10526TIP3   OH253068   6.723   0.590   3.300  0.6798  0.3113 -0.2728
10526TIP3    H153069   6.637   0.552   3.315  1.3103 -1.8887 -1.9947
10526TIP3    H253070   6.757   0.608   3.388  0.3607 -3.2387  0.6469
10527TIP3   OH253071   0.575   0.706  15.978 -0.5719 -0.7007  0.0385
10527TIP3    H153072   0.617   0.706  15.892 -0.7772 -0.1360 -0.0632
10527TIP3    H253073   0.573   0.614  16.004  0.1748 -0.7920 -0.2248
10528TIP3   OH253074   6.393   4.437  11.185  0.0762  0.1591 -0.2671
10528TIP3    H153075   6.372   4.381  11.111 -0.3481 -1.3111  0.9470
10528TIP3    H253076   6.488   4.448  11.180  0.0832 -0.1373 -0.8696
10529TIP3   OH253077   1.649   0.547   1.380 -0.4735  0.1619  0.7420
10529TIP3    H153078   1.680   0.534   1.290  0.1429  0.1574  0.9500
10529TIP3    H253079   1.683   0.472   1.428 -1.6587 -0.3620  0.7736
10530TIP3   OH253080   3.449   1.951  16.685  0.0578  1.1513 -0.1515
10530TIP3    H153081   3.508   1.994  16.622 -0.0676  1.0635 -0.3307
10530TIP3    H253082   3.375   1.920  16.632  1.4447 -1.7513 -0.4881
10531TIP3   OH253083   3.019   1.775   2.554 -0.3617  0.4911  0.4176
10531TIP3    H153084   3.021   1.748   2.646  3.8071  1.5958  0.7366
10531TIP3    H253085   3.073   1.710   2.509  1.3155  2.4560 -0.4780
10532TIP3   OH253086   6.689   2.353  16.762  0.3447 -0.1245  0.0112
10532TIP3    H153087   6.648   2.331  16.845  0.5226  0.6481  0.3040
10532TIP3    H253088   6.765   2.406  16.786  0.8381 -0.5419 -0.5973
10533TIP3   OH253089   3.294   5.894  11.124  0.0575 -0.6921 -0.0549
10533TIP3    H153090   3.287   5.838  11.048  2.0559 -2.1779  0.7973
10533TIP3    H253091   3.389   5.902  11.139 -0.1861  2.6310  0.0501
10534TIP3   OH253092   5.237   5.891  11.730 -0.2953 -0.0597 -0.2925
10534TIP3    H153093   5.275   5.833  11.797 -1.1526  0.1023  0.3457
10534TIP3    H253094   5.167   5.938  11.776  0.8875  2.0553 -0.6178
10535TIP3   OH253095   0.790   3.815   4.165  0.5962  0.9021 -0.1816
10535TIP3    H153096   0.769   3.721   4.166  2.9667  0.3413  2.0089
10535TIP3    H253097   0.712   3.857   4.201  0.0239 -0.3664  0.0931
10536TIP3   OH253098   4.540   5.142   0.852 -0.1690  0.0429 -0.2727
10536TIP3    H153099   4.617   5.176   0.806  0.6164  1.3191  1.9140
10536TIP3    H253100   4.486   5.220   0.868 -0.5276 -0.4229  0.7682
10537TIP3   OH253101   1.119   0.926  12.710  0.5235  0.1196 -0.0555
10537TIP3    H153102   1.150   0.878  12.787  0.1656  0.7702  0.5039
10537TIP3    H253103   1.070   0.862  12.660 -0.9311  0.1694  1.2614
10538TIP3   OH253104   1.770   6.706  10.439  0.4866 -0.1377 -0.2465
10538TIP3    H153105   1.783   6.707  10.344  1.3908  0.9000 -0.1132
10538TIP3    H253106   1.804   6.621  10.467 -0.5084 -0.7777 -0.9427
10539TIP3   OH253107   6.617   5.641   4.327  0.1151  0.2772 -0.1254
10539TIP3    H153108   6.602   5.652   4.233 -0.7312 -1.8272 -0.2669
10539TIP3    H253109   6.634   5.730   4.359  0.6425  0.9917 -2.2888
10540TIP3   OH253110   2.248   4.337  15.926  0.8031  0.3233  0.4335
10540TIP3    H153111   2.222   4.276  15.996  2.4480 -2.4646 -1.2824
10540TIP3    H253112   2.183   4.322  15.857  2.6505 -1.4406 -1.0026
10541TIP3   OH253113   5.138   2.884  12.546 -0.1888  0.0870  0.4059
10541TIP3    H153114   5.101   2.825  12.481 -2.4421  2.6117 -0.7244
10541TIP3    H253115   5.063   2.914  12.598  1.0089  1.1940  1.5714
10542TIP3   OH253116   3.471   2.486   0.666  0.0566  0.5705  0.3930
10542TIP3    H153117   3.404   2.532   0.616  0.9381  2.9291  1.2779
10542TIP3    H253118   3.469   2.528   0.752  1.5140 -0.4687  0.9588
10543TIP3   OH253119   0.571   2.772   4.506  0.4455  0.0831  0.1977
10543TIP3    H153120   0.653   2.772   4.555  1.4820  0.0065 -1.4780
10543TIP3    H253121   0.503   2.783   4.572  1.5842 -2.7860  1.9505
10544TIP3   OH253122   4.152   5.223   4.444  0.2656  0.4250 -0.3123
10544TIP3    H153123   4.227   5.189   4.493 -0.8545  0.2175  1.3064
10544TIP3    H253124   4.076   5.198   4.496 -0.7553  3.2508 -0.3423
10545TIP3   OH253125   6.504   6.067   1.255 -0.1314 -0.3586  0.4167
10545TIP3    H153126   6.563   5.993   1.240 -1.4480 -1.3028 -0.1724
10545TIP3    H253127   6.419   6.028   1.272 -0.8642  1.0157  0.0333
10546TIP3   OH253128   2.791   1.964   0.164  0.6992  0.3487  0.0131
10546TIP3    H153129   2.812   1.872   0.152 -0.6088 -0.0590  0.6923
10546TIP3    H253130   2.737   1.966   0.243 -0.9390  1.4344 -1.0847
10547TIP3   OH253131   0.020   5.038   3.508 -0.2899 -0.5522 -0.2012
10547TIP3    H153132   0.039   5.050   3.415 -1.1202 -0.4847 -0.3688
10547TIP3    H253133  -0.038   5.111   3.530 -0.3341 -0.7355  0.2976
10548TIP3   OH253134   5.637   2.025   2.992  0.1979  0.8864 -0.0639
10548TIP3    H153135   5.562   1.967   3.000  1.0132 -0.1412  0.2917
10548TIP3    H253136   5.702   1.989   3.053  0.2586  2.9039  1.1036
10549TIP3   OH253137   4.742   0.078   4.705 -0.5999 -0.4391  0.3013
10549TIP3    H153138   4.769   0.082   4.613  1.2352  0.8198  0.8529
10549TIP3    H253139   4.711   0.167   4.724 -0.3441 -0.5181  1.0857
10550TIP3   OH253140   5.717   4.987  11.686 -0.0234  0.3989 -0.0789
10550TIP3    H153141   5.764   5.010  11.766 -0.1804  1.8305 -0.3851
10550TIP3    H253142   5.724   5.065  11.630  0.4903 -0.7460 -1.6492
10551TIP3   OH253143   6.195   6.585  14.772 -0.0514 -0.1293  1.0312
10551TIP3    H153144   6.155   6.644  14.836  0.6532  2.1164 -0.5657
10551TIP3    H253145   6.287   6.611  14.769  0.1295 -0.8653 -0.1832
10552TIP3   OH253146   0.645   1.077   0.097 -0.1439 -0.0597  0.3693
10552TIP3    H153147   0.704   1.074   0.172 -0.0993  0.0811  0.3385
10552TIP3    H253148   0.618   1.168   0.090  1.6980  0.3878 -1.2271
10553TIP3   OH253149   5.629   3.919   4.403 -0.2615 -0.3318  0.2653
10553TIP3    H153150   5.590   3.832   4.413 -2.6678  0.7608  0.6655
10553TIP3    H253151   5.560   3.972   4.364 -0.0745  2.2795  3.2455
10554TIP3   OH253152   6.601   0.765   2.417  0.5077  0.0034  0.4812
10554TIP3    H153153   6.658   0.689   2.422  1.1224  0.5300  1.6264
10554TIP3    H253154   6.656   0.834   2.380 -1.1254 -1.0885 -4.3749
10555TIP3   OH253155   5.549   6.015  14.969 -0.0427  0.7436 -0.1841
10555TIP3    H153156   5.470   6.067  14.958  0.8531  2.1857  0.0693
10555TIP3    H253157   5.616   6.077  14.997  1.0415 -0.5528  0.2052
10556TIP3   OH253158   5.848   4.468   1.212 -0.5634 -0.5551  0.1605
10556TIP3    H153159   5.826   4.449   1.121  2.1968 -1.2831 -0.4022
10556TIP3    H253160   5.832   4.561   1.223 -1.3675 -0.5637 -0.9308
10557TIP3   OH253161   1.645   2.114  15.851  0.1432  0.3705 -0.1303
10557TIP3    H153162   1.606   2.115  15.939 -1.8295  0.4930 -0.9749
10557TIP3    H253163   1.634   2.204  15.819  2.0457  0.6670 -0.0255
10558TIP3   OH253164   2.981   1.613  14.603  0.5535  0.0666  0.3761
10558TIP3    H153165   3.037   1.679  14.562  0.9506 -0.4698  0.0464
10558TIP3    H253166   2.904   1.662  14.633  1.2397  0.8282  0.9250
10559TIP3   OH253167   6.584   2.130  14.736  0.4567 -0.5349 -0.3326
10559TIP3    H153168   6.569   2.160  14.826  0.3417  0.8209 -0.7814
10559TIP3    H253169   6.671   2.091  14.738  0.2770 -0.9069  0.4614
10560TIP3   OH253170   5.631   2.717  13.106 -0.9686  0.2500  0.2471
10560TIP3    H153171   5.715   2.709  13.060 -0.5043 -0.3828  1.1982
10560TIP3    H253172   5.623   2.811  13.124 -0.0324  0.2025  0.9472
10561TIP3   OH253173   3.007   0.827   3.007 -0.0612  0.5738  0.7618
10561TIP3    H153174   3.013   0.794   3.096 -0.6368  1.1297  1.0119
10561TIP3    H253175   2.916   0.810   2.982  0.5436 -1.1598 -0.3451
10562TIP3   OH253176   4.528   6.786  12.292 -0.3972 -0.3224  0.7134
10562TIP3    H153177   4.561   6.871  12.261  0.5005 -0.7976  0.3552
10562TIP3    H253178   4.473   6.754  12.220  2.1646 -1.7010 -0.7071
10563TIP3   OH253179   6.309   3.631   2.556  0.5540 -0.1944  0.3536
10563TIP3    H153180   6.330   3.540   2.574 -1.3043 -0.1895  2.8074
10563TIP3    H253181   6.374   3.681   2.605 -1.2282 -0.2105  2.7961
10564TIP3   OH253182   1.872   4.573   4.613  0.0464 -0.4248 -0.2989
10564TIP3    H153183   1.929   4.514   4.563  2.4066  1.8569 -0.3980
10564TIP3    H253184   1.801   4.595   4.552  2.3123  1.4716 -2.3552
10565TIP3   OH253185   5.977   0.496   4.282  0.3870 -0.3604  0.4285
10565TIP3    H153186   5.978   0.451   4.197 -1.2156 -2.0812  1.2765
10565TIP3    H253187   6.047   0.454   4.331  0.4202 -0.3279  0.4080
10566TIP3   OH253188   2.982   0.093  15.539 -0.3919  0.4083  0.0714
10566TIP3    H153189   3.006   0.038  15.464  0.1039 -1.4749  1.5827
10566TIP3    H253190   3.024   0.177  15.521 -0.5732  0.1115 -1.9255
10567TIP3   OH253191   4.118   0.511   4.386 -0.1407 -0.4512  0.1384
10567TIP3    H153192   4.030   0.496   4.350  0.0587 -0.3293 -0.4104
10567TIP3    H253193   4.169   0.543   4.311  0.2843 -0.1984  0.5335
10568TIP3   OH253194   1.211   6.363  15.765  0.4760  0.5057 -0.8388
10568TIP3    H153195   1.137   6.379  15.822  1.2371 -0.3933  0.4143
10568TIP3    H253196   1.205   6.431  15.698 -0.9512  0.9846 -0.2311
10569TIP3   OH253197   6.570   5.112  14.043 -0.0995 -0.0524 -0.0947
10569TIP3    H153198   6.611   5.097  13.958  1.8787  0.5719  0.7150
10569TIP3    H253199   6.592   5.203  14.064 -0.8567 -0.0950  0.9290
10570TIP3   OH253200   5.857   1.991  14.766 -0.3225  0.4423 -0.8984
10570TIP3    H153201   5.811   2.036  14.837 -0.6773 -0.7643 -0.3503
10570TIP3    H253202   5.828   2.035  14.686 -2.1808 -0.0729 -0.5283
10571TIP3   OH253203   0.900   2.789   5.887  0.3951 -0.0136 -0.0077
10571TIP3    H153204   0.866   2.864   5.838  0.6630  0.8241  1.0698
10571TIP3    H253205   0.828   2.763   5.944  1.1215  0.9985  1.4036
10572TIP3   OH253206   0.263   0.123   4.575  0.5093 -0.3976  0.1614
10572TIP3    H153207   0.285   0.101   4.666 -1.7328 -1.2000  0.5190
10572TIP3    H253208   0.208   0.201   4.582  1.0723  0.0734 -0.5788
10573TIP3   OH253209   4.866   2.370  13.763 -0.2645 -0.2396  0.2884
10573TIP3    H153210   4.838   2.279  13.754  1.4614 -0.7118 -0.6232
10573TIP3    H253211   4.902   2.375  13.851  0.3188 -0.6530  0.0800
10574TIP3   OH253212   4.006   4.790  16.891  0.2621 -0.0147  0.0192
10574TIP3    H153213   3.948   4.857  16.927  0.4340  0.1598 -0.0237
10574TIP3    H253214   4.059   4.761  16.966  0.4232  0.1431 -0.0332
10575TIP3   OH253215   0.963   6.180  12.631 -0.0772  0.6760 -0.5158
10575TIP3    H153216   1.058   6.169  12.634 -0.4231 -2.3136  3.1963
10575TIP3    H253217   0.936   6.141  12.548  1.7572 -0.1739 -0.7341
10576TIP3   OH253218   0.900   0.103   4.468  0.9523  0.8426 -0.1055
10576TIP3    H153219   0.832   0.148   4.418  0.6191  1.3514  0.7895
10576TIP3    H253220   0.974   0.097   4.408 -0.3123 -0.9037 -1.5433
10577TIP3   OH253221   1.890   5.335   2.065 -0.3475  0.4321 -0.4163
10577TIP3    H153222   1.879   5.365   2.155  1.8432  2.2922 -0.7200
10577TIP3    H253223   1.975   5.290   2.065 -0.5162  0.1062 -1.4654
10578TIP3   OH253224   0.955   5.607   1.438  0.2041  0.1394 -0.3552
10578TIP3    H153225   0.935   5.640   1.525  0.8409 -1.0518  0.2610
10578TIP3    H253226   0.982   5.516   1.452 -0.2980 -0.2598 -1.8634
10579TIP3   OH253227   0.289   3.679  15.298 -0.2209 -0.0419 -0.1577
10579TIP3    H153228   0.193   3.686  15.297 -0.2532 -0.2468  0.6695
10579TIP3    H253229   0.306   3.587  15.275 -0.2171  0.0577 -0.5440
10580TIP3   OH253230   0.958   2.650   3.616 -0.3946  0.4067 -0.2294
10580TIP3    H153231   0.965   2.563   3.577  0.8848  0.9218 -1.2181
10580TIP3    H253232   0.869   2.655   3.650 -1.4106 -0.2504 -2.7064
10581TIP3   OH253233   1.932   1.451   6.443 -0.1304  0.5089 -0.3335
10581TIP3    H153234   2.011   1.413   6.404 -1.5726 -1.1062 -1.7840
10581TIP3    H253235   1.901   1.384   6.504 -0.7554  0.8684 -0.2556
10582TIP3   OH253236   6.139   6.308  11.717  0.3676  0.2244 -0.4266
10582TIP3    H153237   6.175   6.284  11.802 -1.7711  0.1010  0.4851
10582TIP3    H253238   6.176   6.394  11.698  1.3020  0.0047  0.3642
10583TIP3   OH253239   4.073   6.538   3.376 -0.3096  0.4583  0.6384
10583TIP3    H153240   4.137   6.492   3.322  3.2636  2.6821  2.7991
10583TIP3    H253241   3.999   6.554   3.317  0.6598 -3.0262 -1.6725
10584TIP3   OH253242   3.541   2.316  14.071 -0.0057 -0.2733 -0.1138
10584TIP3    H153243   3.499   2.297  14.154  0.0242  0.5457  0.0890
10584TIP3    H253244   3.627   2.273  14.077  0.5864  1.0023  0.8699
10585TIP3   OH253245   4.647   2.614   0.442 -0.1973 -0.6054  0.4140
10585TIP3    H153246   4.726   2.624   0.390 -1.0464  0.1164 -0.7693
10585TIP3    H253247   4.622   2.522   0.430 -0.7598 -0.2712 -1.0143
10586TIP3   OH253248   4.067   3.557   2.352 -0.2011  0.4129  0.2054
10586TIP3    H153249   4.107   3.644   2.358 -0.0850  0.2131  2.6471
10586TIP3    H253250   4.030   3.554   2.264 -1.4361  3.4776  0.5668
10587TIP3   OH253251   1.799   5.762  13.504 -0.1150  0.0063  0.5994
10587TIP3    H153252   1.797   5.850  13.466 -1.9148  0.3493  1.4100
10587TIP3    H253253   1.851   5.772  13.584  1.8590 -0.2484 -0.6388
10588TIP3   OH253254   2.847   0.588  12.454  0.1453 -0.3189  0.2012
10588TIP3    H153255   2.892   0.538  12.522 -0.0572 -1.4515 -0.4712
10588TIP3    H253256   2.802   0.658  12.500 -0.0813 -1.1414  1.2497
10589TIP3   OH253257   2.660   3.011  16.949  0.2201 -0.2470  0.0100
10589TIP3    H153258   2.738   3.064  16.966  0.4603 -0.9520  1.1629
10589TIP3    H253259   2.617   3.055  16.875  0.9543  0.9583  0.2805
10590TIP3   OH253260   4.619   1.049   4.396  0.1499 -0.6373 -0.2255
10590TIP3    H153261   4.632   1.018   4.306 -0.3169 -0.7268 -0.2591
10590TIP3    H253262   4.700   1.025   4.441  0.3723 -0.6224 -0.6133
10591TIP3   OH253263   0.517   1.898   2.575  0.2042  0.1330  0.1903
10591TIP3    H153264   0.571   1.976   2.565  1.2978 -0.7052 -0.5017
10591TIP3    H253265   0.563   1.845   2.639  0.9824 -1.2549 -1.5020
10592TIP3   OH253266   1.923   4.657   5.536  0.0795 -0.2459  0.4080
10592TIP3    H153267   2.009   4.683   5.505 -0.0799 -0.1672  0.0319
10592TIP3    H253268   1.869   4.736   5.527 -0.3864 -0.6931 -0.6771
10593TIP3   OH253269   2.037   0.219  14.984 -0.3706  0.0661 -0.4696
10593TIP3    H153270   2.121   0.181  14.959 -0.3259  0.1975 -0.5161
10593TIP3    H253271   1.989   0.146  15.024  0.2953  0.3251  0.8319
10594TIP3   OH253272   3.863   3.004  12.364  0.5404  0.3407  0.7319
10594TIP3    H153273   3.867   2.977  12.455  0.0554 -1.2179  0.2947
10594TIP3    H253274   3.891   2.928  12.314 -0.7863  0.6409 -0.5061
10595TIP3   OH253275   3.389   1.236   0.851  0.4612  0.2186 -0.3644
10595TIP3    H153276   3.482   1.226   0.873  0.0249 -1.7147  0.7143
10595TIP3    H253277   3.365   1.323   0.884  1.2735 -0.2850  1.5939
10596TIP3   OH253278   5.872   1.048  12.968 -0.2595  0.7641  0.2221
10596TIP3    H153279   5.941   1.005  12.917  0.2984  2.0536 -0.1411
10596TIP3    H253280   5.797   1.052  12.910 -0.3757  0.0860  0.3312
10597TIP3   OH253281   3.756   6.695  12.137 -0.4325 -0.0594 -0.1270
10597TIP3    H153282   3.677   6.723  12.092  0.4693  1.2552 -0.9348
10597TIP3    H253283   3.724   6.656  12.219 -2.0242 -1.7275 -1.4847
10598TIP3   OH253284   3.509   1.414  12.056 -0.5172 -0.6801 -0.1256
10598TIP3    H153285   3.471   1.470  12.124  0.7966  0.8968 -0.6702
10598TIP3    H253286   3.587   1.375  12.098  1.5132  1.9318 -1.3176
10599TIP3   OH253287   3.961   1.246  12.601  0.2443 -0.2692  0.2411
10599TIP3    H153288   3.885   1.191  12.582 -0.1069  0.2789  0.0489
10599TIP3    H253289   4.035   1.201  12.560  0.1072 -1.0484  0.8261
10600TIP3   OH253290   1.398   0.606  13.843  0.7995 -0.3307 -0.3144
10600TIP3    H153291   1.318   0.623  13.793  0.0145  0.0355  1.0629
10600TIP3    H253292   1.413   0.512  13.834  0.7464 -0.2526 -1.3375
10601TIP3   OH253293   6.077   1.778   0.378  0.0073  0.5534  0.4613
10601TIP3    H153294   6.163   1.771   0.335 -0.8508 -0.2612 -1.1610
10601TIP3    H253295   6.051   1.869   0.364 -0.3673  0.2356 -0.9689
10602TIP3   OH253296   4.506   1.459   0.449 -0.2965 -0.1452 -0.0749
10602TIP3    H153297   4.430   1.435   0.394 -0.1255  1.4747 -1.0594
10602TIP3    H253298   4.549   1.530   0.400  1.5215 -0.6425  0.7724
10603TIP3   OH253299   4.165   4.435   4.569 -0.0935  0.4304 -0.5656
10603TIP3    H153300   4.243   4.467   4.614  0.4496  0.2820 -1.3820
10603TIP3    H253301   4.187   4.345   4.544 -1.0675 -0.1077  0.4620
10604TIP3   OH253302   3.182   6.762  11.937 -0.3955  0.2848  0.0578
10604TIP3    H153303   3.191   6.804  12.023 -0.3798  0.3342  0.0325
10604TIP3    H253304   3.090   6.773  11.915 -0.4103  0.2277  0.0904
10605TIP3   OH253305   1.567   2.674  12.180  0.2217 -0.8945 -0.5939
10605TIP3    H153306   1.610   2.759  12.179  0.7529 -1.1593 -0.3939
10605TIP3    H253307   1.610   2.624  12.111 -1.0117 -0.5541 -1.6273
10606TIP3   OH253308   3.720   4.014  11.731 -0.7451 -0.0673 -0.3859
10606TIP3    H153309   3.749   3.954  11.662  0.5771  0.0122  0.0922
10606TIP3    H253310   3.687   4.090  11.683  0.7770  0.2683 -0.9384
10607TIP3   OH253311   3.807   1.191  15.613  0.0053 -0.0010 -0.5714
10607TIP3    H153312   3.813   1.218  15.522  2.5111  1.4920 -0.0213
10607TIP3    H253313   3.897   1.169  15.638 -0.7136 -0.8846  1.3848
10608TIP3   OH253314   6.167   5.619  11.971  0.1038  0.2719 -0.6448
10608TIP3    H153315   6.103   5.589  12.035 -0.0132 -1.0405 -1.3687
10608TIP3    H253316   6.116   5.670  11.908  0.4992  3.1760  1.2881
10609TIP3   OH253317   0.411   5.693  13.437 -0.6279  0.4191  1.0055
10609TIP3    H153318   0.463   5.705  13.517  0.4132  2.6659  0.0522
10609TIP3    H253319   0.442   5.762  13.378 -1.8244 -0.8023 -1.1170
10610TIP3   OH253320   4.845   2.085   4.919  0.3234  0.1018 -0.4631
10610TIP3    H153321   4.904   2.148   4.960 -0.4635  1.1992 -0.9703
10610TIP3    H253322   4.778   2.069   4.985  1.1734 -1.1378  0.1098
10611TIP3   OH253323   4.113   0.756  15.043 -0.4535 -0.6135  0.0797
10611TIP3    H153324   4.143   0.735  14.955  1.4836 -3.2561  1.2667
10611TIP3    H253325   4.185   0.804  15.082 -2.3970  3.0003 -0.5811
10612TIP3   OH253326   1.812   1.466   5.224  0.1588  0.0872  0.0365
10612TIP3    H153327   1.753   1.514   5.281  0.9658  0.5606  0.4929
10612TIP3    H253328   1.781   1.375   5.226 -0.2430  0.2423  0.6511
10613TIP3   OH253329   2.249   4.584  13.947 -0.6907  0.0724 -0.3940
10613TIP3    H153330   2.300   4.565  13.868 -2.0099 -0.0090 -1.2461
10613TIP3    H253331   2.166   4.618  13.913 -1.6042 -0.7953  0.9428
10614TIP3   OH253332   1.665   5.526   4.907  0.2541 -0.0360 -0.1214
10614TIP3    H153333   1.669   5.443   4.859  0.7077  0.0857 -0.3054
10614TIP3    H253334   1.578   5.561   4.889 -0.2544 -0.8774  0.6480
10615TIP3   OH253335   2.807   5.908  16.981  0.3822  0.4429  0.1088
10615TIP3    H153336   2.860   5.838  16.942 -1.5618 -0.4568 -1.0198
10615TIP3    H253337   2.833   5.987  16.933  1.8837  0.3195  0.7081
10616TIP3   OH253338   6.451   1.269   1.993 -0.0996  0.3178  0.0272
10616TIP3    H153339   6.387   1.205   1.962  0.2217 -0.0866  0.1963
10616TIP3    H253340   6.536   1.227   1.979  0.1650  1.1815 -0.9404
10617TIP3   OH253341   3.607   6.053   2.770 -0.5926  0.5524  0.8686
10617TIP3    H153342   3.515   6.026   2.771 -0.7160  0.9959  1.6097
10617TIP3    H253343   3.617   6.106   2.849  0.7080 -0.8194  1.6359
10618TIP3   OH253344   3.412   0.671   3.505  0.2398  0.6649  0.0717
10618TIP3    H153345   3.364   0.708   3.431 -1.6825  1.2108  1.5725
10618TIP3    H253346   3.491   0.725   3.511 -1.0324  2.5435  0.2734
10619TIP3   OH253347   3.765   1.118  14.906  0.2394 -0.6687  0.1252
10619TIP3    H153348   3.857   1.129  14.880 -0.8258 -0.5280 -3.9497
10619TIP3    H253349   3.754   1.023  14.913  0.4490 -0.7305 -0.3483
10620TIP3   OH253350   5.522   0.144  11.562  0.2435 -0.5333  0.7988
10620TIP3    H153351   5.524   0.125  11.468 -0.3513  0.6252  0.5343
10620TIP3    H253352   5.464   0.220  11.569  1.2708  0.1658  1.9648
10621TIP3   OH253353   5.919   4.995   5.142 -0.4113  0.8645  0.2197
10621TIP3    H153354   5.982   5.065   5.124  1.3927 -0.2417  2.0282
10621TIP3    H253355   5.872   5.024   5.220  1.4310 -0.5880  1.9223
10622TIP3   OH253356   5.614   5.287   4.514 -0.1332  0.4010  0.3735
10622TIP3    H153357   5.688   5.244   4.471 -0.4010  1.0070 -0.7053
10622TIP3    H253358   5.555   5.215   4.536 -0.2636  0.1344 -0.8074
10623TIP3   OH253359   5.696   4.685   4.337  0.1276 -0.2090 -0.0038
10623TIP3    H153360   5.718   4.741   4.412  0.4228  1.3620 -1.2449
10623TIP3    H253361   5.606   4.707   4.316  0.0537 -0.6281 -0.1368
10624TIP3   OH253362   6.698   0.262   3.290 -0.1682 -0.1762  0.1706
10624TIP3    H153363   6.643   0.215   3.353 -0.6995 -2.8894 -2.2052
10624TIP3    H253364   6.640   0.327   3.252 -0.7827 -0.7261  0.1532
10625TIP3   OH253365   0.836   3.725   1.418 -0.2115  0.4270  0.2622
10625TIP3    H153366   0.897   3.675   1.362  0.6499  2.6540 -0.8591
10625TIP3    H253367   0.892   3.765   1.484 -0.7361  0.9165  0.4072
10626TIP3   OH253368   4.564   6.192  12.803  0.1944 -0.0914 -0.0105
10626TIP3    H153369   4.497   6.186  12.871  0.5455 -0.6790  0.2889
10626TIP3    H253370   4.615   6.270  12.827  0.3720 -0.3439  0.4566
10627TIP3   OH253371   2.954   6.559   1.682  0.7138  0.1277  0.5288
10627TIP3    H153372   3.010   6.618   1.632  0.6560  1.6872  2.2440
10627TIP3    H253373   2.865   6.581   1.657  0.7682 -0.7866 -0.4979
10628TIP3   OH253374   3.158   6.433  15.439  0.8169  0.2292  0.1609
10628TIP3    H153375   3.214   6.356  15.431  1.4604  0.7556 -0.4543
10628TIP3    H253376   3.171   6.481  15.358  0.2202  0.8608  0.4291
10629TIP3   OH253377   2.044   0.921   1.048 -0.3818 -0.0540 -0.1114
10629TIP3    H153378   2.136   0.935   1.026 -0.4833 -1.3082 -1.4392
10629TIP3    H253379   2.003   1.006   1.033  0.5585  0.5496  0.6052
10630TIP3   OH253380   2.601   0.523   0.505 -0.1847  0.5594 -0.1449
10630TIP3    H153381   2.620   0.495   0.595  0.8901  1.9760  0.0969
10630TIP3    H253382   2.623   0.616   0.505 -1.2145  0.8012 -1.5990
10631TIP3   OH253383   2.864   6.740  17.287  0.1157  0.1328  0.1786
10631TIP3    H153384   2.802   6.768  17.354 -0.6165  0.9469 -0.8243
10631TIP3    H253385   2.822   6.665  17.245  0.6873 -0.5361  0.7886
10632TIP3   OH253386   0.067   3.402  16.793 -0.3837 -0.5243  0.0514
10632TIP3    H153387  -0.028   3.407  16.804 -0.3982 -0.9551  0.1283
10632TIP3    H253388   0.088   3.468  16.728 -0.7846 -0.6841 -0.2365
10633TIP3   OH253389   1.011   2.064   0.780 -0.1761  0.1079 -0.0322
10633TIP3    H153390   1.022   2.064   0.685  0.4136  0.2931  0.0377
10633TIP3    H253391   1.100   2.060   0.815 -0.3479  0.9312  0.5167
10634TIP3   OH253392   0.602   6.301  16.553 -0.1192  0.0641  0.0295
10634TIP3    H153393   0.523   6.354  16.554 -0.6055 -0.6393 -0.0795
10634TIP3    H253394   0.644   6.317  16.637 -0.8114 -0.1958  0.4278
10635TIP3   OH253395   2.986   1.509   4.468 -0.3103 -0.1329 -0.2807
10635TIP3    H153396   2.958   1.435   4.414 -0.7230  0.5716 -1.0415
10635TIP3    H253397   2.967   1.481   4.558  2.0296 -2.0400 -0.3093
10636TIP3   OH253398   0.704   0.068  10.642  0.1270  0.6543 -0.0705
10636TIP3    H153399   0.783   0.046  10.692 -0.7305  0.8353  1.3812
10636TIP3    H253400   0.694  -0.005  10.581  1.6757  0.8557 -0.5813
10637TIP3   OH253401   0.782   0.856   1.753 -0.0407  0.0350 -0.0697
10637TIP3    H153402   0.774   0.829   1.845  1.3826  1.1976  0.4228
10637TIP3    H253403   0.836   0.787   1.713 -2.3769 -1.5670 -0.5677
10638TIP3   OH253404   3.864   6.275  14.697 -0.0658 -0.0525 -0.6925
10638TIP3    H153405   3.786   6.319  14.664 -0.3425  0.6670  0.8679
10638TIP3    H253406   3.909   6.242  14.619 -1.7293 -0.1364 -1.6211
10639TIP3   OH253407   5.793   3.156   2.277 -0.2206 -0.2686 -0.0080
10639TIP3    H153408   5.886   3.134   2.269 -0.7423 -1.8721 -1.9960
10639TIP3    H253409   5.781   3.172   2.371  2.1419  0.3712  0.2258
10640TIP3   OH253410   1.021   4.119  15.742 -0.0162 -0.2145 -0.1521
10640TIP3    H153411   1.095   4.059  15.733  1.1283  1.0215  0.7957
10640TIP3    H253412   1.000   4.146  15.653 -0.1932 -1.6010 -0.5395
10641TIP3   OH253413   5.773   0.066   0.683 -0.2253  0.0107  0.2608
10641TIP3    H153414   5.680   0.084   0.672 -0.0709  0.0050 -1.0653
10641TIP3    H253415   5.799   0.120   0.758 -1.3711 -0.2677  0.8585
10642TIP3   OH253416   3.127   3.371   5.580 -0.3183  0.3179  0.3672
10642TIP3    H153417   3.196   3.306   5.592 -1.2352 -0.8642 -0.6718
10642TIP3    H253418   3.171   3.447   5.543  0.6515  0.0564  0.9827
10643TIP3   OH253419   6.751   4.678   2.528  0.1357 -0.0284  0.4022
10643TIP3    H153420   6.697   4.633   2.463  1.4763 -0.8193 -0.1972
10643TIP3    H253421   6.734   4.630   2.609 -1.8545  1.2211  0.7364
10644TIP3   OH253422   2.267   4.351  17.292 -0.3768  0.0272  0.3397
10644TIP3    H153423   2.228   4.406  17.224 -1.7440 -0.4625  0.7138
10644TIP3    H253424   2.326   4.410  17.339 -0.6473  0.7838 -0.2485
10645TIP3   OH253425   1.833   5.137  13.023  0.3533 -0.0985 -0.1014
10645TIP3    H153426   1.791   5.195  13.086  0.4967  0.1454 -0.2315
10645TIP3    H253427   1.785   5.054  13.031  0.1069  0.0577  0.0342
10646TIP3   OH253428   1.870   2.721  10.508 -0.1935 -0.4805 -0.4114
10646TIP3    H153429   1.903   2.807  10.481  0.8867 -0.5135  0.7754
10646TIP3    H253430   1.906   2.660  10.443  0.2927 -0.2303 -0.3806
10647TIP3   OH253431   5.503   6.114   0.942 -0.0644  0.1011  0.1435
10647TIP3    H153432   5.462   6.029   0.923  0.2217  0.3936 -1.9292
10647TIP3    H253433   5.550   6.100   1.024  0.8346 -2.0737 -0.6864
10648TIP3   OH253434   6.712   1.214   2.776  0.3998 -0.5088  0.3353
10648TIP3    H153435   6.660   1.230   2.697  0.5493  1.1456  0.5672
10648TIP3    H253436   6.802   1.229   2.748  0.3763  1.0618  1.0525
10649TIP3   OH253437   4.426   3.299   1.642  0.1611 -0.2061 -0.0699
10649TIP3    H153438   4.350   3.276   1.694 -1.7789  1.8833 -1.8568
10649TIP3    H253439   4.412   3.255   1.558  0.1334  1.3766 -0.9200
10650TIP3   OH253440   3.264   0.525   0.804  1.1352 -0.0951 -0.3668
10650TIP3    H153441   3.198   0.568   0.749 -0.0053 -2.8423 -1.2294
10650TIP3    H253442   3.256   0.569   0.889  1.6187  2.9235 -1.7933
10651TIP3   OH253443   0.792   1.725  15.101  0.4701 -0.3792 -0.8756
10651TIP3    H153444   0.763   1.690  15.017 -1.6214 -1.6635  0.3177
10651TIP3    H253445   0.797   1.819  15.088 -1.8531 -0.3650 -1.8983
10652TIP3   OH253446   1.454   3.884   1.769 -0.1166 -0.4082  0.0114
10652TIP3    H153447   1.521   3.925   1.823 -0.8876  0.1269  0.5592
10652TIP3    H253448   1.493   3.882   1.681  0.7077 -0.3179  0.3656
10653TIP3   OH253449   5.080   2.559  15.005 -0.1334  0.1955  0.2436
10653TIP3    H153450   5.034   2.574  14.922  0.1450 -0.0422  0.0445
10653TIP3    H253451   5.034   2.485  15.045 -0.9572  1.0121  0.8193
10654TIP3   OH253452   5.628   3.728   0.036 -0.3200 -0.3240 -0.0519
10654TIP3    H153453   5.703   3.670   0.021 -0.7304 -1.0375  0.6387
10654TIP3    H253454   5.581   3.727  -0.047 -0.0739 -0.6118 -0.1919
10655TIP3   OH253455   4.895   1.337   4.347 -0.0901  0.3319  0.2376
10655TIP3    H153456   4.924   1.252   4.315 -1.6176 -0.2252  0.2625
10655TIP3    H253457   4.884   1.391   4.269 -0.7624 -0.0404  0.0674
10656TIP3   OH253458   5.395   5.709  16.324 -0.2865  0.2021  0.6640
10656TIP3    H153459   5.392   5.734  16.232 -2.6712 -1.6623  0.1921
10656TIP3    H253460   5.304   5.689  16.347  0.4799 -0.8385  2.9956
10657TIP3   OH253461   1.829   2.171  10.942 -0.1123 -0.0038  0.3172
10657TIP3    H153462   1.819   2.084  10.903 -3.0917  0.5008 -0.1542
10657TIP3    H253463   1.918   2.198  10.919 -0.3348 -1.5119 -2.4762
10658TIP3   OH253464   0.006   0.685   5.444  0.3336 -0.3884 -0.3737
10658TIP3    H153465   0.095   0.657   5.421 -0.8963 -2.5604 -2.7152
10658TIP3    H253466  -0.001   0.666   5.537  1.5146 -2.6051 -0.6817
10659TIP3   OH253467   2.387   1.080   2.973 -0.2543  0.2077  0.4154
10659TIP3    H153468   2.463   1.125   2.936  1.1300 -0.7670  2.0037
10659TIP3    H253469   2.373   1.122   3.058 -2.0545  0.9639 -0.2234
10660TIP3   OH253470   5.576   1.705  13.108  0.1515 -0.2168 -0.1725
10660TIP3    H153471   5.631   1.783  13.110 -0.5813  0.2902  0.9134
10660TIP3    H253472   5.537   1.701  13.195 -2.0138 -0.1949 -1.0930
10661TIP3   OH253473   3.757   1.805   0.558 -0.0668 -0.5732 -0.4403
10661TIP3    H153474   3.726   1.788   0.469 -0.4850 -2.2645  0.0082
10661TIP3    H253475   3.702   1.750   0.614 -1.7684  2.6150  1.1895
10662TIP3   OH253476   5.633   0.390   5.578  0.9800 -0.1493 -0.3535
10662TIP3    H153477   5.656   0.482   5.565 -1.9846  0.7476  0.3649
10662TIP3    H253478   5.602   0.385   5.668  1.3486 -1.9290 -0.2986
10663TIP3   OH253479   6.090   4.620  13.096  0.4987  0.5633 -0.6473
10663TIP3    H153480   6.167   4.672  13.074  0.7349  1.3070  1.8153
10663TIP3    H253481   6.107   4.588  13.185 -1.3935 -0.4547 -0.6301
10664TIP3   OH253482   4.572   6.131   2.820  0.2627 -0.3154  0.7350
10664TIP3    H153483   4.606   6.189   2.752 -2.6223 -0.4951 -0.9293
10664TIP3    H253484   4.545   6.190   2.891 -2.8281  0.4838 -1.0175
10665TIP3   OH253485   1.499   2.021   2.249  0.2910  0.4459  0.1297
10665TIP3    H153486   1.482   1.954   2.183  0.5372  1.0244 -0.5266
10665TIP3    H253487   1.457   2.100   2.215 -1.0071  0.3410  1.4570
10666TIP3   OH253488   1.386   2.046  13.481  0.0922 -0.1310 -0.2000
10666TIP3    H153489   1.429   2.130  13.461 -0.6089  0.6138  1.3432
10666TIP3    H253490   1.458   1.988  13.504  0.4347  0.5650  0.5074
10667TIP3   OH253491   5.577   5.265  12.279 -0.2258  0.8721  0.1862
10667TIP3    H153492   5.617   5.336  12.229  0.5572  0.6491  0.4883
10667TIP3    H253493   5.491   5.252  12.239 -0.4379  2.0954  0.2310
10668TIP3   OH253494   4.583   6.446   2.717 -0.1324  0.3068  0.5323
10668TIP3    H153495   4.579   6.486   2.804 -1.5046  1.6285 -0.1047
10668TIP3    H253496   4.671   6.409   2.711  0.1643  0.7055  2.2646
10669TIP3   OH253497   5.111   5.413  12.808  0.6970  0.8269  0.2217
10669TIP3    H153498   5.092   5.320  12.813 -2.7801  1.4190 -0.8379
10669TIP3    H253499   5.136   5.428  12.716  1.8905  0.8614  0.5382
10670TIP3   OH253500   3.627   0.631  12.759  0.5853 -0.6997 -0.3616
10670TIP3    H153501   3.684   0.704  12.732 -1.0878  0.1278 -1.7637
10670TIP3    H253502   3.600   0.654  12.847  0.4570  0.1329 -0.6145
10671TIP3   OH253503   4.640   0.526  12.581 -0.0705  0.3187  0.0044
10671TIP3    H153504   4.544   0.523  12.575  0.0472 -3.1046 -1.0261
10671TIP3    H253505   4.662   0.463  12.649  1.4935  0.7717 -0.0631
10672TIP3   OH253506   6.553   2.662  12.460 -0.0736 -0.2598 -0.2143
10672TIP3    H153507   6.491   2.642  12.390 -0.9766 -0.1272  0.5369
10672TIP3    H253508   6.555   2.584  12.515 -0.4497  0.1637  0.4069
10673TIP3   OH253509   5.768   3.154   4.908 -0.2570 -0.7257 -0.1227
10673TIP3    H153510   5.830   3.122   4.973 -1.6489  1.6720  2.5137
10673TIP3    H253511   5.772   3.249   4.915 -2.6910 -0.4872 -1.3562
10674TIP3   OH253512   1.986   4.303  17.222  0.0660 -0.8003 -0.0431
10674TIP3    H153513   1.982   4.207  17.232 -1.3887 -0.7173  0.4048
10674TIP3    H253514   2.064   4.329  17.270 -0.2575 -1.6499  0.9711
10675TIP3   OH253515   6.463   5.428  14.779 -0.2197  0.3739  0.5937
10675TIP3    H153516   6.527   5.481  14.732 -0.1235 -1.6411 -1.6479
10675TIP3    H253517   6.406   5.491  14.823  0.1758  2.2934 -1.5940
10676TIP3   OH253518   3.255   2.490  14.021  0.1511 -1.0538  0.0931
10676TIP3    H153519   3.348   2.505  14.005 -0.4124  1.1531 -1.4933
10676TIP3    H253520   3.237   2.540  14.101 -0.2341  1.0249 -1.2363
10677TIP3   OH253521   5.392   3.057   0.650  0.0385 -0.0660  0.1756
10677TIP3    H153522   5.301   3.074   0.627 -0.3682 -1.1137  0.9761
10677TIP3    H253523   5.388   2.983   0.711  1.5402 -1.3152 -1.1871
10678TIP3   OH253524   0.542   5.423  11.324 -0.1020  0.1492 -0.9108
10678TIP3    H153525   0.461   5.460  11.287 -2.8648 -1.5618  3.0286
10678TIP3    H253526   0.579   5.495  11.375 -0.1331  0.4024 -1.2417
10679TIP3   OH253527   2.983   5.668   2.508 -0.5208 -0.6327 -0.2134
10679TIP3    H153528   2.935   5.691   2.429  0.1952 -1.0265 -0.7735
10679TIP3    H253529   3.023   5.583   2.487  0.9135 -0.0306  0.0059
10680TIP3   OH253530   3.720   2.868   0.630  0.1431  0.1553 -0.0287
10680TIP3    H153531   3.808   2.845   0.601 -0.1231 -0.8349 -0.0675
10680TIP3    H253532   3.662   2.825   0.567 -0.3355  3.1674 -1.7231
10681TIP3   OH253533   1.241   0.863   5.100  0.0220 -0.2021  0.0589
10681TIP3    H153534   1.174   0.858   5.031  1.9667  1.9518 -2.0676
10681TIP3    H253535   1.237   0.954   5.130  1.2755 -0.3240  0.6171
10682TIP3   OH253536   1.209   4.592  11.373  0.2190  0.4849 -0.0864
10682TIP3    H153537   1.278   4.544  11.417  0.6905  1.0146 -0.2393
10682TIP3    H253538   1.166   4.642  11.442  0.5129  0.7798 -0.1161
10683TIP3   OH253539   6.688   6.794   3.942 -0.4167  0.9715  0.2922
10683TIP3    H153540   6.648   6.851   4.007  0.2210 -1.1117  2.6184
10683TIP3    H253541   6.767   6.761   3.985  1.1487  1.0932 -2.3230
10684TIP3   OH253542   2.329   0.494   0.481  1.0876 -0.2070  0.3746
10684TIP3    H153543   2.288   0.580   0.482 -0.8674 -1.0886 -1.0412
10684TIP3    H253544   2.422   0.512   0.469  0.6908  1.7153  0.0625
10685TIP3   OH253545   1.040   3.287  10.541  0.8935 -0.8808  0.8537
10685TIP3    H153546   1.038   3.378  10.509  0.7162 -1.6420 -1.4137
10685TIP3    H253547   1.069   3.294  10.632  0.8015  1.4584  0.7385
10686TIP3   OH253548   6.165   4.743  16.597 -0.4964 -0.4184 -0.4886
10686TIP3    H153549   6.222   4.672  16.566 -2.4229 -2.0373 -0.4218
10686TIP3    H253550   6.225   4.804  16.639  1.6820 -0.1844 -3.7188
10687TIP3   OH253551   0.046   0.903  15.602  0.3699  0.6655 -0.1047
10687TIP3    H153552   0.100   0.834  15.564  1.4468  0.7227  1.2816
10687TIP3    H253553  -0.021   0.856  15.651  0.2854  0.6081 -0.2719
10688TIP3   OH253554   5.931   5.379  12.598 -0.0389 -0.8701 -0.6482
10688TIP3    H153555   5.909   5.446  12.663  1.8701 -1.2459  0.4246
10688TIP3    H253556   5.857   5.378  12.538 -1.3664  0.2123  0.9504
10689TIP3   OH253557   2.672   5.069   1.064 -0.0389 -0.3616  0.1929
10689TIP3    H153558   2.592   5.097   1.021 -0.7239 -0.8136  1.1663
10689TIP3    H253559   2.661   4.976   1.080 -1.1026  0.3184  4.0415
10690TIP3   OH253560   6.492   6.505   1.818 -0.5531 -0.1960 -0.5383
10690TIP3    H153561   6.436   6.524   1.742 -0.7524 -0.9536 -0.5871
10690TIP3    H253562   6.581   6.510   1.785 -0.6432 -0.6153 -0.8524
10691TIP3   OH253563   5.863   6.075  11.536 -0.5394  0.4406 -0.3738
10691TIP3    H153564   5.828   6.137  11.600  0.3511  0.2592  0.3016
10691TIP3    H253565   5.814   6.093  11.456 -3.4368 -1.0512  1.0107
10692TIP3   OH253566   5.178   6.228   0.056  0.2994 -0.6955  0.3084
10692TIP3    H153567   5.222   6.277   0.125  0.3193 -2.0396  1.2637
10692TIP3    H253568   5.249   6.198  -0.002  0.5149 -1.5582  1.0059
10693TIP3   OH253569   6.053   0.887  15.181  0.2752 -0.1669 -0.0206
10693TIP3    H153570   6.049   0.865  15.274 -1.6273  0.5495  0.0831
10693TIP3    H253571   6.001   0.819  15.138  0.9815 -0.3803 -0.5552
10694TIP3   OH253572   5.923   3.372  13.104  0.0231 -0.9455  0.2892
10694TIP3    H153573   5.835   3.396  13.073  1.0170 -0.8299 -2.5414
10694TIP3    H253574   5.980   3.441  13.071  1.4008 -1.8022  0.8571
10695TIP3   OH253575   4.197   6.002   0.510 -0.6971  0.2265  0.4939
10695TIP3    H153576   4.156   5.938   0.567  1.8450 -0.5427  1.5178
10695TIP3    H253577   4.273   5.957   0.473  0.2502  2.1386  0.0281
10696TIP3   OH253578   0.332   2.314  13.892  0.5700 -0.2124  0.4861
10696TIP3    H153579   0.252   2.268  13.916  0.1163 -0.8638 -2.2061
10696TIP3    H253580   0.306   2.406  13.889 -0.3280 -0.5080 -1.2901
10697TIP3   OH253581   3.740   2.759   1.969 -0.3565  0.4376 -0.3788
10697TIP3    H153582   3.708   2.754   1.879 -2.6295  2.3272  0.2503
10697TIP3    H253583   3.785   2.843   1.974  1.0444 -0.3111 -0.1111
10698TIP3   OH253584   6.182   4.639  12.785 -0.0847  0.4255  0.7252
10698TIP3    H153585   6.220   4.693  12.716  0.6907  1.4174  1.9003
10698TIP3    H253586   6.258   4.604  12.832 -0.5985 -0.4741  0.9059
10699TIP3   OH253587   2.149   1.433   5.828  0.4624 -0.0477 -0.6638
10699TIP3    H153588   2.174   1.351   5.871  0.7316 -0.1299 -0.9731
10699TIP3    H253589   2.139   1.496   5.900  0.9533 -0.1744 -0.4778
10700TIP3   OH253590   3.138   6.156   4.520  0.2861  0.0311  0.1973
10700TIP3    H153591   3.162   6.238   4.563  1.1160  0.2154 -0.6049
10700TIP3    H253592   3.162   6.087   4.582 -0.3404  0.3833  0.8375
10701TIP3   OH253593   0.503   2.613   6.923 -0.0663 -0.2188  0.4765
10701TIP3    H153594   0.466   2.612   7.011  0.2715 -2.2706  0.6242
10701TIP3    H253595   0.498   2.522   6.894  2.4722 -0.0898 -0.4952
10702TIP3   OH253596   6.246   2.259  13.688  0.1613  1.0155 -0.4139
10702TIP3    H153597   6.265   2.173  13.725  1.9070  2.1846  1.5411
10702TIP3    H253598   6.151   2.265  13.687  0.0489 -0.1540  1.3305
10703TIP3   OH253599   2.416   3.383  16.586  0.0211 -0.3002 -0.6623
10703TIP3    H153600   2.363   3.459  16.558 -0.3373 -0.0574  0.6491
10703TIP3    H253601   2.453   3.349  16.504 -1.2642  0.2061 -1.4850
10704TIP3   OH253602   4.921   2.770  13.147 -0.4555 -0.6191 -0.3909
10704TIP3    H153603   5.012   2.796  13.152 -0.6110  0.2541 -1.9642
10704TIP3    H253604   4.914   2.720  13.066 -1.0157 -2.1471  0.5826
10705TIP3   OH253605   1.835   2.035  12.832 -0.0923 -0.0401 -0.1927
10705TIP3    H153606   1.822   2.090  12.755  0.4123 -0.2055 -0.4000
10705TIP3    H253607   1.747   2.015  12.862 -0.2820  0.8126 -0.1632
10706TIP3   OH253608   3.275   2.647  14.812 -0.5813  0.5294 -0.0546
10706TIP3    H153609   3.247   2.709  14.879 -0.7152 -0.7773  1.1315
10706TIP3    H253610   3.366   2.669  14.794 -0.7859  1.4025 -0.0410
10707TIP3   OH253611   4.709   1.275  11.627  0.3775  0.2280 -0.9840
10707TIP3    H153612   4.789   1.308  11.668 -0.8118 -0.7456  2.2305
10707TIP3    H253613   4.714   1.180  11.638 -1.3597  0.1826 -0.4826
10708TIP3   OH253614   3.464   1.220   1.831 -0.3553 -0.1457  0.1620
10708TIP3    H153615   3.493   1.283   1.897 -1.3621 -0.6240  1.0733
10708TIP3    H253616   3.508   1.248   1.750  0.6341  0.6335  0.9568
10709TIP3   OH253617   4.412   2.475  14.891 -0.2376  0.0853  0.4681
10709TIP3    H153618   4.416   2.406  14.957 -0.1423 -0.6969 -0.3435
10709TIP3    H253619   4.444   2.434  14.811 -2.2660  0.4244 -0.5508
10710TIP3   OH253620   6.672   0.312   3.882  0.0091 -0.2184  0.1137
10710TIP3    H153621   6.672   0.268   3.967  0.1322 -1.2289 -0.3998
10710TIP3    H253622   6.582   0.305   3.852 -0.0013  0.0120  0.0934
10711TIP3   OH253623   6.129   2.440   0.102 -0.0292 -0.2237 -0.1748
10711TIP3    H153624   6.217   2.421   0.070  0.4089  1.8558 -0.2784
10711TIP3    H253625   6.072   2.430   0.026  0.4831  0.9580 -0.7210
10712TIP3   OH253626   0.335   5.426  11.562  0.2099 -0.1072 -0.0413
10712TIP3    H153627   0.309   5.421  11.654 -1.0096 -0.8733 -0.4108
10712TIP3    H253628   0.429   5.407  11.562  0.5331  1.4018  1.1963
10713TIP3   OH253629   2.346   5.882  13.512  0.4877  0.0041 -0.4747
10713TIP3    H153630   2.393   5.959  13.545 -1.0838  1.5454 -1.7584
10713TIP3    H253631   2.406   5.809  13.529  1.3434  1.2618  2.2052
10714TIP3   OH253632   6.505   5.164  12.830  0.3504 -0.2811  0.3263
10714TIP3    H153633   6.478   5.246  12.788  1.5791  0.4475  0.9366
10714TIP3    H253634   6.429   5.137  12.880 -0.1886  0.3100 -0.1609
10715TIP3   OH253635   0.471   0.965  15.152  0.3585 -0.2976  0.0685
10715TIP3    H153636   0.436   1.051  15.176 -0.1271 -0.8680  1.4423
10715TIP3    H253637   0.420   0.903  15.203  1.8270 -1.2968  0.3586
10716TIP3   OH253638   6.699   5.907  15.043 -0.4612  0.1244 -0.6341
10716TIP3    H153639   6.620   5.939  14.999 -0.3292  1.5715  0.1636
10716TIP3    H253640   6.729   5.981  15.096 -0.2057 -1.3282  1.3262
10717TIP3   OH253641   2.859   0.444  15.334  0.4406 -0.2516 -0.0668
10717TIP3    H153642   2.943   0.423  15.374 -1.0199 -0.5499  3.0139
10717TIP3    H253643   2.834   0.528  15.373 -0.9121 -0.4037 -0.5729
10718TIP3   OH253644   1.935   6.532  12.943  0.2616 -0.4033 -0.7423
10718TIP3    H153645   1.848   6.564  12.920 -0.5198 -2.4695 -0.8129
10718TIP3    H253646   1.988   6.611  12.955 -1.9416  0.9132  0.5770
10719TIP3   OH253647   1.629   3.052  13.653  0.2706 -0.6169 -0.8867
10719TIP3    H153648   1.661   2.972  13.696  1.6582  0.6926  0.5833
10719TIP3    H253649   1.666   3.048  13.565 -0.3279 -1.9934 -1.0847
10720TIP3   OH253650   0.793   2.520   4.858  0.2736  0.1170 -0.1653
10720TIP3    H153651   0.716   2.474   4.826 -0.1399  0.5051  0.2633
10720TIP3    H253652   0.830   2.461   4.924  0.4676 -0.1640 -0.5218
10721TIP3   OH253653   2.161   0.582  16.504  0.1518 -0.2989  0.2087
10721TIP3    H153654   2.243   0.593  16.551  0.2629  0.4106 -0.1292
10721TIP3    H253655   2.185   0.591  16.411 -0.2502 -0.4148  0.0889
10722TIP3   OH253656   3.593   0.839  15.900 -0.1992  0.0775 -0.0421
10722TIP3    H153657   3.671   0.786  15.915  0.6711  1.0655 -0.9304
10722TIP3    H253658   3.611   0.884  15.817 -1.6028  0.5181 -0.1198
10723TIP3   OH253659   5.505   3.346  16.339 -0.2262  0.3620  0.2109
10723TIP3    H153660   5.446   3.333  16.264 -0.2669 -0.0209  0.3080
10723TIP3    H253661   5.512   3.441  16.348  0.1152  0.4059 -0.5450
10724TIP3   OH253662   2.071   3.676  10.596 -0.1724 -0.5747 -0.3168
10724TIP3    H153663   2.128   3.692  10.671 -1.0882 -0.1623  0.3043
10724TIP3    H253664   2.084   3.751  10.539 -0.8748  0.0298  0.3166
10725TIP3   OH253665   6.243   6.006   1.638  0.4653  0.5421  0.1092
10725TIP3    H153666   6.165   5.960   1.670 -0.2656  0.5367 -1.6225
10725TIP3    H253667   6.310   5.988   1.704 -0.5746 -0.7196  0.8545
10726TIP3   OH253668   5.788   6.230  10.789  0.0704  0.8446  0.0427
10726TIP3    H153669   5.835   6.251  10.709  0.9665 -1.5057 -0.0850
10726TIP3    H253670   5.710   6.286  10.787  0.1764  0.9497 -2.3799
10727TIP3   OH253671   4.429   3.224   2.765  0.4177  0.0049  0.0861
10727TIP3    H153672   4.347   3.178   2.777  0.1089  0.3860 -0.5117
10727TIP3    H253673   4.412   3.285   2.693  1.3260 -0.1594 -0.2739
10728TIP3   OH253674   0.063   4.708   4.138 -0.0232 -0.3099 -0.0752
10728TIP3    H153675   0.003   4.760   4.084 -0.1858 -0.6622 -0.2402
10728TIP3    H253676   0.128   4.770   4.169 -0.6250  0.1319  0.3240
10729TIP3   OH253677   2.853   3.527  14.212  0.6096 -0.5148  0.1507
10729TIP3    H153678   2.917   3.540  14.281  0.8663  0.4879 -0.2724
10729TIP3    H253679   2.898   3.552  14.131  0.1447 -1.1663 -0.3216
10730TIP3   OH253680   3.948   5.064  11.824 -0.4934 -0.2019 -0.0268
10730TIP3    H153681   3.945   5.040  11.917 -1.1249 -1.7540 -0.4249
10730TIP3    H253682   3.857   5.056  11.795 -0.2327 -0.1354 -0.8732
10731TIP3   OH253683   6.124   5.624   5.858  0.3827 -0.8393 -0.4788
10731TIP3    H153684   6.080   5.628   5.943  0.1434 -0.8365 -0.6029
10731TIP3    H253685   6.137   5.715   5.832  2.1851 -0.8020  0.4397
10732TIP3   OH253686   6.490   2.009  10.462 -0.4532  0.1719 -0.2070
10732TIP3    H153687   6.422   2.075  10.450  0.2168  0.2912 -4.1043
10732TIP3    H253688   6.447   1.939  10.510 -2.1653  1.9411  0.9181
10733TIP3   OH253689   2.366   0.697  15.775  0.2778  0.4496 -0.3462
10733TIP3    H153690   2.408   0.616  15.743  0.8199  0.5796  0.0276
10733TIP3    H253691   2.378   0.760  15.704 -2.9595 -0.6939 -2.0005
10734TIP3   OH253692   3.919   3.422  13.680 -0.2833  0.1108 -0.0859
10734TIP3    H153693   3.857   3.446  13.749  0.5544 -0.7314  0.9864
10734TIP3    H253694   4.003   3.414  13.726  0.1285 -1.2567 -1.0690
10735TIP3   OH253695   2.258   2.804  11.802  0.6554  0.2240  0.4850
10735TIP3    H153696   2.196   2.747  11.756  2.4390  0.2760 -2.1195
10735TIP3    H253697   2.207   2.882  11.822 -0.4310 -0.1456 -0.6902
10736TIP3   OH253698   4.677   0.569  15.139 -0.3298 -0.0395  0.3683
10736TIP3    H153699   4.605   0.571  15.202 -1.3323  0.9890 -0.7818
10736TIP3    H253700   4.710   0.659  15.138  0.6393 -0.3821  0.4838
10737TIP3   OH253701   1.782   2.529   0.149  0.0889 -0.0657 -0.1782
10737TIP3    H153702   1.791   2.624   0.144  0.3040  0.0796  2.3850
10737TIP3    H253703   1.688   2.515   0.162  0.0586 -0.2161 -0.5501
10738TIP3   OH253704   3.387   1.880  10.505 -0.1422  0.5602 -0.9537
10738TIP3    H153705   3.435   1.908  10.583 -0.7718 -0.7986 -0.0638
10738TIP3    H253706   3.295   1.898  10.526 -0.3787 -0.4624 -1.1116
10739TIP3   OH253707   0.330   0.434  12.317 -0.0823  0.0317 -0.1479
10739TIP3    H153708   0.402   0.386  12.277 -0.4127 -1.1031  0.6014
10739TIP3    H253709   0.266   0.443  12.246 -0.3901 -1.4146 -0.0681
10740TIP3   OH253710   4.563   2.276   4.863  0.4282 -0.5373 -0.0930
10740TIP3    H153711   4.606   2.193   4.884  0.2694 -0.4784  0.4743
10740TIP3    H253712   4.615   2.313   4.792  1.4089 -0.3946  0.6943
10741TIP3   OH253713   3.377   0.141  14.545  0.0031  0.8833 -0.3395
10741TIP3    H153714   3.435   0.114  14.474  0.7469  0.3084  0.4827
10741TIP3    H253715   3.431   0.136  14.624 -1.1042  0.4861  0.4115
10742TIP3   OH253716   4.431   2.236   5.875  0.9145  0.5716 -0.4274
10742TIP3    H153717   4.396   2.298   5.939 -0.6645 -0.2428 -0.4904
10742TIP3    H253718   4.521   2.266   5.860  1.8421 -0.0265  3.2631
10743TIP3   OH253719   0.700   1.434   5.539 -0.3382 -0.5331 -0.1642
10743TIP3    H153720   0.624   1.472   5.494  1.4429 -0.0511 -2.8702
10743TIP3    H253721   0.775   1.466   5.490  1.6599 -1.0516  2.4365
10744TIP3   OH253722   1.767   1.765   5.706  0.5973 -0.0467  0.0398
10744TIP3    H153723   1.847   1.730   5.746  0.6173 -2.0362 -1.6553
10744TIP3    H253724   1.793   1.850   5.671  1.4908  0.1263  1.0888
10745TIP3   OH253725   3.188   3.472  13.482  0.4499 -0.0814  0.2361
10745TIP3    H153726   3.174   3.378  13.483  0.6124 -0.1299 -0.9661
10745TIP3    H253727   3.101   3.510  13.493 -0.1210 -0.3836 -2.8306
10746TIP3   OH253728   0.231   3.156  15.391  0.2567 -0.7475  0.1635
10746TIP3    H153729   0.225   3.107  15.309  1.1544 -0.7308  0.0778
10746TIP3    H253730   0.295   3.108  15.443  1.7036  0.7262 -0.2100
10747TIP3   OH253731   1.504   0.281   4.120  0.3117  0.2349  0.6402
10747TIP3    H153732   1.450   0.360   4.118 -2.8646 -1.8666  0.6794
10747TIP3    H253733   1.452   0.218   4.169  2.7009 -1.9752  0.4050
10748TIP3   OH253734   5.187   4.258   2.673 -0.3753  0.2237 -0.4310
10748TIP3    H153735   5.270   4.215   2.652  0.1326  0.7377  0.5282
10748TIP3    H253736   5.160   4.299   2.590 -0.4566 -1.2197 -1.1427
10749TIP3   OH253737   6.349   1.804   6.063  0.4092 -0.0971 -0.1339
10749TIP3    H153738   6.435   1.827   6.099 -0.0340  0.0327  0.8694
10749TIP3    H253739   6.366   1.784   5.971  1.3339  1.0187 -0.2148
10750TIP3   OH253740   5.383   1.047  14.508 -0.2527  0.4634 -0.4661
10750TIP3    H153741   5.361   1.058  14.415 -0.0941  0.1166 -0.5443
10750TIP3    H253742   5.301   1.017  14.548 -0.1840  0.1214 -0.5835
10751TIP3   OH253743   1.453   5.899  15.727 -0.1691  0.0327  1.0373
10751TIP3    H153744   1.432   5.813  15.763  0.8283 -0.4116  0.5623
10751TIP3    H253745   1.517   5.882  15.658 -1.4814  0.9635 -0.4356
10752TIP3   OH253746   6.751   1.082   5.302  0.4428  0.5151  0.7186
10752TIP3    H153747   6.700   1.054   5.227 -0.3066 -2.1714  2.1643
10752TIP3    H253748   6.701   1.155   5.339  1.9098  3.2831 -2.5264
10753TIP3   OH253749   1.896   4.747  12.096 -0.0054 -0.2127  0.4273
10753TIP3    H153750   1.936   4.827  12.063  0.7489 -0.8079 -0.1379
10753TIP3    H253751   1.868   4.701  12.017  1.5016 -1.4992  0.6110
10754TIP3   OH253752   3.547   2.146   6.209  0.1359 -0.0428 -0.0464
10754TIP3    H153753   3.453   2.161   6.222  0.2385  1.8972 -1.2743
10754TIP3    H253754   3.587   2.178   6.290 -0.2096 -0.1211  0.1571
10755TIP3   OH253755   2.342   6.114  15.667 -0.5883  0.2265  0.2267
10755TIP3    H153756   2.318   6.120  15.574 -1.7086  0.1088  0.4957
10755TIP3    H253757   2.404   6.042  15.671  0.6391  1.2140 -0.6530
10756TIP3   OH253758   1.906   0.416  11.048  0.0140  0.2423  0.1939
10756TIP3    H153759   1.950   0.411  11.132  0.8232  0.3636 -0.2188
10756TIP3    H253760   1.976   0.417  10.983 -0.5670  1.0479 -0.4487
10757TIP3   OH253761   0.828   3.143  15.291 -0.4477 -0.3903 -0.0673
10757TIP3    H153762   0.745   3.146  15.243  0.6154  0.0206 -1.9147
10757TIP3    H253763   0.865   3.057  15.271 -0.4553 -0.6074  0.8241
10758TIP3   OH253764   3.680   4.026  13.125  0.2640 -0.4441  0.3048
10758TIP3    H153765   3.602   4.064  13.085 -0.9688 -3.5638 -0.3440
10758TIP3    H253766   3.683   3.936  13.093  1.6332 -1.7532  3.8532
10759TIP3   OH253767   2.995   5.202   4.279  0.0990 -0.0784  0.0563
10759TIP3    H153768   2.964   5.189   4.190  1.3288  1.4693 -0.5987
10759TIP3    H253769   2.957   5.286   4.306 -1.1353 -1.0300  1.3859
10760TIP3   OH253770   0.566   5.524   2.152 -0.1715 -0.2232 -0.6918
10760TIP3    H153771   0.603   5.584   2.088  3.3639 -1.3802  0.1575
10760TIP3    H253772   0.567   5.438   2.109 -1.0366 -0.4277 -0.3229
10761TIP3   OH253773   6.485   5.622   6.486 -0.6861 -0.1057 -0.3137
10761TIP3    H153774   6.417   5.591   6.545 -0.7666 -2.0724 -1.4082
10761TIP3    H253775   6.566   5.614   6.536 -0.6293 -2.6879 -0.7610
10762TIP3   OH253776   2.003   5.037   5.561 -0.5025 -0.4858  0.5406
10762TIP3    H153777   1.974   5.128   5.557  2.4398  0.5070  0.0692
10762TIP3    H253778   1.926   4.987   5.590 -2.5217  1.9538 -0.4898
10763TIP3   OH253779   6.444   1.177  14.367  0.0319  0.6808 -0.5459
10763TIP3    H153780   6.394   1.096  14.358 -0.2463  0.8003 -0.1154
10763TIP3    H253781   6.522   1.164  14.313  1.0936 -0.7482  1.2982
10764TIP3   OH253782   0.595   3.603   4.170 -0.0358  0.4172 -0.5840
10764TIP3    H153783   0.527   3.667   4.150  0.3555  0.8584 -0.5185
10764TIP3    H253784   0.613   3.560   4.086 -0.2420  0.4474 -0.6436
10765TIP3   OH253785   0.301   4.742   6.407  0.3093  0.1842  0.3122
10765TIP3    H153786   0.322   4.773   6.495 -0.0584 -0.7564  0.7338
10765TIP3    H253787   0.288   4.823   6.356  2.4798  0.7634  0.6213
10766TIP3   OH253788   1.183   1.316  12.591 -0.4032  0.0265  0.3803
10766TIP3    H153789   1.104   1.273  12.558  1.9350 -1.6542 -3.3374
10766TIP3    H253790   1.182   1.403  12.551 -0.3590  0.0015  0.3257
10767TIP3   OH253791   5.876   6.664   4.191  0.2101 -0.0105 -0.4978
10767TIP3    H153792   5.870   6.758   4.206 -0.9892 -0.4244  1.7626
10767TIP3    H253793   5.836   6.652   4.104 -1.9266  1.2926  0.2522
10768TIP3   OH253794   3.519   6.560   5.463 -0.1962 -0.5602  0.4334
10768TIP3    H153795   3.465   6.562   5.543 -0.1857  0.8718  0.4117
10768TIP3    H253796   3.581   6.632   5.474  0.4162 -0.9467 -0.4536
10769TIP3   OH253797   0.662   6.416  14.798 -0.0445  0.3254 -0.1423
10769TIP3    H153798   0.718   6.344  14.771 -2.3240 -1.7912  0.6373
10769TIP3    H253799   0.610   6.438  14.720 -1.2152 -0.6746  0.3381
10770TIP3   OH253800   5.064   6.639  14.121 -0.8056  0.7247 -0.2078
10770TIP3    H153801   5.113   6.562  14.146 -0.8144  0.9470  0.5069
10770TIP3    H253802   4.976   6.625  14.157 -1.4825  0.0311 -2.0222
10771TIP3   OH253803   4.105   6.378  14.095  0.3437  0.5068 -0.1198
10771TIP3    H153804   4.044   6.353  14.026 -0.6092  3.8755 -0.5568
10771TIP3    H253805   4.187   6.334  14.071 -1.5066 -3.2039 -0.0878
10772TIP3   OH253806   5.887   5.851   2.611 -0.4378  0.0839 -0.3379
10772TIP3    H153807   5.945   5.907   2.559  2.0714 -1.7930  0.3633
10772TIP3    H253808   5.828   5.810   2.547 -1.7045  2.7382 -0.9502
10773TIP3   OH253809   5.631   0.666   5.579  0.4525 -0.4743 -0.0829
10773TIP3    H153810   5.576   0.649   5.502  0.4688  0.0461 -0.2138
10773TIP3    H253811   5.721   0.657   5.546  0.5160  2.4081 -0.7775
10774TIP3   OH253812   1.174   3.791  17.000 -0.7546  0.3934 -0.3469
10774TIP3    H153813   1.098   3.817  17.051 -0.4742  1.5275 -0.4961
10774TIP3    H253814   1.249   3.816  17.054 -0.4281  2.9722 -1.9202
10775TIP3   OH253815   1.313   2.229  16.309 -1.0662 -0.1150  0.0781
10775TIP3    H153816   1.281   2.206  16.396  0.7714 -0.4416  0.7019
10775TIP3    H253817   1.293   2.322  16.300  0.1323  0.3117  1.5212
10776TIP3   OH253818   0.541   4.628   3.035 -0.4885 -0.2875 -0.1775
10776TIP3    H153819   0.454   4.621   3.073 -1.1156 -0.3341 -1.5854
10776TIP3    H253820   0.526   4.639   2.941  1.0210 -0.2840 -0.4420
10777TIP3   OH253821   4.973   0.395  17.088 -0.2011 -0.2422  0.2028
10777TIP3    H153822   4.997   0.337  17.160 -1.3938 -2.2372 -0.9499
10777TIP3    H253823   4.968   0.482  17.127 -0.5137 -1.2508  2.4558
10778TIP3   OH253824   0.256   1.913   5.224 -0.0510  0.3311  0.5825
10778TIP3    H153825   0.166   1.883   5.208  0.3509 -0.8161  0.3885
10778TIP3    H253826   0.247   2.005   5.248 -1.3445  0.0382  1.2819
10779TIP3   OH253827   3.427   2.704   1.550 -0.6088  0.0661 -0.6429
10779TIP3    H153828   3.416   2.736   1.639 -1.9938  0.1398 -0.8237
10779TIP3    H253829   3.495   2.637   1.556 -1.0011 -0.2339  0.5442
10780TIP3   OH253830   3.357   3.248   5.637  0.5378  0.1688  0.3986
10780TIP3    H153831   3.424   3.212   5.578  0.5133 -0.3792  0.7138
10780TIP3    H253832   3.406   3.276   5.714  0.2993 -0.9079  0.9368
10781TIP3   OH253833   1.887   3.392   3.026  0.2658  0.7554 -0.9644
10781TIP3    H153834   1.910   3.468   2.973  1.0127  1.0355 -0.2623
10781TIP3    H253835   1.868   3.323   2.963  0.9063  1.1552 -1.6015
10782TIP3   OH253836   2.421   6.811  14.627  0.1971 -0.3182  0.6373
10782TIP3    H153837   2.485   6.759  14.676  2.1423  1.6654  0.2814
10782TIP3    H253838   2.399   6.758  14.551 -0.1849 -1.9217  1.8602
10783TIP3   OH253839   1.927   4.246  15.446 -0.4062  0.3896 -0.6687
10783TIP3    H153840   1.834   4.246  15.470 -0.5918  0.7029 -1.3952
10783TIP3    H253841   1.940   4.329  15.400 -0.1722 -0.4608 -2.1715
10784TIP3   OH253842   6.157   5.431  14.231  0.1676 -0.4542 -0.2069
10784TIP3    H153843   6.229   5.371  14.212  1.0741  1.0507 -1.7323
10784TIP3    H253844   6.200   5.512  14.257 -0.9896  0.2686 -0.5116
10785TIP3   OH253845   4.450   3.904   6.239  0.2899 -0.0180 -0.2212
10785TIP3    H153846   4.446   3.830   6.300 -1.3235  0.4636  0.2766
10785TIP3    H253847   4.516   3.878   6.175  2.5031 -0.2228  2.0991
10786TIP3   OH253848   1.060   2.766   5.077 -0.2372 -0.7096  0.2029
10786TIP3    H153849   1.138   2.783   5.024  0.8116 -1.0498  1.6209
10786TIP3    H253850   1.080   2.687   5.126 -1.6864 -1.1005  0.1932
10787TIP3   OH253851   2.016   1.586   3.398 -0.2925 -0.4437  0.2366
10787TIP3    H153852   1.995   1.637   3.320 -1.7576  0.2157  1.0413
10787TIP3    H253853   1.998   1.495   3.372 -2.3404 -0.0817  0.2720
10788TIP3   OH253854   2.867   2.918  15.753 -0.3807 -0.3467  0.3197
10788TIP3    H153855   2.773   2.907  15.768 -0.4438 -1.3522 -0.7098
10788TIP3    H253856   2.883   2.872  15.670  1.2822 -1.4422  1.2221
10789TIP3   OH253857   5.784   0.487   3.658  0.1915  0.2734  0.1535
10789TIP3    H153858   5.762   0.449   3.572  1.8218 -0.4116  0.0366
10789TIP3    H253859   5.859   0.543   3.640 -0.3999  1.3045  0.8759
10790TIP3   OH253860   4.864   1.796   4.276 -0.2981  0.1308  0.0320
10790TIP3    H153861   4.878   1.829   4.364 -0.8399 -2.6105  1.2277
10790TIP3    H253862   4.939   1.826   4.225  0.8724  0.3351  1.8658
10791TIP3   OH253863   2.317   4.212  14.717  0.1893 -0.4039  0.6254
10791TIP3    H153864   2.330   4.166  14.799  1.3810  0.6820  1.0738
10791TIP3    H253865   2.254   4.159  14.668 -0.5237 -1.0404  2.2329
10792TIP3   OH253866   4.696   5.410   1.062  0.1007 -0.5470 -0.0266
10792TIP3    H153867   4.781   5.445   1.091 -0.2090  0.9082 -0.8615
10792TIP3    H253868   4.638   5.425   1.136  0.9693 -3.1921  1.2622
10793TIP3   OH253869   1.330   4.930  11.735 -0.4620  0.2461 -0.0669
10793TIP3    H153870   1.286   4.988  11.674  1.7861  1.6909 -0.3698
10793TIP3    H253871   1.368   4.861  11.680  0.6033  0.9274 -0.1974
10794TIP3   OH253872   1.187   5.331   0.445  0.1001  0.7963 -0.4262
10794TIP3    H153873   1.191   5.344   0.351 -0.4791  0.7517 -0.4573
10794TIP3    H253874   1.099   5.359   0.470  0.4527  1.3641  0.1888
10795TIP3   OH253875   5.151   0.940  12.515 -0.2358  0.3044  0.5442
10795TIP3    H153876   5.066   0.915  12.478 -0.5149 -0.6652  1.7934
10795TIP3    H253877   5.214   0.919  12.446 -1.1478  2.6730 -1.0842
10796TIP3   OH253878   3.078   5.865  16.319  0.3782  0.3227  0.3109
10796TIP3    H153879   3.008   5.921  16.286 -0.1452 -1.2834 -1.4423
10796TIP3    H253880   3.154   5.887  16.265  0.2165 -0.4846 -0.2672
10797TIP3   OH253881   4.192   2.288   1.952 -0.1010  0.7933 -0.2370
10797TIP3    H153882   4.226   2.371   1.918 -1.6031  1.4050 -0.3115
10797TIP3    H253883   4.097   2.298   1.947 -0.3398 -1.7675 -2.3383
10798TIP3   OH253884   3.691   0.046   0.422  0.7355  0.5718  0.1202
10798TIP3    H153885   3.669   0.009   0.336  0.8160  0.0214  0.3312
10798TIP3    H253886   3.752   0.117   0.402  0.2648  0.8484 -0.3220
10799TIP3   OH253887   4.010   5.908  16.487  0.1521  0.1748  0.0866
10799TIP3    H153888   3.923   5.893  16.524  0.1403 -1.9425 -0.7161
10799TIP3    H253889   4.068   5.852  16.540  0.6543 -0.2568 -0.9160
10800TIP3   OH253890   2.468   1.417  12.332 -0.5121  0.3341 -0.0883
10800TIP3    H153891   2.540   1.460  12.378 -0.0042 -0.8414  0.2429
10800TIP3    H253892   2.447   1.476  12.259 -0.9090  1.9037  1.2648
10801TIP3   OH253893   5.405   2.786   0.718 -0.3243  0.1969  0.5882
10801TIP3    H153894   5.478   2.806   0.659 -0.4533  0.5346  0.5394
10801TIP3    H253895   5.438   2.716   0.775 -0.2856 -0.2971 -0.0418
10802TIP3   OH253896   3.228   5.310   5.642  0.0575  0.0796 -0.0893
10802TIP3    H153897   3.206   5.243   5.707 -0.6914  1.2717  0.9098
10802TIP3    H253898   3.173   5.385   5.666  0.1876  0.7241 -1.7697
10803TIP3   OH253899   1.460   0.898  12.733  0.5530  0.1145  0.4373
10803TIP3    H153900   1.551   0.900  12.706  0.1449 -0.2217 -0.9697
10803TIP3    H253901   1.449   0.811  12.773  0.2732 -0.7597 -1.4749
10804TIP3   OH253902   1.323   3.593   0.202  0.1509 -0.0955  0.2977
10804TIP3    H153903   1.307   3.685   0.181  0.4438 -0.4781 -1.6714
10804TIP3    H253904   1.262   3.544   0.146  1.6842 -1.1745 -0.4819
10805TIP3   OH253905   4.019   2.064  14.843 -0.0517 -0.0765  0.2833
10805TIP3    H153906   4.112   2.082  14.853 -0.0413  1.6894 -2.7526
10805TIP3    H253907   4.011   1.970  14.862  2.3511 -0.2772  0.4270
10806TIP3   OH253908   5.683   5.608  12.306  0.1542  0.4281  0.3809
10806TIP3    H153909   5.606   5.665  12.300  1.5419  2.3582  0.4105
10806TIP3    H253910   5.720   5.627  12.392  0.4136 -0.8564  0.5685
10807TIP3   OH253911   3.693   4.700   1.876  0.1551 -0.0627  0.4508
10807TIP3    H153912   3.779   4.734   1.852 -0.3818  2.0357  1.4250
10807TIP3    H253913   3.708   4.607   1.893  1.7324 -0.2623 -1.7814
10808TIP3   OH253914   2.019   5.466   6.401  0.0232 -0.4777 -0.4169
10808TIP3    H153915   2.055   5.531   6.462  0.8241  0.4085 -1.8005
10808TIP3    H253916   2.025   5.383   6.448  1.2116  0.0915  0.4592
10809TIP3   OH253917   0.379   4.511  12.432 -0.3454  0.2962  0.1504
10809TIP3    H153918   0.315   4.520  12.503 -1.8136  0.0416 -1.0883
10809TIP3    H253919   0.366   4.589  12.378 -2.8543 -1.9213 -2.6008
10810TIP3   OH253920   2.519   4.709  16.147  0.6436  0.1513 -0.5549
10810TIP3    H153921   2.453   4.772  16.175  1.1889  0.6120 -0.2791
10810TIP3    H253922   2.595   4.763  16.124  0.6627 -0.3084 -1.6245
10811TIP3   OH253923   3.658   6.782   4.888 -0.3561 -0.0358  0.4926
10811TIP3    H153924   3.730   6.732   4.850 -0.6190 -0.8512  1.0644
10811TIP3    H253925   3.700   6.836   4.955 -0.1418  0.1705  0.1941
10812TIP3   OH253926   6.759   1.965   0.469 -0.1782 -1.0444 -0.2616
10812TIP3    H153927   6.752   1.964   0.565 -0.7436  0.9471 -0.2686
10812TIP3    H253928   6.781   1.875   0.446  1.4447 -1.2104  1.8520
10813TIP3   OH253929   2.872   6.321  14.649 -0.9674 -0.3534 -0.3125
10813TIP3    H153930   2.851   6.351  14.560  1.1455 -0.8665 -1.0075
10813TIP3    H253931   2.922   6.240  14.635 -0.4498 -0.3268  1.3485
10814TIP3   OH253932   1.434   1.946  12.390 -0.3661 -0.3695 -0.4668
10814TIP3    H153933   1.445   2.029  12.437 -1.5523  0.3543 -1.4297
10814TIP3    H253934   1.516   1.934  12.342  0.5986 -0.7768  1.2294
10815TIP3   OH253935   4.137   2.929   3.663 -0.2899  0.4619 -0.1297
10815TIP3    H153936   4.135   2.967   3.575  1.1694 -0.2030 -0.4592
10815TIP3    H253937   4.072   2.859   3.659 -0.7762  0.9222 -0.4427
10816TIP3   OH253938   1.577   1.261  10.949 -0.1911  0.1454 -0.3169
10816TIP3    H153939   1.646   1.210  10.991 -1.0625 -1.5625 -0.9061
10816TIP3    H253940   1.556   1.212  10.869 -0.4688  1.8800 -1.3477
10817TIP3   OH253941   0.311   3.193  14.748  0.3828  0.0234 -0.1702
10817TIP3    H153942   0.358   3.158  14.824 -1.3285 -1.2995  0.3194
10817TIP3    H253943   0.379   3.234  14.694  2.2042 -2.4400  0.1632
10818TIP3   OH253944   0.700   1.547   1.126 -0.5814 -0.4116  0.9093
10818TIP3    H153945   0.766   1.512   1.187 -0.1138 -0.1804  0.5446
10818TIP3    H253946   0.647   1.606   1.180  0.0579  0.0800  1.0219
10819TIP3   OH253947   6.707   0.107   0.167  0.1810 -0.4003  0.9032
10819TIP3    H153948   6.740   0.161   0.096  0.7787  0.8714  2.1272
10819TIP3    H253949   6.619   0.082   0.140 -0.3619  1.7500  0.6314
10820TIP3   OH253950   2.817   2.645  11.362  0.8084 -0.7468 -0.3689
10820TIP3    H153951   2.772   2.704  11.423  2.1494  0.9884 -1.0147
10820TIP3    H253952   2.769   2.563  11.369 -1.7317  0.7053 -0.1805
10821TIP3   OH253953   6.785   4.228  14.406 -0.1400 -0.0511 -0.7206
10821TIP3    H153954   6.861   4.234  14.348 -0.4792  0.0756 -1.1609
10821TIP3    H253955   6.712   4.208  14.347 -0.4281 -0.2773 -0.2859
10822TIP3   OH253956   6.731   5.741   5.881  0.3183 -0.3513  0.2600
10822TIP3    H153957   6.667   5.787   5.935  2.6902  1.4132  1.7117
10822TIP3    H253958   6.750   5.802   5.810  1.1064 -0.4071  0.4099
10823TIP3   OH253959   5.930   3.192  13.911  0.3469 -0.0122 -0.1770
10823TIP3    H153960   5.988   3.183  13.835  0.9123 -0.0883  0.2510
10823TIP3    H253961   5.846   3.156  13.883  0.6356 -0.2936 -0.6759
10824TIP3   OH253962   4.515   5.712   2.504  0.4214 -0.2427 -0.2522
10824TIP3    H153963   4.494   5.782   2.566  2.4360  0.4133 -0.2784
10824TIP3    H253964   4.448   5.646   2.519 -1.3075  1.5281  0.0262
10825TIP3   OH253965   3.252   2.672  17.148  0.0257 -0.2177  0.0874
10825TIP3    H153966   3.314   2.688  17.077 -0.7427 -0.2113 -0.6065
10825TIP3    H253967   3.166   2.682  17.106 -0.4429  1.1388  1.3361
10826TIP3   OH253968   3.230   5.578  14.928 -0.0664  0.2161  0.4746
10826TIP3    H153969   3.181   5.616  15.001 -0.4446  0.5452  0.0532
10826TIP3    H253970   3.304   5.637  14.915 -0.1143  0.2719  0.4560
10827TIP3   OH253971   5.282   0.292  13.702 -0.6901  0.3700 -0.0483
10827TIP3    H153972   5.318   0.246  13.778  1.2407  1.0764 -0.5105
10827TIP3    H253973   5.199   0.247  13.684  0.4489 -1.9671  0.4081
10828TIP3   OH253974   1.799   0.262  14.807 -0.1949  0.1216 -0.0864
10828TIP3    H153975   1.844   0.271  14.892  0.3824 -0.3100 -0.3440
10828TIP3    H253976   1.847   0.319  14.748  0.9961 -1.5388 -0.7465
10829TIP3   OH253977   0.364   3.293   6.758 -0.3239 -0.7652 -0.1923
10829TIP3    H153978   0.446   3.282   6.806 -0.9223  2.1621  1.6991
10829TIP3    H253979   0.299   3.247   6.811 -0.1394 -1.8726 -0.9286
10830TIP3   OH253980   6.453   4.607  12.474  0.3012  0.9098 -0.8838
10830TIP3    H153981   6.438   4.695  12.510 -0.4018 -0.0811  1.4019
10830TIP3    H253982   6.388   4.599  12.404 -1.9314  1.0428  1.0817
10831TIP3   OH253983   5.441   0.424   1.855  0.5881 -0.0146  0.2326
10831TIP3    H153984   5.489   0.454   1.777 -0.6418  0.8688 -0.2094
10831TIP3    H253985   5.381   0.496   1.874 -1.7978 -1.8349 -0.2975
10832TIP3   OH253986   2.516   3.110  12.191 -0.2621  0.1197 -0.3465
10832TIP3    H153987   2.584   3.103  12.124  0.2343 -1.8114  0.3260
10832TIP3    H253988   2.560   3.149  12.267 -0.3827  0.6389 -0.5409
10833TIP3   OH253989   0.110   3.245  13.592 -0.3383  0.2406  0.5575
10833TIP3    H153990   0.181   3.258  13.528 -0.1928  2.0454  1.0734
10833TIP3    H253991   0.145   3.181  13.654 -0.0309 -0.6187 -0.4960
10834TIP3   OH253992   6.437   4.544   3.446  0.6045  0.5320  0.3104
10834TIP3    H153993   6.423   4.492   3.525  0.3238 -0.5739 -0.4677
10834TIP3    H253994   6.508   4.500   3.400  1.3119  1.6283  0.3346
10835TIP3   OH253995   3.092   5.496   5.796  0.7416 -0.0353  0.0871
10835TIP3    H153996   3.022   5.560   5.806  0.3466  0.3036 -4.0565
10835TIP3    H253997   3.164   5.532   5.848 -1.1552  1.0893  2.0343
10836TIP3   OH253998   5.901   2.273  13.711  0.5204 -0.6465  0.2367
10836TIP3    H153999   5.813   2.235  13.707  0.9314 -1.5315 -0.9182
10836TIP3    H254000   5.933   2.250  13.798  0.0911 -1.4310  0.1957
10837TIP3   OH254001   1.040   1.571   6.728  0.1576  0.3686  0.1952
10837TIP3    H154002   1.045   1.485   6.684 -1.7037  0.4136 -0.1801
10837TIP3    H254003   1.096   1.628   6.676  0.1395 -0.2492 -0.5107
10838TIP3   OH254004   0.404   3.887  15.113  0.1450 -0.5481  0.4372
10838TIP3    H154005   0.365   3.800  15.116  2.0457 -1.3808  1.7800
10838TIP3    H254006   0.330   3.947  15.122 -1.0322 -2.0312  0.8143
10839TIP3   OH254007   6.760   6.175  13.282  0.1378 -0.1155  0.4510
10839TIP3    H154008   6.694   6.118  13.243  1.0857 -1.1204  0.2773
10839TIP3    H254009   6.840   6.121  13.285  0.8264  0.9105  1.0925
10840TIP3   OH254010   3.930   2.251   1.904  0.2428  0.1872  0.1619
10840TIP3    H154011   3.867   2.183   1.880 -1.0615  1.2784  0.4532
10840TIP3    H254012   3.911   2.323   1.844 -0.4317  1.4449  1.8501
10841TIP3   OH254013   4.644   3.025  11.349 -0.1426  0.3350  0.0838
10841TIP3    H154014   4.647   2.992  11.259 -1.6277 -3.1911  1.2307
10841TIP3    H254015   4.647   3.120  11.340  1.4916  0.0353 -3.5920
10842TIP3   OH254016   0.170   2.095   5.732 -0.8359 -0.0953  0.3047
10842TIP3    H154017   0.084   2.071   5.696 -0.2887  0.5565 -1.4775
10842TIP3    H254018   0.197   2.171   5.680  0.9272 -0.4403  0.6965
10843TIP3   OH254019   4.507   2.918  14.215  0.1859  0.3672  0.4479
10843TIP3    H154020   4.522   2.832  14.177 -1.4084 -0.5957  1.8812
10843TIP3    H254021   4.455   2.964  14.150  1.9911  0.6586 -0.8055
10844TIP3   OH254022   0.298   1.667  16.155  0.3517  0.1544  0.1855
10844TIP3    H154023   0.345   1.609  16.216 -1.6217 -1.9191 -0.2046
10844TIP3    H254024   0.360   1.681  16.083  0.0528 -3.4731 -0.8826
10845TIP3   OH254025   2.653   0.438  14.034  0.0720 -0.1685  0.0926
10845TIP3    H154026   2.570   0.430  14.081 -0.5255  0.4291 -0.8310
10845TIP3    H254027   2.647   0.522  13.989  0.4480 -0.8968 -1.3679
10846TIP3   OH254028   3.951   4.386  15.448 -0.2143 -0.0851 -0.4733
10846TIP3    H154029   4.017   4.323  15.421 -0.2495  0.0555 -0.9016
10846TIP3    H254030   3.996   4.470  15.448  0.9444 -0.5808  4.0436
10847TIP3   OH254031   3.379   3.062   0.099 -0.5023  0.0362  0.1304
10847TIP3    H154032   3.474   3.072   0.108 -0.3500 -0.0351 -1.2275
10847TIP3    H254033   3.359   2.981   0.146  0.7114 -2.0474 -2.7442
10848TIP3   OH254034   6.767   5.978   1.516  0.7010 -0.3539  0.5481
10848TIP3    H154035   6.808   6.042   1.458  0.8979 -0.4241  0.6100
10848TIP3    H254036   6.777   5.894   1.470 -2.0275  0.0195 -0.8855
10849TIP3   OH254037   5.114   0.464  15.391  0.2569 -0.4600 -0.3580
10849TIP3    H154038   5.039   0.409  15.411 -0.7804  1.4338  1.1405
10849TIP3    H254039   5.144   0.434  15.305 -1.5388 -1.9606 -0.4850
10850TIP3   OH254040   5.628   5.506  16.441 -0.1396 -0.0733  0.3710
10850TIP3    H154041   5.579   5.430  16.408 -2.1388  0.7657  1.3495
10850TIP3    H254042   5.566   5.579  16.436  1.2675  1.1885  0.8963
10851TIP3   OH254043   5.342   2.978   0.077  0.1012  0.4691  0.0785
10851TIP3    H154044   5.295   3.060   0.096  0.4619  0.4636  0.9994
10851TIP3    H254045   5.350   2.935   0.162 -0.1467 -0.5611 -0.4142
10852TIP3   OH254046   0.632   0.750  16.933 -0.7199 -0.3982  0.4845
10852TIP3    H154047   0.723   0.774  16.917 -0.7519 -1.4056 -1.3324
10852TIP3    H254048   0.607   0.800  17.011  0.9531  0.9443  0.1834
10853TIP3   OH254049   2.269   6.130  13.931  0.0486  0.4805 -0.3615
10853TIP3    H154050   2.307   6.126  14.018 -1.0523 -0.7700  0.0833
10853TIP3    H254051   2.176   6.146  13.946 -0.1376  0.3070 -1.3036
10854TIP3   OH254052   1.835   3.172  13.034 -0.3300 -0.1182  0.0964
10854TIP3    H154053   1.838   3.167  12.938  0.5218 -0.8198  0.1552
10854TIP3    H254054   1.899   3.239  13.057 -0.0107 -0.4568  0.2086
10855TIP3   OH254055   1.118   0.599   0.731  0.5404 -0.0349 -0.0972
10855TIP3    H154056   1.091   0.587   0.822  2.2187  0.3138  0.4764
10855TIP3    H254057   1.094   0.517   0.688 -0.1016 -0.2737  0.6980
10856TIP3   OH254058   5.776   3.534  16.542 -0.0325  0.3992 -0.2102
10856TIP3    H154059   5.749   3.445  16.519  1.3815 -0.1902  0.3623
10856TIP3    H254060   5.713   3.562  16.609 -2.3462  1.0126 -2.5344
10857TIP3   OH254061   5.566   2.376   5.060  0.3590 -0.5188  0.5277
10857TIP3    H154062   5.515   2.308   5.104 -0.2338  0.5323  1.4866
10857TIP3    H254063   5.560   2.353   4.967 -0.8777 -1.0758  0.7265
10858TIP3   OH254064   1.582   0.688   4.656 -0.0584 -0.3521 -0.0741
10858TIP3    H154065   1.661   0.640   4.681  0.5511  0.2334 -0.8262
10858TIP3    H254066   1.591   0.702   4.561 -0.4145  0.8830  0.0603
10859TIP3   OH254067   1.465   5.610  14.729  0.8148 -0.7393 -0.0981
10859TIP3    H154068   1.544   5.661  14.749  0.7681 -0.4015 -0.7531
10859TIP3    H254069   1.489   5.520  14.751  1.4490 -0.6641 -0.4412
10860TIP3   OH254070   0.243   4.225   4.476  0.1107 -0.2918 -0.0113
10860TIP3    H154071   0.162   4.192   4.514 -0.4030  1.9728  0.9514
10860TIP3    H254072   0.309   4.210   4.544 -0.8396  3.9120  2.0117
10861TIP3   OH254073   2.497   0.039  11.405 -0.1385 -0.4811 -0.2044
10861TIP3    H154074   2.551  -0.037  11.424 -1.9920 -1.0254  3.2387
10861TIP3    H254075   2.418   0.004  11.364 -0.1667 -0.2381 -0.3609
10862TIP3   OH254076   2.810   0.871  13.748  0.2765  0.3257  0.0130
10862TIP3    H154077   2.753   0.928  13.799  1.0217 -0.3043  1.5836
10862TIP3    H254078   2.850   0.929  13.683 -1.1088  1.0242 -0.2367
10863TIP3   OH254079   3.560   2.826   5.260 -0.0259 -0.4193  0.0327
10863TIP3    H154080   3.630   2.794   5.317 -0.8360  0.2798  1.4575
10863TIP3    H254081   3.494   2.757   5.262  0.7018 -1.1785 -1.4898
10864TIP3   OH254082   0.376   5.092   4.378 -0.3650  0.0231 -0.2833
10864TIP3    H154083   0.344   5.004   4.398 -2.0805  0.7280  0.1287
10864TIP3    H254084   0.463   5.095   4.417 -1.3155 -0.6278  1.9466
10865TIP3   OH254085   5.115   0.077   2.216  0.4019  0.7872  0.6355
10865TIP3    H154086   5.046   0.136   2.185 -0.5628 -0.4031  0.4894
10865TIP3    H254087   5.169   0.062   2.139 -0.2918  0.1867  0.2598
10866TIP3   OH254088   4.311   6.372  16.097 -0.1840 -0.0079  0.2902
10866TIP3    H154089   4.395   6.387  16.140 -0.1155 -1.0377  0.5055
10866TIP3    H254090   4.247   6.382  16.167 -0.3621  2.0315 -0.1114
10867TIP3   OH254091   2.461   6.111   2.413  0.5635  0.5994  0.0804
10867TIP3    H154092   2.451   6.086   2.505  0.3817 -0.2608 -0.1664
10867TIP3    H254093   2.554   6.095   2.394  0.1506 -1.2583 -0.4631
10868TIP3   OH254094   1.754   1.204  15.504 -0.9857 -0.0642 -0.2242
10868TIP3    H154095   1.735   1.246  15.420 -2.0657 -1.7668 -0.8668
10868TIP3    H254096   1.816   1.134  15.482 -1.8787 -1.0216  0.2571
10869TIP3   OH254097   2.438   4.987   4.823 -0.0114  0.1068  0.3534
10869TIP3    H154098   2.392   4.921   4.875  0.2785  0.2974  0.8628
10869TIP3    H254099   2.375   5.014   4.756 -0.3144 -0.2997  0.4779
10870TIP3   OH254100   3.148   2.104   4.045  0.6941  0.2143  0.1260
10870TIP3    H154101   3.130   2.143   4.130  0.7150 -0.6370  0.5217
10870TIP3    H254102   3.098   2.022   4.045 -0.4219  0.8792 -1.2209
10871TIP3   OH254103   3.327   4.880   4.380  0.1780 -0.5373  0.4670
10871TIP3    H154104   3.321   4.838   4.295  2.0027 -0.1940  0.1402
10871TIP3    H254105   3.388   4.953   4.367  0.8678 -0.7657  2.1532
10872TIP3   OH254106   1.653   5.806   0.187 -0.2045 -0.0643  0.5082
10872TIP3    H154107   1.599   5.792   0.109 -0.4655 -2.3054  1.0586
10872TIP3    H254108   1.611   5.878   0.233 -2.1057 -1.0285  0.3418
10873TIP3   OH254109   0.563   0.568   3.770  0.3053  0.2961 -0.4355
10873TIP3    H154110   0.493   0.560   3.705  0.2112  1.6788 -0.5196
10873TIP3    H254111   0.601   0.480   3.775 -2.1306 -0.7656  0.3998
10874TIP3   OH254112   6.032   0.127  11.782 -0.3729 -0.3980  0.3049
10874TIP3    H154113   6.035   0.178  11.701  1.2567  0.1991  0.7214
10874TIP3    H254114   5.989   0.045  11.757  1.7196 -0.9605 -1.5811
10875TIP3   OH254115   4.978   4.757  15.330  0.0640 -0.5488 -0.2155
10875TIP3    H154116   5.071   4.775  15.313 -0.1643  0.4090 -0.5256
10875TIP3    H254117   4.936   4.843  15.322 -0.9331 -1.0733 -0.6546
10876TIP3   OH254118   3.408   6.578  11.340 -0.2533 -0.6982  0.2711
10876TIP3    H154119   3.328   6.544  11.301 -0.8290 -0.6669  1.3960
10876TIP3    H254120   3.445   6.504  11.389  0.6136 -0.8241 -0.5591
10877TIP3   OH254121   4.480   4.120   0.449 -0.0100  0.0224 -0.0640
10877TIP3    H154122   4.497   4.060   0.376  0.8831  1.7392 -1.2922
10877TIP3    H254123   4.567   4.139   0.485 -0.3141  0.3342  0.5116
10878TIP3   OH254124   2.600   0.039   5.036  0.4908  0.6592  0.4677
10878TIP3    H154125   2.670  -0.027   5.036  0.2861  0.4374  0.5735
10878TIP3    H254126   2.539   0.009   4.968  0.0882  0.4034  0.9382
10879TIP3   OH254127   5.401   5.399   1.412  0.0753 -0.0044  0.5983
10879TIP3    H154128   5.403   5.464   1.341  0.7441  0.1728  0.7814
10879TIP3    H254129   5.348   5.439   1.480 -1.4283 -0.5869 -0.1988
10880TIP3   OH254130   4.581   3.418  11.904 -0.7535 -0.3937  0.5213
10880TIP3    H154131   4.541   3.331  11.903 -1.8335  0.0818 -1.9156
10880TIP3    H254132   4.514   3.476  11.866  0.8338  1.0564 -0.1368
10881TIP3   OH254133   0.730   0.099   3.034  0.7146  0.5356 -0.0979
10881TIP3    H154134   0.699   0.172   2.981  1.1786  1.3357  0.7115
10881TIP3    H254135   0.672   0.099   3.111  1.0865  0.4282  0.1863
10882TIP3   OH254136   4.837   5.867  14.566 -0.1756  0.1167 -0.4826
10882TIP3    H154137   4.833   5.793  14.627 -0.7850  1.0447  0.6176
10882TIP3    H254138   4.745   5.890  14.550  0.0255  2.2537  1.1996
10883TIP3   OH254139   2.070   6.527   3.997  0.3318  0.1472 -0.0548
10883TIP3    H154140   2.152   6.478   3.988  0.1540 -0.2954  0.7177
10883TIP3    H254141   2.004   6.473   3.954  0.3876  0.3549 -0.4019
10884TIP3   OH254142   2.182   3.433  16.224 -0.4421 -0.4783  0.7750
10884TIP3    H154143   2.195   3.470  16.311  0.2003 -1.8111  1.2601
10884TIP3    H254144   2.173   3.339  16.239 -0.9814 -0.6461 -0.5396
10885TIP3   OH254145   3.863   2.000   3.491 -0.1204  0.3929  0.5609
10885TIP3    H154146   3.770   1.999   3.514 -0.0655 -3.4385  0.9196
10885TIP3    H254147   3.908   2.013   3.575 -0.3073  2.9761  0.2926
10886TIP3   OH254148   4.078   0.725  12.045 -0.3355  0.2030  0.5963
10886TIP3    H154149   4.099   0.699  12.135 -1.7568 -2.2102  0.2602
10886TIP3    H254150   4.038   0.648  12.006 -0.3479  1.4385 -1.9325
10887TIP3   OH254151   6.326   4.502   2.129 -0.2624  0.3974  0.1378
10887TIP3    H154152   6.266   4.452   2.074 -1.3081  2.0236 -0.2360
10887TIP3    H254153   6.413   4.472   2.104 -0.8996 -2.2363  0.9181
10888TIP3   OH254154   5.557   2.677   2.784  0.2779 -0.1670 -0.0282
10888TIP3    H154155   5.466   2.655   2.804 -0.3976  3.1890  0.8255
10888TIP3    H254156   5.607   2.637   2.856 -0.7302 -0.2646  0.6306
10889TIP3   OH254157   6.066   6.778  16.064  0.3343  0.1207  0.2549
10889TIP3    H154158   6.054   6.713  16.133  1.0913  1.3780  1.6011
10889TIP3    H254159   6.159   6.770  16.039  0.3130  0.3729  0.0931
10890TIP3   OH254160   3.172   6.063   0.523  0.1994 -0.1415  0.0528
10890TIP3    H154161   3.122   6.144   0.512 -0.5683 -0.5660  0.4096
10890TIP3    H254162   3.140   6.005   0.455  1.1010  0.0209 -0.5174
10891TIP3   OH254163   1.886   5.176   1.810 -0.2985  0.1026  0.1775
10891TIP3    H154164   1.792   5.191   1.804 -0.4596 -0.8247  0.3110
10891TIP3    H254165   1.916   5.239   1.876 -1.0336 -0.4399  1.0416
10892TIP3   OH254166   5.912   2.837   4.036  0.3677  0.2244 -0.3366
10892TIP3    H154167   5.817   2.845   4.044  0.2934 -0.3035 -0.6386
10892TIP3    H254168   5.945   2.840   4.126  0.0298  0.0004 -0.2074
10893TIP3   OH254169   0.041   6.703  10.711 -0.2797  0.5325 -0.2616
10893TIP3    H154170   0.116   6.648  10.737 -0.0886  0.1795 -1.5408
10893TIP3    H254171  -0.033   6.667  10.760  0.0546 -0.2059 -0.2954
10894TIP3   OH254172   5.691   5.846  14.786  0.1928  0.4554 -0.4062
10894TIP3    H154173   5.729   5.786  14.850  0.3477 -0.8006 -1.6472
10894TIP3    H254174   5.641   5.908  14.838 -0.0879 -0.8385  0.9014
10895TIP3   OH254175   5.546   3.222  14.469  0.1895  0.6691 -0.1408
10895TIP3    H154176   5.590   3.179  14.543  1.0426  3.5230  1.0882
10895TIP3    H254177   5.601   3.202  14.393 -0.7174 -2.3418 -0.0920
10896TIP3   OH254178   3.784   0.477  14.062  0.5535  0.4179 -0.8049
10896TIP3    H154179   3.772   0.520  14.146 -2.8525  2.1990 -2.1340
10896TIP3    H254180   3.782   0.383  14.083 -2.4655  0.7977  0.8714
10897TIP3   OH254181   2.640   4.942  16.097 -0.4798 -0.2122 -0.5061
10897TIP3    H154182   2.578   5.014  16.111  0.5425  0.6121 -0.2131
10897TIP3    H254183   2.725   4.984  16.089  0.1521 -1.4051 -0.1689
10898TIP3   OH254184   0.066   3.047  10.578 -0.2488 -0.3972 -0.2653
10898TIP3    H154185   0.020   2.984  10.523  0.1054 -1.3810  0.5520
10898TIP3    H254186   0.097   2.996  10.653  0.5278  0.6313  0.1315
10899TIP3   OH254187   0.197   0.739  14.024 -0.7769  0.3421 -0.3211
10899TIP3    H154188   0.255   0.732  13.948  1.5493  0.0283  1.4204
10899TIP3    H254189   0.167   0.650  14.040 -0.7717  0.3057 -0.5139
10900TIP3   OH254190   6.591   1.870  16.098 -0.2851 -0.2183  0.0103
10900TIP3    H154191   6.608   1.885  16.191 -0.4433  1.2764 -0.1869
10900TIP3    H254192   6.505   1.829  16.095  0.4371 -1.8403  0.6085
10901TIP3   OH254193   2.506   5.245  17.064 -0.1317  0.0630  0.4466
10901TIP3    H154194   2.556   5.257  16.984 -1.1737  0.5493 -0.1540
10901TIP3    H254195   2.425   5.295  17.049 -1.2429 -1.5378  0.9699
10902TIP3   OH254196   6.038   1.989   6.464 -0.4998  0.3517 -0.0887
10902TIP3    H154197   5.974   1.974   6.394 -1.3168  0.5025  0.6229
10902TIP3    H254198   5.985   1.995   6.543  0.5050 -0.6270  0.6580
10903TIP3   OH254199   3.647   0.621  11.157 -0.0945  0.2156 -0.4728
10903TIP3    H154200   3.606   0.611  11.243 -0.5672  0.5847 -0.6519
10903TIP3    H254201   3.620   0.543  11.108  0.9502 -0.4548  0.0221
10904TIP3   OH254202   3.444   2.772   2.098  0.0276  0.5763 -0.2009
10904TIP3    H154203   3.380   2.761   2.028 -1.3628  0.9652  0.9759
10904TIP3    H254204   3.484   2.686   2.109 -2.1382 -0.3470  0.7650
10905TIP3   OH254205   5.951   6.335   0.971 -0.1476 -0.1902  0.4855
10905TIP3    H154206   5.876   6.342   1.031 -0.1980 -0.3052  0.4352
10905TIP3    H254207   5.923   6.383   0.893 -0.7053 -1.4288 -0.0793
10906TIP3   OH254208   3.164   6.495  11.900  0.2325  0.0769 -0.2158
10906TIP3    H154209   3.152   6.586  11.876 -1.2572  0.0801  0.5018
10906TIP3    H254210   3.180   6.496  11.994 -2.3238 -0.5641  0.2722
10907TIP3   OH254211   1.880   4.776  15.359  0.5604  0.1113  0.0831
10907TIP3    H154212   1.825   4.698  15.370  1.4514 -0.6536 -0.8656
10907TIP3    H254213   1.846   4.838  15.425 -1.6977 -0.1924 -0.7337
10908TIP3   OH254214   6.668   3.038   5.692 -0.0668  0.5342 -0.4366
10908TIP3    H154215   6.633   3.059   5.778  1.4816  1.1833  0.0554
10908TIP3    H254216   6.603   2.980   5.652 -0.3131 -0.5838  1.5557
10909TIP3   OH254217   1.967   0.894  12.437 -0.2765 -0.5198 -0.3836
10909TIP3    H154218   1.938   0.883  12.347 -0.3204  0.5878 -0.5177
10909TIP3    H254219   2.027   0.969  12.434 -2.5634  1.4546  0.9577
10910TIP3   OH254220   3.550   2.602  17.004 -0.1200  0.5640 -0.4377
10910TIP3    H154221   3.622   2.541  17.023 -0.3231  0.2271 -0.7561
10910TIP3    H254222   3.584   2.687  17.031 -0.9350 -0.0941  2.8203
10911TIP3   OH254223   3.568   6.665   5.130  0.3227  0.0964  0.3492
10911TIP3    H154224   3.600   6.574   5.129  0.1933  0.0418  1.3542
10911TIP3    H254225   3.608   6.704   5.052 -0.5418 -1.1304 -0.7368
10912TIP3   OH254226   5.967   5.118  12.233  0.2310  0.0361 -0.2973
10912TIP3    H154227   6.028   5.165  12.289  1.0581  0.6778 -1.7231
10912TIP3    H254228   5.895   5.093  12.292  0.4760  1.7870  0.7881
10913TIP3   OH254229   5.708   2.281  12.715  0.3255 -0.3963  0.2669
10913TIP3    H154230   5.697   2.322  12.802  0.5143 -0.4906  0.3359
10913TIP3    H254231   5.762   2.204  12.732  3.8177  1.7603 -0.5021
10914TIP3   OH254232   1.481   0.804   5.192 -0.5711 -0.3025 -0.4816
10914TIP3    H154233   1.453   0.796   5.283 -1.1976  0.5864 -0.5882
10914TIP3    H254234   1.403   0.835   5.146  0.3681  1.4569 -0.9230
10915TIP3   OH254235   4.917   2.351   1.422  0.2524  0.4751 -0.1455
10915TIP3    H154236   4.927   2.284   1.491 -1.6125 -0.0093 -0.2960
10915TIP3    H254237   4.873   2.304   1.351  1.6368  1.1311 -1.4501
10916TIP3   OH254238   3.510   2.938  15.344 -0.5694 -0.8718 -0.1095
10916TIP3    H154239   3.497   2.853  15.385  1.3048 -1.3655 -0.4876
10916TIP3    H254240   3.445   2.940  15.273 -2.0359 -1.0917  1.1966
10917TIP3   OH254241   3.726   6.135   6.279 -0.3165 -0.6174  0.5214
10917TIP3    H154242   3.660   6.181   6.331 -0.8055 -0.4892 -0.2028
10917TIP3    H254243   3.801   6.194   6.278  0.5789 -1.6559  3.0746
10918TIP3   OH254244   6.341   2.768  17.093  1.2823  0.1097  0.4547
10918TIP3    H154245   6.248   2.781  17.113  0.9847  0.5922 -1.1725
10918TIP3    H254246   6.386   2.831  17.148  0.5906  0.4444  0.6493
10919TIP3   OH254247   2.089   0.444   2.562 -0.2898 -0.2737 -0.2081
10919TIP3    H154248   2.105   0.539   2.564  0.5299 -0.4318  1.5926
10919TIP3    H254249   2.161   0.406   2.613 -0.1228 -1.9535 -1.6535
10920TIP3   OH254250   1.386   5.300  10.474  0.1424 -0.0291 -0.2136
10920TIP3    H154251   1.434   5.371  10.516 -0.4342  0.1500  0.1530
10920TIP3    H254252   1.334   5.343  10.406 -0.1985 -0.0986  0.0018
10921TIP3   OH254253   2.551   5.554  10.583 -0.4134 -0.4050 -0.4546
10921TIP3    H154254   2.645   5.567  10.594 -0.3373 -1.0397 -0.3199
10921TIP3    H254255   2.538   5.544  10.489 -0.3797 -0.0707 -0.4945
10922TIP3   OH254256   6.248   1.036  15.863 -0.1090 -0.0859 -0.1884
10922TIP3    H154257   6.243   0.942  15.881  0.1839 -0.0544  0.0565
10922TIP3    H254258   6.258   1.076  15.950  3.2897 -0.0632 -0.5063
10923TIP3   OH254259   3.701   2.083   4.108  0.0034 -0.3792 -0.3880
10923TIP3    H154260   3.778   2.029   4.091  0.7520  0.1481  1.2648
10923TIP3    H254261   3.690   2.081   4.203 -0.4828  1.6450 -0.3759
10924TIP3   OH254262   6.686   1.003  15.425  0.3665 -0.1432 -0.0384
10924TIP3    H154263   6.715   1.082  15.379  0.4426 -1.0670 -1.6129
10924TIP3    H254264   6.762   0.977  15.477  0.6031  0.3804 -0.1123
10925TIP3   OH254265   5.855   3.189  15.189 -0.5520 -0.2584  0.0062
10925TIP3    H154266   5.799   3.267  15.184 -1.9178 -1.1137  1.4983
10925TIP3    H254267   5.914   3.207  15.263 -0.3440 -0.3129 -0.1464
10926TIP3   OH254268   1.959   5.612   1.686  0.1455  0.1049 -0.5589
10926TIP3    H154269   1.938   5.698   1.724 -0.8727 -0.7529  0.8765
10926TIP3    H254270   1.874   5.569   1.675  0.7681 -1.4980  0.6719
10927TIP3   OH254271   0.618   5.116   4.585  0.3828  0.1404 -0.0782
10927TIP3    H154272   0.648   5.176   4.652  1.4955 -0.3742 -0.0937
10927TIP3    H254273   0.678   5.041   4.591 -0.3230 -0.4944 -0.7530
10928TIP3   OH254274   2.225   5.697   4.788  0.2158 -0.0773  0.1429
10928TIP3    H154275   2.141   5.666   4.821  0.3097  1.9930  2.5121
10928TIP3    H254276   2.286   5.625   4.806 -0.4422 -0.3586  1.3443
10929TIP3   OH254277   6.594   2.174  14.263  0.0940  0.4186  0.3221
10929TIP3    H154278   6.679   2.129  14.260 -0.0914  0.1577 -3.5606
10929TIP3    H254279   6.530   2.103  14.266 -0.0973  0.4921 -1.8099
10930TIP3   OH254280   2.975   6.794   3.010  0.4501 -0.3583  0.0064
10930TIP3    H154281   2.988   6.768   3.101  1.3113 -0.9549 -0.2781
10930TIP3    H254282   2.998   6.887   3.007 -1.1543  0.0833  0.7165
10931TIP3   OH254283   2.788   6.595  16.948 -0.4471  0.2498 -0.0846
10931TIP3    H154284   2.828   6.543  17.017 -1.0051  1.7293  1.3750
10931TIP3    H254285   2.861   6.616  16.889  0.3020  0.1411  0.7969
10932TIP3   OH254286   6.513   6.350  13.103  0.3377  0.3532  0.1014
10932TIP3    H154287   6.454   6.328  13.174 -0.5225  0.4846 -0.5671
10932TIP3    H254288   6.556   6.267  13.080  0.7862  0.3565  0.9182
10933TIP3   OH254289   4.024   1.640   5.228  0.3005 -0.6079 -0.1159
10933TIP3    H154290   4.066   1.581   5.290  0.3760 -0.4469 -0.0128
10933TIP3    H254291   4.061   1.726   5.247  0.3979 -0.5741 -0.4517
10934TIP3   OH254292   3.394   2.867  16.203  0.1028 -0.3087 -0.2873
10934TIP3    H154293   3.320   2.816  16.235  0.4441 -0.0367  0.9695
10934TIP3    H254294   3.390   2.949  16.252  0.9980 -0.1337 -0.4894
10935TIP3   OH254295   4.258   5.491   6.553 -0.3088  0.0064  0.1028
10935TIP3    H154296   4.231   5.548   6.480 -1.9696  1.8793  2.0974
10935TIP3    H254297   4.349   5.469   6.533 -1.3905 -1.4660 -3.7278
10936TIP3   OH254298   3.655   0.870   3.523  0.3627  0.7969  0.1536
10936TIP3    H154299   3.732   0.918   3.550  1.5685  0.4166 -2.4133
10936TIP3    H254300   3.605   0.932   3.471 -0.4814  0.6891  0.8284
10937TIP3   OH254301   5.053   5.203   1.932 -0.3603 -0.1153 -0.0056
10937TIP3    H154302   5.136   5.158   1.947  0.3529  0.7243 -1.3995
10937TIP3    H254303   5.000   5.181   2.009  0.6468 -1.7928  0.2243
10938TIP3   OH254304   6.267   0.537  16.717 -0.3634 -0.3607  0.0409
10938TIP3    H154305   6.242   0.532  16.625  0.7123 -0.3711 -0.2526
10938TIP3    H254306   6.242   0.626  16.744 -3.3245 -1.2649  0.5464
10939TIP3   OH254307   4.563   2.345   3.409  0.4275  0.0023 -0.3206
10939TIP3    H154308   4.575   2.366   3.502 -0.7337  0.8839 -0.3539
10939TIP3    H254309   4.585   2.426   3.363  0.1202 -0.1603 -0.7581
10940TIP3   OH254310   5.762   0.538   1.775 -0.3030 -0.2296 -0.4149
10940TIP3    H154311   5.841   0.565   1.729  1.9182 -3.0785  1.5086
10940TIP3    H254312   5.783   0.549   1.867 -2.2383 -0.8678  0.1284
10941TIP3   OH254313   5.589   3.796   0.682 -0.2534  1.1365  0.0906
10941TIP3    H154314   5.681   3.818   0.692 -0.1477  0.3852  0.8393
10941TIP3    H254315   5.564   3.836   0.598  0.6978  1.4993 -0.0299
10942TIP3   OH254316   0.348   1.103  15.725  0.6597 -0.6814 -0.7813
10942TIP3    H154317   0.352   1.011  15.751  0.9975 -0.7945 -1.2416
10942TIP3    H254318   0.308   1.102  15.638  0.8445 -0.4057 -0.8700
10943TIP3   OH254319   6.358   2.178   4.285 -0.2952 -0.3613 -0.7408
10943TIP3    H154320   6.266   2.159   4.304  0.0850 -0.4655  1.0773
10943TIP3    H254321   6.400   2.092   4.281  0.3779 -0.1931  1.9768
10944TIP3   OH254322   6.456   1.981  15.041 -0.4949 -0.5775 -0.1162
10944TIP3    H154323   6.431   1.973  14.949 -1.3889  1.8150 -0.1051
10944TIP3    H254324   6.503   2.065  15.046 -2.0081  0.1949  1.9223
10945TIP3   OH254325   3.999   0.101   4.498 -0.2975 -0.0051 -0.2654
10945TIP3    H154326   3.936   0.169   4.522  0.2449 -0.5749  3.1692
10945TIP3    H254327   4.083   0.147   4.498 -0.1079 -0.3329  0.6085
10946TIP3   OH254328   0.438   2.914   5.431  0.5812 -0.3303 -0.0596
10946TIP3    H154329   0.512   2.974   5.439 -0.3003  0.7681  0.0237
10946TIP3    H254330   0.378   2.940   5.501 -0.4661 -0.3495 -0.9196
10947TIP3   OH254331   2.957   5.507  10.800 -0.2466 -0.4608  0.0549
10947TIP3    H154332   2.900   5.431  10.788 -0.2850 -0.7664  1.9646
10947TIP3    H254333   3.027   5.475  10.858 -0.3670  0.9850  1.0229
10948TIP3   OH254334   4.328   2.476  13.155 -0.1793  0.3664  0.4536
10948TIP3    H154335   4.244   2.522  13.165  0.3387  1.7206 -1.1141
10948TIP3    H254336   4.391   2.531  13.202 -0.0464 -0.2575  1.0015
10949TIP3   OH254337   0.410   6.316  14.752 -0.1488  0.5916 -0.2979
10949TIP3    H154338   0.340   6.284  14.808  1.0068 -0.7295  0.4308
10949TIP3    H254339   0.428   6.404  14.785  0.2484 -0.0235  1.1780
10950TIP3   OH254340   1.052   1.532   4.680  0.1745 -0.3418 -0.4405
10950TIP3    H154341   1.132   1.580   4.661 -0.0365  0.2902  0.2181
10950TIP3    H254342   1.011   1.582   4.751 -0.3975 -1.1090 -0.2269
10951TIP3   OH254343   6.750   3.228  11.752  0.2471 -0.1035  0.7835
10951TIP3    H154344   6.796   3.203  11.672  0.6665  0.5116  0.8315
10951TIP3    H254345   6.683   3.289  11.723  1.1693  1.0484  1.0466
10952TIP3   OH254346   6.483   3.683   2.172 -0.0865 -0.6104 -0.0110
10952TIP3    H154347   6.508   3.727   2.091  1.9565  0.9076  1.3992
10952TIP3    H254348   6.496   3.749   2.240 -1.4834 -1.9571  1.5850
10953TIP3   OH254349   3.642   3.971  12.591 -0.0876  0.4006  0.2799
10953TIP3    H154350   3.734   3.990  12.573 -0.1584  0.1393 -0.3485
10953TIP3    H254351   3.617   4.035  12.658  0.3641  0.9201 -0.0457
10954TIP3   OH254352   5.681   2.796  13.758 -0.6791  0.8027 -0.0438
10954TIP3    H154353   5.732   2.725  13.797  1.2165  1.6431 -0.9580
10954TIP3    H254354   5.592   2.784  13.793  0.1813 -0.5606  1.7233
10955TIP3   OH254355   5.133   6.433   3.932 -0.5980 -0.0410 -0.3422
10955TIP3    H154356   5.037   6.429   3.932 -0.5610 -1.0052  0.0044
10955TIP3    H254357   5.160   6.342   3.928  0.3002  0.3032 -2.8188
10956TIP3   OH254358   5.820   2.770   5.061 -0.6448  0.7960 -0.2016
10956TIP3    H154359   5.877   2.802   4.992 -1.9848  0.7021 -1.3852
10956TIP3    H254360   5.879   2.735   5.127  0.6700  1.2020 -1.1434
10957TIP3   OH254361   3.247   6.208   2.280 -0.0522  0.0601 -0.2823
10957TIP3    H154362   3.199   6.228   2.360  0.0559 -0.8269  0.0161
10957TIP3    H254363   3.338   6.197   2.308 -0.2458 -1.6785 -0.2787
10958TIP3   OH254364   0.042   2.728   1.058 -0.1795 -0.2641  0.3765
10958TIP3    H154365  -0.040   2.762   1.094 -1.2034 -1.5768 -0.7085
10958TIP3    H254366   0.104   2.801   1.069 -1.2970  0.5131  1.7847
10959TIP3   OH254367   6.297   0.059  15.679 -0.4969  0.8687  0.0144
10959TIP3    H154368   6.312   0.139  15.628  0.1345  0.3873 -0.5615
10959TIP3    H254369   6.203   0.043  15.672 -0.1968  0.0308 -2.1392
10960TIP3   OH254370   3.958   0.527  11.918 -0.1701  0.0840 -0.2162
10960TIP3    H154371   3.924   0.596  11.861 -0.7056 -0.1130 -0.1354
10960TIP3    H254372   3.881   0.491  11.962  0.0280 -0.9683 -0.7029
10961TIP3   OH254373   3.132   6.545  13.466  0.6292  0.4281 -0.9892
10961TIP3    H154374   3.078   6.509  13.395 -0.4274 -0.9662  0.4681
10961TIP3    H254375   3.079   6.616  13.502  0.2754 -0.1562 -0.3378
10962TIP3   OH254376   3.406   5.136  16.200 -0.4640  0.3766 -0.0225
10962TIP3    H154377   3.400   5.215  16.146 -1.8075  0.5024  0.2990
10962TIP3    H254378   3.402   5.168  16.290 -3.2381 -0.1998  0.1024
10963TIP3   OH254379   5.648   2.868   3.438 -0.2224 -0.6398  0.1488
10963TIP3    H154380   5.632   2.851   3.345 -1.4146 -1.9489  0.5857
10963TIP3    H254381   5.730   2.823   3.457  0.3029  0.0723 -0.3777
10964TIP3   OH254382   2.455   4.344  16.468  0.3668 -0.9388  0.0897
10964TIP3    H154383   2.370   4.305  16.488  0.3252 -0.1184  1.5550
10964TIP3    H254384   2.496   4.282  16.408 -1.5198 -1.0320 -1.1477
10965TIP3   OH254385   1.046   3.944   0.287  0.1292 -0.4964 -0.3620
10965TIP3    H154386   0.984   3.887   0.333 -1.2532  0.3736 -1.1069
10965TIP3    H254387   1.110   3.970   0.354 -0.5794 -1.0393  0.5271
10966TIP3   OH254388   1.961   5.287  12.807  0.1058 -0.0262 -0.4229
10966TIP3    H154389   1.915   5.249  12.882  0.5093  0.6929  0.2037
10966TIP3    H254390   1.927   5.241  12.731 -0.4997 -0.5878  0.1859
10967TIP3   OH254391   3.699   5.748  14.340  0.5669  0.5624  0.7992
10967TIP3    H154392   3.722   5.812  14.407  0.5689  0.7604  0.6109
10967TIP3    H254393   3.717   5.792  14.257  0.1120  0.4979  0.6590
10968TIP3   OH254394   0.225   3.694   5.552 -0.5082 -0.4797 -0.0520
10968TIP3    H154395   0.294   3.637   5.519 -0.1279  0.2004 -0.4461
10968TIP3    H254396   0.204   3.753   5.479  0.0397  0.7475  0.7612
10969TIP3   OH254397   1.076   1.640   1.585  0.2868  0.0058  0.3932
10969TIP3    H154398   1.123   1.579   1.642  0.2616  0.5560  1.0142
10969TIP3    H254399   0.988   1.645   1.621  0.4115  0.7393  0.6145
10970TIP3   OH254400   3.323   5.252   0.472  0.7201 -0.1978 -0.6273
10970TIP3    H154401   3.417   5.237   0.482  0.6183 -0.1674  0.3836
10970TIP3    H254402   3.290   5.171   0.433  0.5371 -1.8122  2.7181
10971TIP3   OH254403   5.910   5.042  15.195  0.3649  0.2935 -0.4207
10971TIP3    H154404   5.973   5.024  15.125  0.4130  1.5940 -0.7273
10971TIP3    H254405   5.945   5.119  15.240  0.6139 -0.8408  1.3863
10972TIP3   OH254406   0.738   5.433   5.100 -0.1962 -0.1035 -0.1872
10972TIP3    H154407   0.681   5.441   5.176  1.9000  2.1758  1.2157
10972TIP3    H254408   0.821   5.399   5.136  0.1517 -0.9672 -1.7733
10973TIP3   OH254409   5.264   1.588  14.646 -0.1931 -0.5747 -0.2932
10973TIP3    H154410   5.296   1.511  14.599 -0.2158  0.5086 -2.1181
10973TIP3    H254411   5.343   1.636  14.671 -0.2263  1.1387 -3.1799
10974TIP3   OH254412   5.505   3.935  13.767  0.7699  0.3551  0.0874
10974TIP3    H154413   5.498   3.870  13.837  1.6760  1.1556  0.9375
10974TIP3    H254414   5.589   3.978  13.782  0.1552  1.7674 -0.4230
10975TIP3   OH254415   2.172   4.885   1.749  0.2960 -0.2674  0.4078
10975TIP3    H154416   2.151   4.917   1.662  0.2255 -1.7244 -0.1238
10975TIP3    H254417   2.268   4.882   1.751  0.2848 -0.6559  0.2346
10976TIP3   OH254418   1.721   3.221  11.584 -0.0906  0.2783  0.0698
10976TIP3    H154419   1.662   3.154  11.550 -0.1296  0.5706 -0.4335
10976TIP3    H254420   1.803   3.207  11.536  0.7325 -1.0712  1.8012
10977TIP3   OH254421   3.903   1.071  13.134  0.2272 -0.4288  0.0364
10977TIP3    H154422   3.817   1.080  13.175  0.8117 -0.4739  1.2978
10977TIP3    H254423   3.933   1.161  13.122  0.4736 -0.4352  0.6061
10978TIP3   OH254424   1.489   6.377  15.791 -0.4140  0.0152 -0.3087
10978TIP3    H154425   1.396   6.354  15.798 -0.7248  1.5567  0.8189
10978TIP3    H254426   1.501   6.398  15.698 -1.4156  0.7555 -0.2701
10979TIP3   OH254427   6.446   0.536  15.856  0.4983 -0.1901 -0.0077
10979TIP3    H154428   6.496   0.557  15.777  1.1379 -0.7910  0.2188
10979TIP3    H254429   6.367   0.588  15.850  0.0885 -0.9642 -1.5404
10980TIP3   OH254430   1.848   1.332   3.941 -0.2113 -0.0602  0.6680
10980TIP3    H154431   1.811   1.336   3.853  1.7468  0.9548 -0.1337
10980TIP3    H254432   1.843   1.421   3.974 -0.2565 -0.2888  1.2910
10981TIP3   OH254433   0.174   2.376   6.304 -0.3530 -0.4238  0.1315
10981TIP3    H154434   0.131   2.417   6.379 -0.5429 -0.3457 -0.0189
10981TIP3    H254435   0.243   2.438   6.280 -0.3896 -0.3770  0.1469
10982TIP3   OH254436   3.175   3.059  15.669 -0.0830 -0.5444  0.7551
10982TIP3    H154437   3.080   3.067  15.663 -0.1930 -1.2379  1.5110
10982TIP3    H254438   3.209   3.122  15.605 -1.0469 -0.2384  0.5458
10983TIP3   OH254439   0.532   5.009   6.089  0.2050 -0.5287  0.3695
10983TIP3    H154440   0.580   4.957   6.025  1.0426 -0.3290  0.8330
10983TIP3    H254441   0.448   5.027   6.046  0.1036 -1.8279  0.0107
10984TIP3   OH254442   5.037   3.775   5.902  0.3424 -0.0294  0.6371
10984TIP3    H154443   5.022   3.851   5.846  2.4929 -0.6495 -0.8624
10984TIP3    H254444   5.090   3.808   5.974  2.5484 -0.3692 -0.7977
10985TIP3   OH254445   2.441   6.577  11.205 -0.0516  0.2249 -0.1586
10985TIP3    H154446   2.375   6.627  11.253  0.8756 -1.4910  3.0973
10985TIP3    H254447   2.432   6.605  11.114 -3.4368  1.9774  0.6407
10986TIP3   OH254448   0.700   4.051   3.695  0.6347 -0.2973 -0.3092
10986TIP3    H154449   0.701   3.966   3.652  2.6814 -0.4521 -0.0309
10986TIP3    H254450   0.748   4.037   3.777 -0.7962  0.6401  0.7063
10987TIP3   OH254451   0.715   1.532   2.613  0.1277  0.2970  0.2614
10987TIP3    H154452   0.801   1.514   2.651 -0.7514 -0.0940  2.1631
10987TIP3    H254453   0.730   1.600   2.548  1.9886 -0.3125  0.0429
10988TIP3   OH254454   2.119   0.279   3.786  0.1302  0.4552  0.1537
10988TIP3    H154455   2.152   0.350   3.730 -0.5480  0.5092 -0.1866
10988TIP3    H254456   2.051   0.320   3.839 -0.7279 -0.0787 -0.5093
10989TIP3   OH254457   6.375   0.598   0.331 -0.1106  0.6123  0.3365
10989TIP3    H154458   6.387   0.648   0.412 -1.3005 -0.4476  1.1780
10989TIP3    H254459   6.286   0.618   0.303  0.2266  0.8127 -0.6045
10990TIP3   OH254460   2.238   0.526  14.287 -0.5335 -0.0476  0.1065
10990TIP3    H154461   2.194   0.600  14.329  0.1986  0.1546  0.5266
10990TIP3    H254462   2.192   0.449  14.321 -0.4734  0.1546  0.6602
10991TIP3   OH254463   1.503   3.690   3.775 -0.0955 -0.1436  1.1056
10991TIP3    H154464   1.521   3.784   3.781 -0.6511  0.0223  0.2151
10991TIP3    H254465   1.412   3.685   3.743 -0.1703 -0.9806  1.4349
10992TIP3   OH254466   2.869   5.200  10.820 -0.1372  0.4834 -0.2353
10992TIP3    H154467   2.808   5.127  10.830 -1.4578  1.6618  0.4181
10992TIP3    H254468   2.872   5.215  10.725  0.6389 -0.7946 -0.4426
10993TIP3   OH254469   4.580   1.355  15.547  0.2486 -0.4579  0.4012
10993TIP3    H154470   4.672   1.348  15.570  0.4676  1.8189  0.2951
10993TIP3    H254471   4.579   1.355  15.451  0.3851  2.0493  0.3733
10994TIP3   OH254472   3.660   6.231  12.718 -0.0861 -0.3129 -0.1231
10994TIP3    H154473   3.595   6.210  12.651 -0.2093  0.0625 -0.1259
10994TIP3    H254474   3.702   6.311  12.686 -0.0154 -0.2391  0.1527
10995TIP3   OH254475   3.883   5.611  12.959  0.3444 -0.4094 -0.3203
10995TIP3    H154476   3.929   5.669  13.020 -0.6256  0.2504 -0.1928
10995TIP3    H254477   3.878   5.661  12.878  0.3125 -0.6842 -0.4860
10996TIP3   OH254478   5.921   3.304  12.769 -0.5536  0.2969  0.4196
10996TIP3    H154479   5.962   3.380  12.811 -2.5240  0.4755  2.1106
10996TIP3    H254480   5.958   3.229  12.816 -1.2600  0.4036  1.1662
10997TIP3   OH254481   0.643   3.419   0.514 -0.5790  0.2549 -0.5971
10997TIP3    H154482   0.654   3.500   0.465  0.7268 -0.3470 -1.3321
10997TIP3    H254483   0.600   3.445   0.596 -0.6730  1.5923 -1.0699
10998TIP3   OH254484   3.662   5.585  11.429 -0.3384  0.0057 -0.4863
10998TIP3    H154485   3.611   5.533  11.491 -1.7002  0.6219 -1.0590
10998TIP3    H254486   3.714   5.643  11.484  0.4137 -1.2263  0.1305
10999TIP3   OH254487   0.096   3.998   0.350 -0.2897 -0.3252 -1.1024
10999TIP3    H154488   0.076   3.970   0.440 -0.9824 -0.9864 -1.4650
10999TIP3    H254489   0.017   3.981   0.301  0.2569 -0.4152 -1.9585
11000TIP3   OH254490   2.423   5.714   3.630  0.1259  0.8777  0.4091
11000TIP3    H154491   2.487   5.680   3.693  0.9171  1.6483  0.0369
11000TIP3    H254492   2.474   5.728   3.550 -1.0429 -0.8568 -0.6617
11001TIP3   OH254493   5.545   4.469   5.888  0.1970 -0.2759 -0.2425
11001TIP3    H154494   5.584   4.548   5.925  0.5274  0.0540 -1.2829
11001TIP3    H254495   5.453   4.474   5.913  0.6472 -0.6679  1.5546
11002TIP3   OH254496   1.430   1.901   5.522  0.0213 -0.1799 -0.8299
11002TIP3    H154497   1.478   1.889   5.604  0.7481 -1.7722 -1.4707
11002TIP3    H254498   1.342   1.926   5.550  0.2002 -0.9196  0.4660
11003TIP3   OH254499   6.446   2.539  14.453  0.1665  0.3222  0.0416
11003TIP3    H154500   6.492   2.466  14.496  1.2560  0.6317 -0.5872
11003TIP3    H254501   6.453   2.520  14.359  0.6134  1.3277 -0.1380
11004TIP3   OH254502   2.175   0.779   2.360 -0.1509 -0.7668 -0.1180
11004TIP3    H154503   2.108   0.765   2.427  2.0071 -0.9820  2.0752
11004TIP3    H254504   2.221   0.859   2.388  0.3298 -0.4514 -1.7462
11005TIP3   OH254505   2.873   0.353   3.997  0.6899 -0.3292 -0.5046
11005TIP3    H154506   2.914   0.412   3.934  0.0456 -0.3194 -0.9173
11005TIP3    H254507   2.945   0.298   4.029  1.7144  2.0893  1.5244
11006TIP3   OH254508   3.784   3.534   0.848 -0.2198 -0.5394  0.3300
11006TIP3    H154509   3.790   3.470   0.920  0.5007 -1.1566 -0.2762
11006TIP3    H254510   3.746   3.612   0.889  1.5507 -0.3887  1.7195
11007TIP3   OH254511   3.778   4.759  15.433  0.9563  0.2814 -0.5310
11007TIP3    H154512   3.689   4.793  15.425  0.6082 -1.2851 -4.2068
11007TIP3    H254513   3.767   4.665  15.449  1.9620  0.2676  0.1607
11008TIP3   OH254514   6.243   1.799   3.749  0.2397  0.9829  0.2743
11008TIP3    H154515   6.327   1.841   3.768  0.7980 -0.3416  0.7482
11008TIP3    H254516   6.199   1.796   3.834  0.9512 -1.0273  0.5870
11009TIP3   OH254517   0.912   4.698   3.906 -0.1352 -0.1272  0.1709
11009TIP3    H154518   0.984   4.746   3.867  2.3622 -0.6333  3.8718
11009TIP3    H254519   0.922   4.609   3.874  0.8699 -0.1886  0.6531
11010TIP3   OH254520   5.119   1.481   5.500 -0.0014  0.2245 -0.2515
11010TIP3    H154521   5.113   1.563   5.451  1.3825 -0.3719 -1.4872
11010TIP3    H254522   5.155   1.506   5.585  1.0436  0.8436 -0.8564
11011TIP3   OH254523   0.489   6.158  16.215 -0.2381  0.2795 -0.4893
11011TIP3    H154524   0.465   6.249  16.203  1.0132  0.8982  1.4653
11011TIP3    H254525   0.424   6.123  16.275  0.5898  0.5067  0.5524
11012TIP3   OH254526   3.431   5.985   3.993 -0.2930  0.9355 -0.3753
11012TIP3    H154527   3.490   6.036   4.048 -0.2092  1.7600 -1.2165
11012TIP3    H254528   3.346   5.989   4.037  0.4498 -0.9765  1.2928
11013TIP3   OH254529   1.546   5.217   3.096  0.6997  0.1737  0.3874
11013TIP3    H154530   1.474   5.209   3.034 -0.0651 -2.3460  1.5563
11013TIP3    H254531   1.605   5.282   3.056 -1.3687  1.0246 -1.3646
11014TIP3   OH254532   2.368   3.695  15.403  0.3155  0.3238  0.3013
11014TIP3    H154533   2.403   3.609  15.427  0.1526  0.0144 -0.5431
11014TIP3    H254534   2.442   3.755  15.412  0.2468  0.2388  1.6274
11015TIP3   OH254535   6.467   0.972   3.870  0.4935 -0.4860 -0.1501
11015TIP3    H154536   6.468   1.029   3.947  2.0897 -1.6150  0.6879
11015TIP3    H254537   6.387   0.997   3.824 -0.5901  0.0955  1.9565
11016TIP3   OH254538   4.068   6.724   1.364  0.0851 -0.3065 -0.7149
11016TIP3    H154539   4.081   6.780   1.287 -1.2515  1.6277  0.4352
11016TIP3    H254540   4.015   6.777   1.424  1.8245 -1.4518  1.9113
11017TIP3   OH254541   2.303   0.018   4.041 -0.4144 -0.1102  0.8530
11017TIP3    H154542   2.227   0.046   4.092  0.0003  0.5502  1.1125
11017TIP3    H254543   2.302   0.076   3.964 -0.9702 -1.0234  0.1599
11018TIP3   OH254544   3.689   1.228  16.299 -0.5437 -0.1658  0.3062
11018TIP3    H154545   3.699   1.133  16.308 -2.6933 -0.3180  1.3190
11018TIP3    H254546   3.778   1.262  16.310  0.4082 -2.1130 -1.0545
11019TIP3   OH254547   6.625   2.314   4.069  0.3147  0.0419 -0.3571
11019TIP3    H154548   6.533   2.326   4.044 -0.5053 -2.2826  1.3572
11019TIP3    H254549   6.631   2.349   4.158  1.9805  3.3855 -1.6614
11020TIP3   OH254550   3.285   4.923   6.088 -0.1724  0.5739  0.1772
11020TIP3    H154551   3.252   4.834   6.096  0.8299  0.2328  0.6505
11020TIP3    H254552   3.370   4.921   6.132  0.0223  1.6744 -0.1282
11021TIP3   OH254553   2.040   2.058   5.173  0.3771 -0.5908  0.1792
11021TIP3    H154554   2.107   2.078   5.239  1.2139  0.3296 -0.9165
11021TIP3    H254555   1.968   2.118   5.194 -0.1948 -1.7042  1.4716
11022TIP3   OH254556   0.484   1.635  11.443  0.0854 -0.1175 -0.0938
11022TIP3    H154557   0.419   1.669  11.381 -0.6917 -1.4511 -0.0173
11022TIP3    H254558   0.435   1.576  11.500  1.1879 -0.4295  0.5520
11023TIP3   OH254559   6.358   5.259  17.214  0.0639 -0.5600 -0.1228
11023TIP3    H154560   6.400   5.310  17.145  0.2531 -0.2923  0.1912
11023TIP3    H254561   6.289   5.315  17.248 -0.1801 -0.7811 -0.2504
11024TIP3   OH254562   6.284   1.132  11.858 -0.0884  0.1552  0.8220
11024TIP3    H154563   6.271   1.227  11.862  0.6689  0.2662  0.8039
11024TIP3    H254564   6.197   1.096  11.846 -0.2678  0.9152 -0.2048
11025TIP3   OH254565   5.378   5.987  16.391 -0.4031 -0.3729 -0.3023
11025TIP3    H154566   5.412   6.048  16.326 -0.3697  0.9926  0.9833
11025TIP3    H254567   5.430   5.908  16.379  1.3082  0.7212 -0.2469
11026TIP3   OH254568   3.609   3.790  11.336  0.7592 -0.5608 -0.0432
11026TIP3    H154569   3.524   3.752  11.356 -0.4297  2.2485  0.4621
11026TIP3    H254570   3.614   3.788  11.241 -0.3522  0.2878 -0.1216
11027TIP3   OH254571   1.714   2.371  17.213  0.2498  0.0331  0.4554
11027TIP3    H154572   1.645   2.305  17.220 -0.5791  0.7563 -0.5810
11027TIP3    H254573   1.716   2.413  17.299 -0.0138 -0.5834  0.7631
11028TIP3   OH254574   5.315   0.689  17.073  0.3670 -0.1006 -0.5824
11028TIP3    H154575   5.357   0.773  17.055 -1.7147  1.0522 -0.1968
11028TIP3    H254576   5.237   0.689  17.018  0.5122 -1.9228 -0.8093
11029TIP3   OH254577   6.687   5.082   5.031  0.1994 -0.4802  0.1270
11029TIP3    H154578   6.749   5.041   4.971 -0.0126 -0.9388  0.2188
11029TIP3    H254579   6.626   5.012   5.054 -1.1681  0.3239 -1.0437
11030TIP3   OH254580   4.996   4.637  11.360  0.0948  0.2304 -0.6022
11030TIP3    H154581   5.074   4.673  11.318  0.6415 -1.5372 -1.0975
11030TIP3    H254582   4.931   4.631  11.291 -0.7445  2.3316 -0.0572
11031TIP3   OH254583   1.398   4.979   0.806 -0.4765 -0.1369  0.1305
11031TIP3    H154584   1.315   4.951   0.844  0.3747 -2.0179  0.6874
11031TIP3    H254585   1.404   4.929   0.724  0.7105 -1.0278  0.7496
11032TIP3   OH254586   1.411   3.266  15.030  0.0704  0.0149 -0.2196
11032TIP3    H154587   1.447   3.352  15.009 -1.8906  0.2457 -2.8659
11032TIP3    H254588   1.319   3.272  15.007  0.0638 -3.0462 -1.2201
11033TIP3   OH254589   4.992   2.744  15.556 -0.0286  0.1756  0.2058
11033TIP3    H154590   5.083   2.742  15.526 -0.1051  0.0025 -0.0193
11033TIP3    H254591   4.942   2.774  15.479  0.0073  1.6994  0.7617
11034TIP3   OH254592   1.211   6.225   1.875 -0.6416 -0.0696  0.2099
11034TIP3    H154593   1.243   6.227   1.785  2.2887 -1.6819  1.1249
11034TIP3    H254594   1.137   6.284   1.876 -0.1462  0.6946 -3.0485
11035TIP3   OH254595   2.902   1.166  12.601 -0.0278 -0.2280  0.0518
11035TIP3    H154596   2.980   1.174  12.657 -0.4937 -1.5178  0.9293
11035TIP3    H254597   2.933   1.185  12.513  1.0862  0.2094  0.5315
11036TIP3   OH254598   3.087   6.033  15.481  0.0862  0.0229  0.3677
11036TIP3    H154599   3.034   6.104  15.444 -2.1884 -1.4066  0.7528
11036TIP3    H254600   3.043   6.011  15.563  1.6805 -0.7771  1.0293
11037TIP3   OH254601   4.747   1.832   3.907  0.3096  0.4047 -0.4129
11037TIP3    H154602   4.819   1.774   3.881  2.1249  2.5893 -0.4005
11037TIP3    H254603   4.680   1.819   3.839  0.2772 -2.3228  0.0646
11038TIP3   OH254604   1.786   4.832  13.677 -0.3984  0.0119 -0.1965
11038TIP3    H154605   1.782   4.841  13.582 -1.0159 -2.6590 -0.4590
11038TIP3    H254606   1.710   4.880  13.709 -0.2044  0.9022 -1.0418
11039TIP3   OH254607   4.731   4.953   4.700  0.1427  0.3212  0.0929
11039TIP3    H154608   4.640   4.980   4.690 -0.0323 -0.6848 -1.2329
11039TIP3    H254609   4.738   4.927   4.792 -1.1745 -0.5103 -0.0246
11040TIP3   OH254610   1.686   4.819  11.247 -0.0697  0.4863 -0.1764
11040TIP3    H154611   1.619   4.790  11.186  0.5527 -1.1974 -0.1051
11040TIP3    H254612   1.703   4.910  11.224 -1.5347  0.5736 -0.9455
11041TIP3   OH254613   6.021   4.084  12.725 -0.3861  0.5503 -0.5355
11041TIP3    H154614   5.951   4.036  12.769  0.6107 -1.1792 -0.7897
11041TIP3    H254615   6.084   4.104  12.794 -0.7971  1.5139 -0.4318
11042TIP3   OH254616   1.934   3.091   2.796 -0.4479 -0.0125 -0.1003
11042TIP3    H154617   1.908   3.183   2.787  1.8134  0.6392 -0.4831
11042TIP3    H254618   1.852   3.042   2.790 -1.6139  1.9276 -0.6637
11043TIP3   OH254619   6.064   4.810   5.903  0.0187 -0.0048  0.6423
11043TIP3    H154620   6.071   4.901   5.875  0.3711 -0.5033 -0.9422
11043TIP3    H254621   6.133   4.799   5.969  1.3238  0.3475 -0.6402
11044TIP3   OH254622   5.030   4.643  17.182  0.1673  0.0363  0.2667
11044TIP3    H154623   5.077   4.708  17.235  1.1414 -0.2998 -0.1689
11044TIP3    H254624   5.060   4.559  17.215 -0.7714 -0.1936  0.5379
11045TIP3   OH254625   0.767   0.326  17.243  0.5259  0.6273  0.0717
11045TIP3    H154626   0.817   0.332  17.162 -1.0879 -2.5441 -1.2535
11045TIP3    H254627   0.680   0.359  17.221  0.2671  0.3514  0.6549
11046TIP3   OH254628   4.437   3.024   4.811  0.0716 -0.4997 -0.3290
11046TIP3    H154629   4.415   3.102   4.760  0.2049 -0.8323 -0.8994
11046TIP3    H254630   4.459   3.058   4.898 -0.8190  0.0082 -0.2936
11047TIP3   OH254631   0.331   5.590   0.557  0.4334 -0.2149  0.4441
11047TIP3    H154632   0.395   5.653   0.590 -1.1154  0.8104  1.5884
11047TIP3    H254633   0.361   5.506   0.590  0.9902  0.3034  1.2801
11048TIP3   OH254634   5.828   3.585  12.556  0.0147 -0.3075  0.2833
11048TIP3    H154635   5.865   3.624  12.477  0.9540 -0.0950  0.8293
11048TIP3    H254636   5.904   3.568  12.612 -0.3294 -3.0500  0.0015
11049TIP3   OH254637   3.462   0.356  16.227 -0.2899 -0.5370  0.2468
11049TIP3    H154638   3.414   0.432  16.261  1.5921  0.9960 -0.4898
11049TIP3    H254639   3.398   0.312  16.171 -1.1114  1.0484 -0.1125
11050TIP3   OH254640   1.621   6.702  14.428  0.1470 -0.5067  0.2123
11050TIP3    H154641   1.565   6.729  14.501  0.8065  0.7790  0.2632
11050TIP3    H254642   1.561   6.694  14.354 -0.3180 -0.4641  0.5817
11051TIP3   OH254643   0.140   1.529   3.124  0.2200 -0.6131  0.6317
11051TIP3    H154644   0.198   1.465   3.082  1.5327  0.2460  1.0953
11051TIP3    H254645   0.138   1.502   3.216  0.1382 -0.4466  0.6785
11052TIP3   OH254646   3.466   2.543  16.741  0.6134  0.2038 -0.3378
11052TIP3    H154647   3.476   2.627  16.696 -0.0366 -0.0816 -1.0129
11052TIP3    H254648   3.497   2.561  16.831  2.7099  0.5647 -1.0884
11053TIP3   OH254649   0.573   2.320  12.286 -0.3543  0.3703 -0.6791
11053TIP3    H154650   0.584   2.275  12.370  2.2573  2.2992  0.1058
11053TIP3    H254651   0.538   2.406  12.309  0.8877  1.1135 -1.4979
11054TIP3   OH254652   2.626   4.795   1.007 -0.7316 -0.2987  0.0079
11054TIP3    H154653   2.679   4.790   0.927 -0.9371  0.4649 -0.1830
11054TIP3    H254654   2.536   4.791   0.976 -0.7912 -2.2389  0.3829
11055TIP3   OH254655   0.841   2.639  16.716  0.2299  0.0785 -0.4594
11055TIP3    H154656   0.882   2.661  16.633  1.5883  0.1013  0.1924
11055TIP3    H254657   0.821   2.545  16.710  1.0739 -0.0982 -0.5019
11056TIP3   OH254658   6.377   4.855   3.454  0.2867 -0.1791 -0.1302
11056TIP3    H154659   6.291   4.816   3.469 -0.2627  0.7247 -0.8465
11056TIP3    H254660   6.436   4.780   3.441 -0.4717 -0.7900 -0.0362
11057TIP3   OH254661   2.950   5.970  11.077  0.1411 -0.1511 -0.1236
11057TIP3    H154662   3.016   5.901  11.078 -0.3818 -0.6769 -0.5572
11057TIP3    H254663   2.997   6.050  11.054  0.8976 -0.1993  1.2394
11058TIP3   OH254664   2.925   2.332  15.020 -0.5290 -0.2903  0.4490
11058TIP3    H154665   2.995   2.394  15.000  0.3783 -0.5089  2.6817
11058TIP3    H254666   2.846   2.370  14.983  0.5167  0.7601 -0.7117
11059TIP3   OH254667   4.010   1.760  16.221  0.4617  0.0269  0.1654
11059TIP3    H154668   4.076   1.804  16.168 -1.1521 -0.3475 -2.2560
11059TIP3    H254669   3.979   1.827  16.282  0.0832  1.4422 -1.5420
11060TIP3   OH254670   1.922   6.680   4.532  0.2483 -0.3419  0.3387
11060TIP3    H154671   1.943   6.628   4.610  0.1049 -1.1299 -0.1400
11060TIP3    H254672   1.845   6.731   4.558  1.7224  1.3237  1.5451
11061TIP3   OH254673   1.362   5.513   2.888  0.2063 -0.2471 -0.2837
11061TIP3    H154674   1.334   5.433   2.844 -0.2529 -0.0106 -0.4190
11061TIP3    H254675   1.394   5.569   2.817 -0.6215  0.1707 -0.3342
11062TIP3   OH254676   2.131   3.670   0.513  0.4046  0.1380  0.3694
11062TIP3    H154677   2.151   3.576   0.509 -0.9817 -0.1354 -0.7082
11062TIP3    H254678   2.194   3.705   0.576  0.3037 -1.6828  1.5472
11063TIP3   OH254679   5.943   4.385   4.534 -0.4137 -0.0538  0.0642
11063TIP3    H154680   5.901   4.299   4.533 -1.7672  0.5826  0.0016
11063TIP3    H254681   5.883   4.440   4.586 -1.1181  1.5879 -2.3972
11064TIP3   OH254682   5.076   0.702   4.309  0.2078 -1.0407  0.2800
11064TIP3    H154683   5.118   0.777   4.351  1.7052  0.2012 -3.2525
11064TIP3    H254684   4.984   0.710   4.335  0.6525  1.0187  1.3974
11065TIP3   OH254685   3.171   6.447  10.887  0.1062  0.1801 -0.2112
11065TIP3    H154686   3.265   6.466  10.881  0.0004  1.0124  0.6309
11065TIP3    H254687   3.129   6.524  10.848 -0.1737 -1.5599 -3.5137
11066TIP3   OH254688   2.314   1.485  16.586  0.5542 -0.0109 -0.4801
11066TIP3    H154689   2.223   1.486  16.558  0.1596 -0.2944  0.7290
11066TIP3    H254690   2.361   1.444  16.514 -0.4683 -1.0271 -0.5798
11067TIP3   OH254691   2.300   0.497  13.224  0.0173  0.4643  0.0378
11067TIP3    H154692   2.264   0.585  13.209 -3.7927 -1.1585 -0.8848
11067TIP3    H254693   2.224   0.444  13.249  2.3798 -2.4185  1.4077
11068TIP3   OH254694   0.324   3.785  12.389 -0.0523 -0.4626  0.3766
11068TIP3    H154695   0.408   3.770  12.344 -0.3034 -1.1751  0.1363
11068TIP3    H254696   0.345   3.777  12.482  0.9884  3.5464  0.5827
11069TIP3   OH254697   2.279   3.252  16.990  0.3269 -0.3334  0.0817
11069TIP3    H154698   2.283   3.183  17.056  3.4142  0.4098  0.7754
11069TIP3    H254699   2.244   3.328  17.036  1.2519 -0.1817  0.5510
11070TIP3   OH254700   4.384   6.360  14.099  0.0961 -0.2158  0.5206
11070TIP3    H154701   4.440   6.291  14.064 -0.0886 -0.7535  1.2815
11070TIP3    H254702   4.410   6.439  14.051  1.5053 -0.4509  0.8798
11071TIP3   OH254703   4.063   6.535   5.620 -0.0708 -0.2985  0.0292
11071TIP3    H154704   4.118   6.611   5.600 -1.2860  0.1458 -1.7571
11071TIP3    H254705   3.992   6.571   5.674 -0.6356 -0.1546 -0.8007
11072TIP3   OH254706   6.342   2.737   0.804 -0.1199 -0.0155  0.1409
11072TIP3    H154707   6.372   2.821   0.839 -1.7084  0.4738  0.3868
11072TIP3    H254708   6.359   2.742   0.710  2.9890 -0.8187  0.6300
11073TIP3   OH254709   0.616   2.136   1.795  0.1936  0.1236  0.2782
11073TIP3    H154710   0.573   2.192   1.860 -0.9880 -1.0242  0.4975
11073TIP3    H254711   0.561   2.142   1.717 -0.6980 -1.7700  0.7297
11074TIP3   OH254712   3.010   2.765   1.634  0.1297  0.5534  0.2148
11074TIP3    H154713   3.026   2.680   1.675  2.4165  0.7719 -0.1876
11074TIP3    H254714   3.059   2.762   1.552 -0.6368  1.8696 -0.3088
11075TIP3   OH254715   1.206   4.401  15.865 -0.6367 -0.0791  0.3138
11075TIP3    H154716   1.155   4.335  15.911 -0.0960 -0.3179  0.5801
11075TIP3    H254717   1.168   4.484  15.893  0.0847 -0.1984  1.6980
11076TIP3   OH254718   0.156   1.050   2.131  0.3752  0.6298  0.1454
11076TIP3    H154719   0.188   0.998   2.057  1.9945  0.6373  0.8207
11076TIP3    H254720   0.159   1.140   2.100  0.7163  0.6028  0.0984
11077TIP3   OH254721   2.906   0.463   5.070  0.2321 -0.0676  0.7091
11077TIP3    H154722   2.937   0.516   5.144  0.8864 -0.6666  0.8696
11077TIP3    H254723   2.943   0.376   5.085  0.7602 -0.0785 -0.5650
11078TIP3   OH254724   0.961   2.064   1.679  0.4129 -0.0155  0.3725
11078TIP3    H154725   0.907   2.015   1.617  0.0368  1.5982 -0.6330
11078TIP3    H254726   0.998   2.135   1.626  4.0600 -1.4473  0.8699
11079TIP3   OH254727   0.476   1.696   4.844  0.8714  0.7555 -0.4162
11079TIP3    H154728   0.421   1.685   4.767  0.7762  0.7501 -0.3482
11079TIP3    H254729   0.552   1.641   4.828 -0.1126 -0.9064  0.4112
11080TIP3   OH254730   4.815   4.143   4.520  0.1188  0.4827  0.6319
11080TIP3    H154731   4.841   4.053   4.503 -0.0001  0.6861 -0.6977
11080TIP3    H254732   4.888   4.180   4.569  1.0221  0.1991 -0.4679
11081TIP3   OH254733   2.690   5.480  12.562 -0.7941 -0.1132 -0.3803
11081TIP3    H154734   2.707   5.409  12.500  1.0407 -0.8988  0.9488
11081TIP3    H254735   2.773   5.527  12.568 -1.2523  0.5736  0.6746
11082TIP3   OH254736   2.257   6.039   3.114  0.1360  0.5395  0.2717
11082TIP3    H154737   2.300   6.029   3.029 -1.5111 -1.1968 -0.3916
11082TIP3    H254738   2.302   6.113   3.155  3.4008 -0.8668 -0.5879
11083TIP3   OH254739   5.195   3.696  12.705 -0.0270 -0.0787  0.3065
11083TIP3    H154740   5.187   3.605  12.735 -0.1414 -0.7032 -1.5287
11083TIP3    H254741   5.171   3.692  12.612  1.0055  1.6470 -0.0480
11084TIP3   OH254742   4.852   3.931  16.563 -0.0715  0.1638 -0.3943
11084TIP3    H154743   4.798   3.988  16.618  0.5358  1.1777 -0.8360
11084TIP3    H254744   4.917   3.990  16.524  2.8696 -1.4338  1.9988
11085TIP3   OH254745   5.206   5.591  15.055 -0.2555 -0.6030  0.4333
11085TIP3    H154746   5.279   5.610  14.996 -0.4036 -0.2300  0.3722
11085TIP3    H254747   5.160   5.674  15.064 -1.2157 -1.0581 -0.2505
11086TIP3   OH254748   6.667   2.502   3.492  0.0893 -0.2148 -0.1642
11086TIP3    H154749   6.657   2.559   3.416  0.4459  0.0704 -0.0008
11086TIP3    H254750   6.578   2.490   3.525 -0.2731 -1.7106 -1.6131
11087TIP3   OH254751   0.792   6.003  16.825  0.1533  0.0253 -0.2181
11087TIP3    H154752   0.723   6.068  16.840  0.4395  0.9350 -2.7455
11087TIP3    H254753   0.836   6.031  16.745 -0.1908 -3.6850 -1.8234
11088TIP3   OH254754   2.778   4.117   5.542 -0.1770 -0.0184 -0.0964
11088TIP3    H154755   2.711   4.139   5.478 -0.7924  0.2459  0.6303
11088TIP3    H254756   2.729   4.099   5.623  0.5683 -0.5825  0.2331
11089TIP3   OH254757   0.907   3.786   0.468 -0.0719 -0.3617  0.1328
11089TIP3    H154758   0.863   3.717   0.417  0.0716  0.3286 -0.9375
11089TIP3    H254759   0.951   3.739   0.538 -2.2870 -1.1081  1.0740
11090TIP3   OH254760   3.391   3.553   2.545 -0.3221  0.6222 -0.8125
11090TIP3    H154761   3.305   3.513   2.530  0.4092 -1.3143  0.0461
11090TIP3    H254762   3.437   3.492   2.602  1.3573  2.0260 -0.5983
11091TIP3   OH254763   3.111   3.899   2.930 -0.1977 -0.3813 -0.2985
11091TIP3    H154764   3.043   3.841   2.894  1.0449 -1.1444 -1.4805
11091TIP3    H254765   3.162   3.843   2.988 -0.1114  0.0089  0.0038
11092TIP3   OH254766   4.700   0.906   1.932  0.1110 -0.0663  0.0022
11092TIP3    H154767   4.611   0.937   1.943  0.6290  1.7823 -0.7720
11092TIP3    H254768   4.755   0.975   1.970  1.2492 -0.5778 -0.6679
11093TIP3   OH254769   3.140   3.434   2.564 -0.5903  0.3711 -0.0684
11093TIP3    H154770   3.085   3.392   2.498  1.9364 -0.5830 -1.6608
11093TIP3    H254771   3.168   3.362   2.621  0.5001  0.5063 -0.4124
11094TIP3   OH254772   4.065   0.203   6.780 -0.4079  0.7566  0.3274
11094TIP3    H154773   3.982   0.163   6.809 -0.6070  0.2257 -0.9643
11094TIP3    H254774   4.126   0.130   6.774  0.2527  1.1894  1.5573
11095TIP3   OH254775   2.447   0.468  12.168  0.4209  0.2860  0.0581
11095TIP3    H154776   2.417   0.532  12.103 -0.6427  1.1578  1.3671
11095TIP3    H254777   2.414   0.384  12.136 -0.1376  0.7138 -0.5174
11096TIP3   OH254778   3.014   3.047   4.152  0.2330  0.1865  0.0752
11096TIP3    H154779   2.943   3.111   4.145 -0.1905 -0.2336  0.5370
11096TIP3    H254780   2.974   2.964   4.128  0.3375 -0.2072  1.2312
11097TIP3   OH254781   1.464   0.000   0.779  0.2553 -0.1558 -0.1136
11097TIP3    H154782   1.525  -0.069   0.803  1.5629  0.8369 -0.4920
11097TIP3    H254783   1.519   0.079   0.772 -0.5643  0.1906 -3.2820
11098TIP3   OH254784   2.298   4.091   6.416 -0.0588  0.1870  0.3899
11098TIP3    H154785   2.255   4.167   6.458  0.1660  0.7050 -0.3158
11098TIP3    H254786   2.331   4.125   6.333  1.7945 -0.2044  0.9619
11099TIP3   OH254787   2.471   3.957  15.007 -0.2119 -0.2804  0.0646
11099TIP3    H154788   2.527   4.033  15.024 -1.6098  0.7203  0.2649
11099TIP3    H254789   2.393   3.994  14.966 -1.7095 -1.3772  1.8432
11100TIP3   OH254790   5.637   0.272  17.204  0.5868 -0.4341 -0.2846
11100TIP3    H154791   5.603   0.360  17.196 -0.8345 -0.7881  1.5839
11100TIP3    H254792   5.686   0.272  17.286 -0.3545 -1.6601  0.3032
11101TIP3   OH254793   4.174   2.893   1.543  0.3724  0.7262  0.9089
11101TIP3    H154794   4.187   2.955   1.471 -1.0604 -0.3964 -0.3659
11101TIP3    H254795   4.256   2.844   1.547 -0.0788 -0.2714 -1.0621
11102TIP3   OH254796   2.943   1.349  14.307  0.1205  0.2340 -0.2740
11102TIP3    H154797   2.946   1.260  14.270 -0.9092 -0.0438  0.2920
11102TIP3    H254798   2.991   1.342  14.389 -0.3395  0.0856 -0.0143
11103TIP3   OH254799   0.727   4.958  15.081  0.3243  0.3992  0.3574
11103TIP3    H154800   0.733   4.908  15.162 -3.5098 -1.5217 -0.4078
11103TIP3    H254801   0.801   4.926  15.028 -1.2190 -3.6166  0.4311
11104TIP3   OH254802   2.323   5.749   5.803 -0.0729  0.0903  0.4032
11104TIP3    H154803   2.406   5.767   5.759 -0.0558  0.4289  0.5693
11104TIP3    H254804   2.284   5.678   5.753  0.8832 -0.9046  1.0609
11105TIP3   OH254805   6.664   5.908  11.573  0.2112 -0.1652 -0.0939
11105TIP3    H154806   6.647   5.975  11.640 -0.6211 -1.5649  1.1088
11105TIP3    H254807   6.577   5.879  11.545  0.5710 -0.7989 -0.5637
11106TIP3   OH254808   0.430   0.257  15.862  0.4096 -0.4929  0.2637
11106TIP3    H154809   0.340   0.290  15.868  1.1973  1.8152  0.0030
11106TIP3    H254810   0.431   0.179  15.918 -1.3754  0.2994  1.4592
11107TIP3   OH254811   4.251   6.775   4.321  0.6188  0.0397 -0.4135
11107TIP3    H154812   4.248   6.847   4.258 -0.6300 -0.3143 -0.7926
11107TIP3    H254813   4.170   6.726   4.304  1.5599 -1.6000 -0.3502
11108TIP3   OH254814   2.246   3.465  15.933  0.2445 -0.6827  0.4743
11108TIP3    H154815   2.221   3.439  16.022  0.5997 -0.4171  0.6552
11108TIP3    H254816   2.258   3.560  15.939  0.0880 -0.6410  0.0979
11109TIP3   OH254817   0.066   3.856  16.660  0.1054 -0.0658  0.0670
11109TIP3    H154818   0.098   3.909  16.733  1.8160  1.6767 -1.8471
11109TIP3    H254819   0.002   3.912  16.617  1.2796  0.1263 -1.4679
11110TIP3   OH254820   1.757   6.079   5.556  0.1171 -0.4337 -0.0869
11110TIP3    H154821   1.836   6.131   5.568 -0.0187 -0.1911 -0.2336
11110TIP3    H254822   1.735   6.089   5.463 -0.8810  0.6559  0.2565
11111TIP3   OH254823   6.765   2.361   2.403 -0.0131 -0.2399  0.8090
11111TIP3    H154824   6.746   2.353   2.496  1.6422  1.0226  1.2817
11111TIP3    H254825   6.755   2.454   2.384 -0.8696 -0.5693 -0.4031
11112TIP3   OH254826   1.693   2.209  14.031 -0.0769  0.1614 -0.3436
11112TIP3    H154827   1.670   2.293  13.990 -0.0326 -0.1975 -1.1074
11112TIP3    H254828   1.788   2.212  14.039 -0.1619  0.6300  0.6128
11113TIP3   OH254829   0.411   5.418  12.687 -0.2286 -0.2701 -0.4824
11113TIP3    H154830   0.456   5.337  12.708 -1.5917 -0.3287  2.4298
11113TIP3    H254831   0.479   5.485  12.691  0.5434 -1.0101 -1.0750
11114TIP3   OH254832   0.280   4.881  13.555  0.3281  0.1313  0.3005
11114TIP3    H154833   0.195   4.861  13.595  0.0045  1.4375  0.2791
11114TIP3    H254834   0.271   4.854  13.464  0.4966 -1.2690  0.6913
11115TIP3   OH254835   0.729   3.705   5.469 -0.1399 -0.0614  0.3064
11115TIP3    H154836   0.686   3.724   5.385  0.4835 -0.2828 -0.0735
11115TIP3    H254837   0.659   3.676   5.527 -0.6773  0.7076  0.0507
11116TIP3   OH254838   1.273   1.741  12.161 -0.1803 -0.6250  0.1513
11116TIP3    H154839   1.179   1.738  12.143 -0.1127 -0.7408 -0.1824
11116TIP3    H254840   1.314   1.706  12.082  0.2346  1.1849 -0.4585
11117TIP3   OH254841   6.373   4.786   3.929  0.2597  0.0498 -0.4802
11117TIP3    H154842   6.459   4.760   3.964 -0.3958 -1.8084 -0.1683
11117TIP3    H254843   6.319   4.802   4.006  0.4712  1.7674 -0.6774
11118TIP3   OH254844   2.863   0.158   2.738  0.5237  0.2468  0.0542
11118TIP3    H154845   2.941   0.204   2.770  2.0694 -1.0674 -1.7123
11118TIP3    H254846   2.873   0.157   2.643 -1.6540 -0.0028 -0.2014
11119TIP3   OH254847   4.285   0.753  12.647 -0.1161  0.1267 -0.1258
11119TIP3    H154848   4.263   0.841  12.680  0.8803  0.7240 -1.0351
11119TIP3    H254849   4.210   0.699  12.672 -0.9702  1.3484 -0.0100
11120TIP3   OH254850   5.812   2.218   4.200  0.2532 -0.0793  0.3478
11120TIP3    H154851   5.774   2.263   4.275  2.5286  1.4285  0.6607
11120TIP3    H254852   5.764   2.252   4.125 -0.7016 -0.1028  0.9383
11121TIP3   OH254853   0.348   6.755  11.155 -0.0002  0.3265 -0.3538
11121TIP3    H154854   0.259   6.784  11.136 -0.0373 -0.3211 -1.1528
11121TIP3    H254855   0.380   6.718  11.073  0.6825 -0.2727  0.1771
11122TIP3   OH254856   2.917   1.148  15.725  0.2443  0.4193 -0.7382
11122TIP3    H154857   2.844   1.091  15.701 -1.0541  0.8609  1.9854
11122TIP3    H254858   2.937   1.196  15.645 -0.8320 -1.4766 -2.1744
11123TIP3   OH254859   1.020   4.238  15.999  0.7579 -0.3776  0.2725
11123TIP3    H154860   1.019   4.186  15.919  1.6685  0.5981 -0.3887
11123TIP3    H254861   0.933   4.278  16.003  1.4078  1.2845 -1.3943
11124TIP3   OH254862   2.889   4.840  15.048  0.2333  0.0158  0.0717
11124TIP3    H154863   2.833   4.789  14.989  0.5305 -0.4254  0.1688
11124TIP3    H254864   2.908   4.780  15.121  0.8079  0.1749  0.0529
11125TIP3   OH254865   6.519   6.385   1.447  0.4680 -0.3658  0.2412
11125TIP3    H154866   6.481   6.398   1.360 -0.6786  0.1699  0.8044
11125TIP3    H254867   6.613   6.375   1.431  0.3410  0.2807 -1.0039
11126TIP3   OH254868   5.320   1.630   3.188 -0.1988 -0.1675 -0.1287
11126TIP3    H154869   5.268   1.702   3.224  1.8427  1.6752 -0.6912
11126TIP3    H254870   5.371   1.598   3.262  0.3740  0.3307 -0.3017
11127TIP3   OH254871   2.730   1.904   2.600 -0.2825 -0.0562  0.3113
11127TIP3    H154872   2.820   1.898   2.568 -0.7197 -0.2017 -0.8953
11127TIP3    H254873   2.737   1.950   2.684  0.9113 -0.0839  0.2289
11128TIP3   OH254874   3.314   1.099   1.564  0.2698  0.0566 -0.5941
11128TIP3    H154875   3.316   1.130   1.655 -0.8554 -0.6306 -0.3165
11128TIP3    H254876   3.402   1.066   1.547  0.7568  1.0778 -0.0676
11129TIP3   OH254877   3.824   2.664  17.248 -0.1509 -0.9720 -0.3423
11129TIP3    H154878   3.817   2.653  17.343 -0.9378 -1.6301 -0.4694
11129TIP3    H254879   3.894   2.728  17.236 -0.8455  0.0036  0.7253
11130TIP3   OH254880   6.372   5.827  15.073  0.1863  0.2028 -0.0038
11130TIP3    H154881   6.346   5.747  15.116  0.5959 -0.6178 -1.2426
11130TIP3    H254882   6.430   5.871  15.136 -1.4667  0.4172  1.3881
11131TIP3   OH254883   0.543   3.345   2.827  0.0115 -0.2721  0.1768
11131TIP3    H154884   0.470   3.284   2.821 -0.0838 -0.3382  1.7005
11131TIP3    H254885   0.600   3.308   2.896 -0.1679  1.4504  1.2844
11132TIP3   OH254886   3.673   5.616   0.106 -0.3060  0.4471 -0.0330
11132TIP3    H154887   3.757   5.602   0.151 -0.1256 -0.3047 -0.5915
11132TIP3    H254888   3.665   5.711   0.100  0.9078  0.5275 -0.7004
11133TIP3   OH254889   4.173   0.201  15.674 -0.2651  0.2679 -1.2836
11133TIP3    H154890   4.256   0.160  15.650  0.2003  0.2584  0.2749
11133TIP3    H254891   4.167   0.187  15.768 -2.2684 -0.1451 -1.4636
11134TIP3   OH254892   5.013   4.021   1.107  0.4473 -0.1354 -0.3161
11134TIP3    H154893   5.092   3.967   1.101  0.5839  0.1203 -0.8080
11134TIP3    H254894   4.994   4.025   1.201  1.5483  0.5614 -0.1207
11135TIP3   OH254895   4.787   0.868   5.947 -0.0271 -0.5556 -0.1027
11135TIP3    H154896   4.837   0.948   5.968  0.7265 -1.2228  0.6834
11135TIP3    H254897   4.845   0.796   5.974 -0.2529 -1.3883 -1.7915
11136TIP3   OH254898   4.873   4.384   2.282  0.3791 -0.6903  0.1222
11136TIP3    H154899   4.918   4.465   2.304  0.4573 -0.7922  0.3452
11136TIP3    H254900   4.909   4.358   2.197 -0.9471  0.4482 -0.8186
11137TIP3   OH254901   5.903   4.798  13.824 -0.0524 -0.1428  0.2792
11137TIP3    H154902   5.964   4.739  13.868 -0.5210  1.2950  2.9289
11137TIP3    H254903   5.818   4.755  13.832 -0.0991  0.0008  0.5437
11138TIP3   OH254904   0.204   4.813  14.505 -0.3725  0.7472 -0.1378
11138TIP3    H154905   0.122   4.850  14.473 -0.8008  1.0001  1.2292
11138TIP3    H254906   0.211   4.728  14.462 -0.7214  1.2594 -1.2207
11139TIP3   OH254907   1.336   0.586  16.843 -0.3026  0.2323  0.5156
11139TIP3    H154908   1.316   0.505  16.891 -0.1757  0.0344  0.2349
11139TIP3    H254909   1.266   0.594  16.778 -0.2839  0.3191  0.5055
11140TIP3   OH254910   6.629   2.822   0.517  0.2754  0.9246  0.0678
11140TIP3    H154911   6.691   2.893   0.535 -0.2846  1.3579  0.3119
11140TIP3    H254912   6.594   2.842   0.430  1.9459 -0.4046 -0.9223
11141TIP3   OH254913   6.357   4.954   4.794  0.4414 -0.3933 -0.4683
11141TIP3    H154914   6.317   4.891   4.854 -0.6167  0.1301 -0.6078
11141TIP3    H254915   6.301   5.032   4.800  0.0632 -0.4801 -2.4316
11142TIP3   OH254916   5.654   0.837   1.588  0.2437  0.1210 -1.0045
11142TIP3    H154917   5.650   0.861   1.495  0.2890 -1.8673 -1.5352
11142TIP3    H254918   5.601   0.758   1.595 -1.5937  1.4721  1.0983
11143TIP3   OH254919   1.851   6.013  12.151  0.3429 -0.3892  0.5429
11143TIP3    H154920   1.845   6.042  12.242  1.9021 -0.4836  0.6859
11143TIP3    H254921   1.804   6.080  12.101 -1.1444 -0.7131  1.4892
11144TIP3   OH254922   2.726   3.899  11.067 -0.2373 -0.8712 -0.6014
11144TIP3    H154923   2.815   3.865  11.070  0.5516  1.2367  1.1924
11144TIP3    H254924   2.733   3.977  11.011 -1.3839 -1.8029 -2.0874
11145TIP3   OH254925   0.856   4.761   5.684 -0.0994 -0.1750  0.2440
11145TIP3    H154926   0.821   4.674   5.664 -0.9290  0.3764 -0.7040
11145TIP3    H254927   0.880   4.755   5.777  2.8952 -2.4239 -0.5698
11146TIP3   OH254928   2.014   2.948  10.751  0.8229 -0.1238 -0.3134
11146TIP3    H154929   2.073   2.877  10.724  0.0221 -0.9237  0.0077
11146TIP3    H254930   2.017   2.946  10.847  1.5654  0.9374 -0.3067
11147TIP3   OH254931   1.837   4.362   3.262  0.4089 -0.1123 -0.1844
11147TIP3    H154932   1.778   4.411   3.319  0.9021  2.4270 -1.8293
11147TIP3    H254933   1.837   4.273   3.299 -1.9043  0.6466  1.7348
11148TIP3   OH254934   0.855   4.963   1.527  0.0385 -0.4467  0.9488
11148TIP3    H154935   0.821   5.052   1.517 -0.9180 -0.7555  1.4182
11148TIP3    H254936   0.950   4.973   1.518 -0.2683  0.1931 -2.1424
11149TIP3   OH254937   0.585   0.224   1.560 -0.4850  0.0670  0.0777
11149TIP3    H154938   0.573   0.185   1.474 -2.8715  0.1979  0.3120
11149TIP3    H254939   0.580   0.319   1.544  2.5791  0.2351 -0.1083
11150TIP3   OH254940   5.120   1.780   6.339  0.2181 -0.0772  0.2579
11150TIP3    H154941   5.132   1.871   6.313  0.5198 -0.7502 -2.0801
11150TIP3    H254942   5.037   1.779   6.386 -0.5984  1.1465 -1.1201
11151TIP3   OH254943   6.312   5.673  15.525 -0.4261 -0.1056  0.3395
11151TIP3    H154944   6.232   5.721  15.544 -1.3148 -1.4829  0.2039
11151TIP3    H254945   6.383   5.730  15.555 -1.5118  0.6081  1.5915
11152TIP3   OH254946   3.452   4.116  12.997  0.6292 -0.3661 -0.0897
11152TIP3    H154947   3.402   4.038  12.970  1.8824 -0.6544 -1.6106
11152TIP3    H254948   3.502   4.141  12.920  0.1758  2.0316  0.3582
11153TIP3   OH254949   2.552   3.635   4.001 -0.4962 -0.4921  0.3363
11153TIP3    H154950   2.575   3.615   4.092 -2.1882  1.4950  1.2370
11153TIP3    H254951   2.457   3.642   4.001 -0.3975  1.3729 -1.2007
11154TIP3   OH254952   3.704   4.281   6.365 -0.4267  0.2212 -0.1170
11154TIP3    H154953   3.718   4.308   6.455 -1.7696  0.4917  0.0288
11154TIP3    H254954   3.686   4.187   6.370  2.4151 -0.3631 -0.4269
11155TIP3   OH254955   3.936   6.727  14.645  0.5593 -0.5430  0.0718
11155TIP3    H154956   3.923   6.675  14.725  0.3037 -1.0773 -0.3198
11155TIP3    H254957   3.919   6.817  14.672 -0.5831 -0.8416  0.3688
11156TIP3   OH254958   1.576   6.523   0.046 -0.0643  0.8224 -0.2946
11156TIP3    H154959   1.546   6.555   0.131  0.7186  1.1477 -0.1375
11156TIP3    H254960   1.500   6.532  -0.012 -1.3620 -1.6544  0.9465
11157TIP3   OH254961   3.961   4.400   0.378 -0.3464  0.4094  0.6058
11157TIP3    H154962   3.941   4.379   0.469  0.3338  0.7162  0.8355
11157TIP3    H254963   3.936   4.491   0.368 -0.5283  0.3425  0.4560
11158TIP3   OH254964   1.596   1.579   5.622  0.3383 -0.3921  0.0487
11158TIP3    H154965   1.674   1.523   5.615 -0.1495 -0.7750 -2.6650
11158TIP3    H254966   1.629   1.660   5.661  1.8575 -1.0253  0.1261
11159TIP3   OH254967   0.435   1.813  12.779 -0.2213  0.1859 -0.1453
11159TIP3    H154968   0.407   1.830  12.689  1.9762  0.1522 -0.8773
11159TIP3    H254969   0.354   1.804  12.828 -1.4807 -1.5975 -2.4449
11160TIP3   OH254970   4.842   4.200   2.697  0.1554 -1.0856  0.5015
11160TIP3    H154971   4.800   4.115   2.684 -0.1009 -1.1860  1.8612
11160TIP3    H254972   4.911   4.183   2.761  0.7900 -0.4810 -0.0162
11161TIP3   OH254973   2.800   6.188  17.214 -0.3859  0.5339  0.7937
11161TIP3    H154974   2.728   6.137  17.178  0.2502  0.0979  0.1293
11161TIP3    H254975   2.786   6.187  17.309 -3.0964  3.2079  0.5013
11162TIP3   OH254976   1.921   5.900  14.803  0.2093 -0.0030  0.0710
11162TIP3    H154977   1.967   5.981  14.783 -0.2005  0.3464  0.5382
11162TIP3    H254978   1.903   5.905  14.897 -0.4184 -0.3271 -0.0291
11163TIP3   OH254979   1.643   2.851   5.179  0.6001  0.2995 -0.0953
11163TIP3    H154980   1.571   2.912   5.159 -0.1516 -0.6898 -0.4288
11163TIP3    H254981   1.606   2.764   5.162  2.1481 -0.1801 -1.1176
11164TIP3   OH254982   3.032   3.975   6.432 -0.2515 -0.7482  0.2176
11164TIP3    H154983   3.031   4.015   6.519 -1.0713 -1.1456  0.3952
11164TIP3    H254984   3.119   3.936   6.424  0.0024 -0.2610  0.6582
11165TIP3   OH254985   1.985   6.065  15.133 -0.1980  0.5170  0.1542
11165TIP3    H154986   2.042   6.107  15.198  0.2946  0.2205 -0.0844
11165TIP3    H254987   1.952   6.138  15.080 -3.3528  1.1961  2.8451
11166TIP3   OH254988   0.753   2.076  14.814 -0.4680  0.5905  0.2075
11166TIP3    H154989   0.709   2.069  14.899 -2.7260  1.7684 -0.7995
11166TIP3    H254990   0.681   2.074  14.751  1.0797  1.0761 -1.5886
11167TIP3   OH254991   2.259   0.167   4.881 -0.1621 -0.4966 -0.1325
11167TIP3    H154992   2.296   0.156   4.969  0.5156 -0.2625 -0.3833
11167TIP3    H254993   2.311   0.108   4.826  0.2718  0.3103 -0.6017
11168TIP3   OH254994   6.452   5.680  11.397  0.1401 -0.2534  0.1705
11168TIP3    H154995   6.405   5.675  11.480 -1.2497 -1.2071 -0.6504
11168TIP3    H254996   6.412   5.612  11.342  0.7415  0.6395 -1.4241
11169TIP3   OH254997   0.433   2.626   5.586  0.0008  0.2752  0.0138
11169TIP3    H154998   0.410   2.697   5.526  1.1947  1.0880  0.4817
11169TIP3    H254999   0.515   2.591   5.551 -1.1551 -1.6366 -0.8487
11170TIP3   OH255000   3.201   4.031  11.871  0.4914 -0.5799 -0.3121
11170TIP3    H155001   3.237   3.971  11.805 -0.5719 -4.2491  2.3070
11170TIP3    H255002   3.107   4.015  11.870  0.3001  0.3464  1.1243
11171TIP3   OH255003   4.801   2.811  14.203 -0.0717  0.0185 -0.5752
11171TIP3    H155004   4.758   2.736  14.243 -0.7734 -0.2352 -1.7998
11171TIP3    H255005   4.888   2.779  14.180 -0.5158 -0.5430 -1.4829
11172TIP3   OH255006   0.279   3.691   4.659 -0.3251 -0.1945  0.3358
11172TIP3    H155007   0.240   3.734   4.583  0.7180 -0.7939 -0.5423
11172TIP3    H255008   0.291   3.600   4.632  4.3342  0.5354 -0.4948
11173TIP3   OH255009   4.219   0.867   0.322  0.2148  1.0245 -0.1451
11173TIP3    H155010   4.177   0.950   0.343  0.2656  0.5982  1.7385
11173TIP3    H255011   4.179   0.804   0.382 -0.3540 -0.4718 -2.0502
11174TIP3   OH255012   1.736   0.874  12.640  0.9400  0.0005  0.3932
11174TIP3    H155013   1.822   0.838  12.621  0.1370 -2.1953  0.8465
11174TIP3    H255014   1.716   0.929  12.564  1.7965 -1.1778 -0.6966
11175TIP3   OH255015   5.749   0.844   0.475 -0.3155 -0.1519  0.1832
11175TIP3    H155016   5.683   0.868   0.409 -0.4995  0.7220  0.6732
11175TIP3    H255017   5.802   0.777   0.433 -0.3066  0.5438 -0.9447
11176TIP3   OH255018   1.477   3.554  16.623 -0.1544 -0.3670  0.0599
11176TIP3    H155019   1.441   3.642  16.610  0.0350 -0.5272 -1.6627
11176TIP3    H255020   1.536   3.563  16.698  0.3074  1.1072 -0.4692
11177TIP3   OH255021   4.305   4.420  14.925 -0.0232 -0.7661 -0.4334
11177TIP3    H155022   4.281   4.353  14.989 -0.4908  0.1002  0.3148
11177TIP3    H255023   4.236   4.486  14.934  1.5121  0.7762  0.2716
11178TIP3   OH255024   4.198   3.052   0.111  0.2451  0.2135  0.0321
11178TIP3    H155025   4.135   3.000   0.160  0.8435 -1.0065 -0.4563
11178TIP3    H255026   4.225   2.996   0.039  1.0419  1.1388 -0.4132
11179TIP3   OH255027   0.080   6.401  12.726 -0.0167  1.0921 -0.5187
11179TIP3    H155028   0.057   6.331  12.664  0.9139  0.3386 -0.0255
11179TIP3    H255029   0.017   6.471  12.707 -2.3119 -0.6444  0.3635
11180TIP3   OH255030   1.579   5.389   2.295  0.0200  0.1085 -0.2113
11180TIP3    H155031   1.529   5.320   2.339 -0.8614  1.6975  1.3624
11180TIP3    H255032   1.657   5.345   2.261 -0.1204 -1.5101  1.4813
11181TIP3   OH255033   3.208   2.589   0.603 -0.0995 -0.2474 -0.1021
11181TIP3    H155034   3.169   2.658   0.657 -1.5841  0.2965 -1.8330
11181TIP3    H255035   3.181   2.508   0.646 -1.1685  0.1781  0.0338
11182TIP3   OH255036   2.999   1.306  16.297 -0.0003  0.1248 -0.3001
11182TIP3    H155037   3.036   1.223  16.267 -0.5612  0.0734 -0.8701
11182TIP3    H255038   3.044   1.325  16.378  1.5352  0.2445 -1.1717
11183TIP3   OH255039   0.974   6.809  13.565  0.7930  0.0133  0.4988
11183TIP3    H155040   0.906   6.813  13.632  2.2636  2.3969  1.9225
11183TIP3    H255041   0.928   6.780  13.486 -2.0250  2.2903  1.2277
11184TIP3   OH255042   3.809   2.742  10.800  0.1427 -1.1037  0.0977
11184TIP3    H155043   3.823   2.827  10.759 -1.9823 -0.4210  0.7417
11184TIP3    H255044   3.897   2.702  10.803  1.2350  1.2559  0.2879
11185TIP3   OH255045   4.472   4.687  12.667  0.4268 -0.0866  0.6438
11185TIP3    H155046   4.410   4.681  12.594  0.5351  2.0093  0.3559
11185TIP3    H255047   4.421   4.661  12.744 -0.2394 -0.3545  0.1158
11186TIP3   OH255048   5.488   2.041  15.916 -0.1643  0.3688  0.6480
11186TIP3    H155049   5.521   1.977  15.853  0.7708  2.5791 -1.2337
11186TIP3    H255050   5.393   2.031  15.914 -0.1784  0.5905 -1.4025
11187TIP3   OH255051   0.825   1.847  11.476 -0.4460 -0.1894  0.6565
11187TIP3    H155052   0.852   1.926  11.429 -2.6130  0.6629  0.7776
11187TIP3    H255053   0.869   1.854  11.561 -0.7475  1.0051  0.7350
11188TIP3   OH255054   4.353   1.354   4.958 -0.0092 -0.3427  0.0508
11188TIP3    H155055   4.352   1.377   5.051  1.3171 -0.2027  0.0415
11188TIP3    H255056   4.346   1.258   4.957 -0.0352 -0.3444  0.2935
11189TIP3   OH255057   0.841   2.744  12.067  0.4021  0.2390  0.2463
11189TIP3    H155058   0.923   2.737  12.117 -0.4400  0.7273  1.6929
11189TIP3    H255059   0.853   2.822  12.013  1.9590 -1.1815 -1.5436
11190TIP3   OH255060   3.817   6.098   0.694  0.1389  0.6048 -0.5311
11190TIP3    H155061   3.731   6.067   0.725 -0.3137  0.1512 -2.1851
11190TIP3    H255062   3.875   6.023   0.706 -0.2485  0.1209 -1.6386
11191TIP3   OH255063   1.092   2.461  11.341  0.6437  0.1200 -0.2781
11191TIP3    H155064   1.110   2.497  11.254  0.0688  1.0236 -0.0361
11191TIP3    H255065   1.152   2.388  11.350  2.0831  1.2395 -0.6657
11192TIP3   OH255066   5.874   2.140   4.907  0.3289  0.4216  0.0634
11192TIP3    H155067   5.957   2.181   4.930  1.9065 -1.8998 -1.1920
11192TIP3    H255068   5.867   2.152   4.812 -0.5597  0.2936  0.1136
11193TIP3   OH255069   6.412   2.140   3.149 -0.6685  0.5275 -0.0830
11193TIP3    H155070   6.393   2.054   3.186 -2.0196  0.7479 -0.2219
11193TIP3    H255071   6.379   2.203   3.213  4.6619  1.1118  2.3626
11194TIP3   OH255072   2.539   5.540   2.317  0.0990  0.2215  1.2071
11194TIP3    H155073   2.450   5.558   2.348 -0.3314 -0.7340  0.5297
11194TIP3    H255074   2.552   5.447   2.331  0.6638  0.1793  0.4676
11195TIP3   OH255075   0.260   2.622  15.307 -0.2082 -0.1005  0.1332
11195TIP3    H155076   0.272   2.596  15.216 -1.1184 -1.0505  0.2755
11195TIP3    H255077   0.305   2.553  15.357 -0.0386  0.2175  0.4238
11196TIP3   OH255078   0.390   5.425  13.475  0.0962  0.3274 -0.0352
11196TIP3    H155079   0.296   5.433  13.489 -0.0471  0.5375 -1.1003
11196TIP3    H255080   0.420   5.515  13.459 -0.0071 -0.0465 -2.6045
11197TIP3   OH255081   1.941   1.267  11.483 -0.2591  0.0402 -0.3594
11197TIP3    H155082   1.987   1.272  11.399 -0.6602  0.0421 -0.5813
11197TIP3    H255083   2.005   1.228  11.543 -0.7429 -2.2128 -1.2475
11198TIP3   OH255084   0.396   1.831   2.965 -0.4292  0.2061 -0.2301
11198TIP3    H155085   0.340   1.770   2.917  0.1554  0.2857 -1.0291
11198TIP3    H255086   0.484   1.813   2.932  0.2479 -1.0208  2.1489
11199TIP3   OH255087   1.498   0.967   3.720 -0.3513 -0.9342  0.0406
11199TIP3    H155088   1.528   0.882   3.752  0.6627 -0.7313 -0.3385
11199TIP3    H255089   1.578   1.018   3.708 -0.8424 -0.3695 -0.9909
11200TIP3   OH255090   6.287   1.740  16.038  0.2071  0.7321  0.1269
11200TIP3    H155091   6.300   1.734  16.133  0.4933  0.4820  0.0702
11200TIP3    H255092   6.318   1.656  16.004 -0.4334  0.5978 -0.1319
11201TIP3   OH255093   2.404   0.917   2.478 -0.0064  0.0905  0.4283
11201TIP3    H155094   2.424   0.988   2.539 -0.0334  1.2627 -0.9193
11201TIP3    H255095   2.419   0.837   2.529  2.5129  1.0060  1.1739
11202TIP3   OH255096   3.117   3.188   0.195  0.6246  0.5794 -0.0038
11202TIP3    H155097   3.133   3.257   0.259  0.2471  1.5791 -0.9700
11202TIP3    H255098   3.204   3.167   0.160  0.5108  2.1643 -1.3164
11203TIP3   OH255099   5.628   0.246   4.480 -0.2336  0.1374 -0.0744
11203TIP3    H155100   5.540   0.218   4.453 -0.0736 -0.5461  0.0961
11203TIP3    H255101   5.687   0.181   4.441 -0.0251 -1.0048  2.0732
11204TIP3   OH255102   3.490   3.793  14.663  0.1803 -0.5108 -0.1301
11204TIP3    H155103   3.436   3.741  14.722 -0.8697  1.3316  0.5648
11204TIP3    H255104   3.566   3.818  14.716  0.3508 -0.7525 -0.2586
11205TIP3   OH255105   4.704   1.073   5.303  0.3012  0.1970  0.2339
11205TIP3    H155106   4.750   1.077   5.387 -0.2799  0.4601  0.5383
11205TIP3    H255107   4.757   1.127   5.245  1.3463 -0.9334  0.1196
11206TIP3   OH255108   6.357   5.538  13.073 -0.3683  0.5700 -0.0663
11206TIP3    H155109   6.417   5.552  13.000  1.3946  0.1394  1.2491
11206TIP3    H255110   6.409   5.490  13.137 -1.7953  1.1519  1.5648
11207TIP3   OH255111   0.363   0.464  15.670  1.0011 -0.3246 -0.0342
11207TIP3    H155112   0.371   0.395  15.736 -0.2146  0.0954  0.5545
11207TIP3    H255113   0.344   0.544  15.720 -2.2398 -0.4187 -1.0074
11208TIP3   OH255114   3.084   0.832  13.446 -0.5917 -0.5911 -0.1600
11208TIP3    H155115   3.035   0.752  13.460 -1.2291 -0.4155 -1.3431
11208TIP3    H255116   3.020   0.903  13.457 -0.1137 -0.2575  0.5271
11209TIP3   OH255117   0.378   1.712  14.920  0.5903  0.0085  0.3894
11209TIP3    H155118   0.378   1.625  14.959 -0.0530 -0.1829 -0.0361
11209TIP3    H255119   0.405   1.698  14.829  0.8335  0.2998  0.4128
11210TIP3   OH255120   0.171   0.006   0.516  0.5037 -0.4100 -0.1533
11210TIP3    H155121   0.240  -0.058   0.500  0.8986 -0.3605  1.2784
11210TIP3    H255122   0.182   0.030   0.608 -1.6515 -0.6747  0.1836
11211TIP3   OH255123   2.448   4.141  17.253  0.6800 -0.1047 -0.4072
11211TIP3    H155124   2.375   4.196  17.282  0.2803 -1.4264  1.1541
11211TIP3    H255125   2.524   4.175  17.301  0.7362  0.1307 -0.6674
11212TIP3   OH255126   2.799   5.237   5.169 -0.2242 -0.0131 -0.3031
11212TIP3    H155127   2.753   5.306   5.217  0.1036  0.5135 -0.7409
11212TIP3    H255128   2.754   5.233   5.085 -0.6491 -0.7743 -0.0472
11213TIP3   OH255129   1.663   3.217   4.038  0.1615  0.0518  0.1745
11213TIP3    H155130   1.712   3.225   4.120 -1.8694  1.5686  1.2746
11213TIP3    H255131   1.645   3.307   4.011 -0.9186 -0.4669 -0.8941
11214TIP3   OH255132   0.364   5.297   5.575  0.1092 -0.1522  0.1607
11214TIP3    H155133   0.302   5.259   5.512 -0.9401 -0.8999  1.6252
11214TIP3    H255134   0.417   5.223   5.604  1.9396  0.5385 -1.3245
11215TIP3   OH255135   3.919   0.203  11.930 -0.2650  0.1970 -0.1040
11215TIP3    H155136   3.847   0.247  11.974 -1.7666 -0.6991 -1.6187
11215TIP3    H255137   3.940   0.260  11.856 -0.4197 -0.2810 -0.5188
11216TIP3   OH255138   5.364   3.622  14.402  0.0862 -0.0680  0.0639
11216TIP3    H155139   5.419   3.594  14.329  2.9572  2.1301  1.3145
11216TIP3    H255140   5.299   3.680  14.362 -0.2652 -1.2799 -1.1581
11217TIP3   OH255141   4.463   2.319   0.065  0.6474 -0.4824 -0.5132
11217TIP3    H155142   4.401   2.362   0.005  1.8261  0.2041 -1.2499
11217TIP3    H255143   4.407   2.283   0.134 -0.3660  2.3110  0.1825
11218TIP3   OH255144   4.291   2.094   0.222  0.3123 -0.7734 -0.1286
11218TIP3    H155145   4.333   2.010   0.208  0.8252 -0.3468 -1.2074
11218TIP3    H255146   4.248   2.114   0.138 -0.7207 -0.4710  0.4631
11219TIP3   OH255147   2.058   6.586   2.805 -0.0818 -0.0714  0.3082
11219TIP3    H155148   1.972   6.563   2.840 -0.0692  0.0995  0.4554
11219TIP3    H255149   2.039   6.646   2.732 -0.1791 -1.7051 -1.0281
11220TIP3   OH255150   5.687   4.252  12.696  0.2039  0.4812 -0.7892
11220TIP3    H155151   5.739   4.246  12.776  1.8047 -0.7788 -1.8843
11220TIP3    H255152   5.609   4.201  12.714  0.7301 -0.1175 -0.1640
11221TIP3   OH255153   3.979   0.731   1.131  0.0298  0.0504  0.4786
11221TIP3    H155154   4.040   0.802   1.112  1.0589  0.1091  3.6585
11221TIP3    H255155   3.902   0.775   1.168  0.0989 -0.3514  1.1185
11222TIP3   OH255156   4.792   6.381  12.828  0.0944  0.3743  0.4049
11222TIP3    H155157   4.719   6.434  12.860  0.2575 -0.4261  2.2316
11222TIP3    H255158   4.868   6.440  12.829  0.0615  0.4132  1.3999
11223TIP3   OH255159   5.990   6.166   5.636 -0.3367  0.0658 -0.1639
11223TIP3    H155160   5.988   6.213   5.553  1.2725 -0.7460 -0.6810
11223TIP3    H255161   5.898   6.152   5.658 -0.7965  1.4990 -1.1016
11224TIP3   OH255162   2.066   0.981   3.683 -0.3643  0.2728 -0.2153
11224TIP3    H155163   1.983   0.933   3.675  0.3724 -1.3893  1.8716
11224TIP3    H255164   2.064   1.020   3.770  1.1507  0.0055 -0.0393
11225TIP3   OH255165   0.632   4.598  14.528 -0.2822 -0.2653 -0.2735
11225TIP3    H155166   0.674   4.522  14.569  0.5862 -0.4768 -1.5491
11225TIP3    H255167   0.666   4.673  14.577  1.1024 -0.4845 -0.8813
11226TIP3   OH255168   0.651   4.725   0.298  0.0358 -0.0762  0.0158
11226TIP3    H155169   0.637   4.702   0.206 -1.6330 -1.7873  0.6678
11226TIP3    H255170   0.662   4.820   0.298 -0.6954  0.0218 -1.8754
11227TIP3   OH255171   6.258   2.077  12.599  0.0150 -0.2168 -0.2111
11227TIP3    H155172   6.281   2.006  12.538  1.8026 -0.0526  0.2411
11227TIP3    H255173   6.340   2.099  12.642 -0.6363  1.7193  0.1074
11228TIP3   OH255174   4.686   5.848  13.098  0.2626  0.6087  0.2635
11228TIP3    H155175   4.625   5.822  13.168  0.1046  0.0207 -0.0819
11228TIP3    H255176   4.734   5.922  13.134 -0.0502  0.5219  0.8720
11229TIP3   OH255177   4.564   6.665  12.803 -0.0403 -0.3939 -0.2545
11229TIP3    H155178   4.549   6.715  12.723 -0.0873  0.6026  0.3797
11229TIP3    H255179   4.651   6.690  12.833 -0.8112  0.7647  1.0944
11230TIP3   OH255180   5.391   2.265   0.901 -0.1773  0.1363 -0.5226
11230TIP3    H155181   5.467   2.221   0.940 -1.2553 -0.0014  1.4890
11230TIP3    H255182   5.323   2.199   0.899 -1.0065  0.9534  0.0734
11231TIP3   OH255183   0.647   4.859  12.090  0.0502  0.2137  0.5834
11231TIP3    H155184   0.657   4.770  12.057 -0.2546  0.4288 -0.0946
11231TIP3    H255185   0.603   4.907  12.019  0.2088  0.9027  0.9408
11232TIP3   OH255186   0.630   2.345   1.170  0.0333 -0.1255  0.0636
11232TIP3    H155187   0.587   2.426   1.198  0.2325  0.1807 -0.5134
11232TIP3    H255188   0.677   2.369   1.091  1.7539 -0.3247  1.0154
11233TIP3   OH255189   4.615   5.126   4.329  0.4081 -0.1259  0.2442
11233TIP3    H155190   4.601   5.205   4.278  0.5544 -0.9127 -1.0236
11233TIP3    H255191   4.534   5.117   4.381  0.3445  0.7757  0.3090
11234TIP3   OH255192   1.438   0.334   1.787  0.3033 -0.0383  0.0139
11234TIP3    H155193   1.417   0.328   1.694 -1.0772 -1.0719  0.3909
11234TIP3    H255194   1.386   0.265   1.829 -0.3339  1.4645  1.7653
11235TIP3   OH255195   0.882   2.763  16.493 -0.1422 -0.5064  0.5775
11235TIP3    H155196   0.929   2.801  16.418 -1.5694 -0.8278 -0.5001
11235TIP3    H255197   0.812   2.825  16.512 -0.4043 -0.9266  1.0047
11236TIP3   OH255198   5.002   3.891   5.202 -0.5727 -0.1226 -0.0325
11236TIP3    H155199   4.943   3.911   5.274  1.6213  1.1027  1.4817
11236TIP3    H255200   5.058   3.968   5.194  1.2340 -1.4762 -0.9793
11237TIP3   OH255201   3.192   4.044   4.169 -0.3150 -0.1236 -0.3982
11237TIP3    H155202   3.232   3.957   4.160  0.4918  0.2268 -0.2513
11237TIP3    H255203   3.225   4.077   4.253  0.7490  1.0259 -1.2552
11238TIP3   OH255204   2.315   1.191  11.211  0.2867  0.1044 -0.4690
11238TIP3    H155205   2.359   1.179  11.127 -0.5908  1.1751 -1.1032
11238TIP3    H255206   2.382   1.226  11.269  1.1272 -1.4769 -0.4712
11239TIP3   OH255207   5.916   1.129   1.054 -0.3347  0.4222 -0.3811
11239TIP3    H155208   5.905   1.065   1.125  1.3489  1.0562  0.4693
11239TIP3    H255209   5.899   1.079   0.974  2.5631 -1.5165  0.1713
11240TIP3   OH255210   6.535   5.393   3.443  0.1063 -0.0676  0.4988
11240TIP3    H155211   6.532   5.486   3.419  0.8005 -0.2744 -0.4505
11240TIP3    H255212   6.452   5.357   3.410 -0.4517  0.3476  1.4516
11241TIP3   OH255213   3.162   1.121   0.973  0.0457  0.3924 -0.2778
11241TIP3    H155214   3.243   1.131   0.924  1.0276 -0.1732  1.1828
11241TIP3    H255215   3.186   1.141   1.064 -1.5992  0.8972  0.0604
11242TIP3   OH255216   5.189   2.492   0.715 -0.2460 -0.3939 -0.0567
11242TIP3    H155217   5.276   2.524   0.689 -0.4106 -1.2670 -1.7330
11242TIP3    H255218   5.139   2.489   0.633 -1.5767 -0.7967  0.7563
11243TIP3   OH255219   1.811   0.691  15.074 -0.3095  0.1972  0.2083
11243TIP3    H155220   1.901   0.663  15.092 -1.0714 -1.0867  2.0815
11243TIP3    H255221   1.796   0.764  15.134 -0.7032  0.0912  0.2394
11244TIP3   OH255222   1.150   4.991   4.571 -0.1612  0.6354 -0.1053
11244TIP3    H155223   1.116   4.905   4.544 -0.5587  0.8743 -0.3668
11244TIP3    H255224   1.101   5.054   4.518 -0.6090  1.0812  0.8440
11245TIP3   OH255225   6.675   1.743  11.863  0.0468  0.3094  0.6435
11245TIP3    H155226   6.715   1.669  11.817  1.9625  1.1289  0.9403
11245TIP3    H255227   6.655   1.806  11.794 -0.0311  0.2104  0.5753
11246TIP3   OH255228   0.792   0.940  10.706  0.5882  0.3043  0.1045
11246TIP3    H155229   0.799   0.985  10.621 -0.2303 -0.1166 -0.1869
11246TIP3    H255230   0.748   1.003  10.763  1.9662  0.9433  0.4841
11247TIP3   OH255231   1.398   1.156   2.533  0.0762  0.2867  0.1120
11247TIP3    H155232   1.328   1.091   2.537 -3.1684  3.7022  2.2045
11247TIP3    H255233   1.392   1.192   2.445 -0.9396  0.6727  0.3322
11248TIP3   OH255234   5.013   0.502  13.092  0.4839  0.1016 -0.1023
11248TIP3    H155235   5.081   0.435  13.102  0.4657 -0.0900 -1.1903
11248TIP3    H255236   4.939   0.455  13.053  0.7154  0.8857 -1.5367
11249TIP3   OH255237   0.931   4.094  12.018  0.1576 -0.0794  0.1742
11249TIP3    H155238   1.003   4.156  12.025  0.8482 -0.8284 -0.2011
11249TIP3    H255239   0.905   4.096  11.926 -0.4787  0.3720  0.3539
11250TIP3   OH255240   6.260   6.700  13.518 -0.4216 -0.2224 -0.3108
11250TIP3    H155241   6.228   6.748  13.442 -1.8240  0.9348  0.9933
11250TIP3    H255242   6.209   6.619  13.519  0.5577 -0.8716 -1.3652
11251TIP3   OH255243   4.108   1.018   0.605 -0.4511  0.2005  0.4590
11251TIP3    H155244   4.167   1.078   0.650 -2.2450  2.1187  0.3568
11251TIP3    H255245   4.091   1.061   0.521 -0.0427 -1.5304 -0.5093
11252TIP3   OH255246   5.961   6.564  13.170 -0.2038 -0.0857  0.2953
11252TIP3    H155247   5.938   6.478  13.205 -0.1538 -0.5359 -0.7614
11252TIP3    H255248   5.908   6.625  13.220 -1.0204 -0.8206  0.3336
11253TIP3   OH255249   2.568   5.090  14.858 -0.2385 -0.7088 -0.1083
11253TIP3    H155250   2.626   5.094  14.782 -0.5273  0.9395 -0.2621
11253TIP3    H255251   2.603   5.156  14.918 -1.2257 -0.5579  0.3146
11254TIP3   OH255252   0.797   6.240   2.829 -0.0230 -0.6368  0.3204
11254TIP3    H155253   0.708   6.275   2.818  0.9011  1.6120 -0.3202
11254TIP3    H255254   0.784   6.151   2.861 -2.5133 -0.3529  0.2011
11255TIP3   OH255255   5.422   1.604   1.001 -0.1568  0.1083  1.0529
11255TIP3    H155256   5.330   1.627   0.988 -0.1536 -0.3967  0.0432
11255TIP3    H255257   5.423   1.554   1.082 -0.8517 -0.2840  0.8286
11256TIP3   OH255258   5.358   4.143  15.220 -0.2708 -0.0089  0.0296
11256TIP3    H155259   5.265   4.121  15.214 -0.5945  1.8014 -1.8278
11256TIP3    H255260   5.366   4.189  15.303 -0.7653 -1.3045  0.8263
11257TIP3   OH255261   6.257   4.501  11.512 -0.0427 -0.1868 -0.1954
11257TIP3    H155262   6.203   4.474  11.437 -3.0700  1.1953  1.3993
11257TIP3    H255263   6.244   4.431  11.576  2.5155 -1.3462 -0.8926
11258TIP3   OH255264   2.412   0.492   3.111 -0.1636 -0.1150 -0.1977
11258TIP3    H155265   2.426   0.462   3.021 -1.9925 -0.9989 -0.2111
11258TIP3    H255266   2.411   0.588   3.104  0.1954 -0.1699 -1.0382
11259TIP3   OH255267   0.002   3.095   2.840  0.0366  0.1871 -0.5700
11259TIP3    H155268   0.015   3.181   2.880 -1.7196  0.3518 -0.3188
11259TIP3    H255269  -0.008   3.113   2.747  1.1659  0.0983 -0.7126
11260TIP3   OH255270   5.401   2.169  16.424 -0.4970  0.1101  0.3216
11260TIP3    H155271   5.366   2.111  16.357 -0.3117  2.7080 -2.1474
11260TIP3    H255272   5.325   2.193  16.478 -1.3225  0.6450 -1.0637
11261TIP3   OH255273   5.858   2.947   0.672 -0.3498  0.5967  0.0990
11261TIP3    H155274   5.866   3.041   0.688 -0.3458  1.0916 -2.6021
11261TIP3    H255275   5.936   2.910   0.713  1.9554  2.3071 -2.5573
11262TIP3   OH255276   5.797   5.296  13.192  0.0912  0.0519  0.2778
11262TIP3    H155277   5.853   5.371  13.210 -0.3745  0.2344  0.9992
11262TIP3    H255278   5.710   5.322  13.224 -0.4814 -0.1028 -1.1356
11263TIP3   OH255279   6.718   0.673  10.481 -0.4140 -0.1815 -0.6191
11263TIP3    H155280   6.800   0.706  10.516 -0.7063  0.5785 -0.6464
11263TIP3    H255281   6.657   0.676  10.555 -0.7521  0.4364 -0.9229
11264TIP3   OH255282   2.385   5.182   5.610  0.3482  0.2662  0.1876
11264TIP3    H155283   2.295   5.212   5.619 -0.4301 -1.5365 -1.3873
11264TIP3    H255284   2.438   5.260   5.627 -1.5463  1.9149 -1.3082
11265TIP3   OH255285   4.304   5.005  15.554 -0.5634  0.1741  0.2156
11265TIP3    H155286   4.330   5.095  15.536 -1.1779 -0.0040 -1.6709
11265TIP3    H255287   4.221   5.012  15.599 -2.2084  0.5322 -2.7150
11266TIP3   OH255288   1.977   5.714  11.437  0.5577 -0.5131 -0.4542
11266TIP3    H155289   1.887   5.744  11.426  0.1957 -0.9059  1.2446
11266TIP3    H255290   2.008   5.697  11.348 -0.9878 -0.2120 -1.0629
11267TIP3   OH255291   1.603   4.923   5.823 -0.6142  0.2221  0.4013
11267TIP3    H155292   1.661   4.971   5.882 -0.0743 -0.2674  0.2772
11267TIP3    H255293   1.542   4.878   5.880 -0.7177  0.5453  0.5445
11268TIP3   OH255294   2.060   1.306  15.465  0.6197 -0.3827  0.1500
11268TIP3    H155295   2.099   1.390  15.491 -0.4212 -0.1841  1.0909
11268TIP3    H255296   2.096   1.243  15.527  0.3834 -0.4110  0.2576
11269TIP3   OH255297   4.020   2.975   3.197 -0.0357 -0.3192 -0.3798
11269TIP3    H155298   3.941   2.970   3.251  0.1082  0.1168 -0.1212
11269TIP3    H255299   3.992   3.023   3.118  0.3130  1.1606  0.3696
11270TIP3   OH255300   4.580   1.661  14.177 -0.2197  0.5282 -0.1335
11270TIP3    H155301   4.633   1.583  14.166  1.8827  1.8945 -0.0626
11270TIP3    H255302   4.550   1.683  14.089  0.4015  0.4511 -0.3667
11271TIP3   OH255303   2.296   4.733   2.244 -0.2000  0.0707  0.7187
11271TIP3    H155304   2.232   4.766   2.181  0.0562  2.1970  1.5405
11271TIP3    H255305   2.381   4.749   2.202 -0.1360 -2.1929 -0.1063
11272TIP3   OH255306   1.110   2.032  14.993 -0.4186 -0.2528  0.4141
11272TIP3    H155307   1.125   2.124  15.014 -0.8040  0.2312 -1.3603
11272TIP3    H255308   1.141   1.984  15.070 -3.1317  1.5072  2.7392
11273TIP3   OH255309   3.485   3.429  15.583  0.6549  0.5495 -0.1643
11273TIP3    H155310   3.534   3.409  15.663 -1.6105  1.9014  1.6045
11273TIP3    H255311   3.520   3.513  15.555  0.4291  0.7708  0.2183
11274TIP3   OH255312   1.169   3.303   0.112 -0.4768 -0.2660 -0.0951
11274TIP3    H155313   1.078   3.296   0.141 -0.6236  0.0524 -0.4827
11274TIP3    H255314   1.176   3.391   0.075 -0.3065 -0.6980 -1.0979
11275TIP3   OH255315   1.833   3.100  14.646 -0.0730 -0.7971 -0.1547
11275TIP3    H155316   1.798   3.160  14.711  1.3586  1.1224 -1.1056
11275TIP3    H255317   1.756   3.054  14.612 -1.0869 -0.1382  1.1904
11276TIP3   OH255318   5.151   3.258   2.996  0.3028 -0.0331  0.3045
11276TIP3    H155319   5.162   3.301   3.081  0.5362  1.4918 -0.4624
11276TIP3    H255320   5.066   3.289   2.965  0.7096  0.3061 -0.4973
11277TIP3   OH255321   2.934   1.326   5.458 -0.0730 -0.7698 -0.4524
11277TIP3    H155322   2.857   1.381   5.446  0.6057  0.2784 -0.1033
11277TIP3    H255323   2.982   1.332   5.376  1.1624  1.0142  0.3716
11278TIP3   OH255324   4.547   3.170  12.464 -0.0739  0.1476  0.8551
11278TIP3    H155325   4.486   3.243  12.474 -2.2747 -1.4054 -0.9182
11278TIP3    H255326   4.545   3.150  12.370  3.1778  0.0498  0.7535
11279TIP3   OH255327   3.682   2.515  16.517 -0.0620  0.6046 -0.0637
11279TIP3    H155328   3.738   2.587  16.488 -0.4223  1.9416  2.4704
11279TIP3    H255329   3.697   2.509  16.611 -0.3605 -2.3889 -0.1464
11280TIP3   OH255330   0.157   3.342  12.543 -0.0937 -0.7014  0.0646
11280TIP3    H155331   0.188   3.427  12.575  4.6651 -2.7612  1.3658
11280TIP3    H255332   0.110   3.304  12.617 -1.4085  0.3791 -0.2043
11281TIP3   OH255333   5.828   4.576  11.787  0.2275 -0.0526  0.0163
11281TIP3    H155334   5.790   4.552  11.702  0.3097  0.9231 -0.3109
11281TIP3    H255335   5.752   4.583  11.845  0.1554 -0.5836 -0.0119
11282TIP3   OH255336   1.273   0.671   1.163 -0.6988 -0.2553 -0.2557
11282TIP3    H155337   1.183   0.656   1.134 -0.8456 -0.3845  0.2457
11282TIP3    H255338   1.280   0.766   1.174 -1.2849 -0.3653  1.2664
11283TIP3   OH255339   0.565   1.486   6.610  0.1191 -0.1203  0.0263
11283TIP3    H155340   0.498   1.426   6.644  0.5668 -1.8983 -2.1111
11283TIP3    H255341   0.648   1.445   6.635  0.4306  0.7947  0.5128
11284TIP3   OH255342   0.035   1.072  15.120 -0.1234 -0.0348  0.9116
11284TIP3    H155343   0.004   1.048  15.032  0.1974  1.6361  0.3181
11284TIP3    H255344  -0.044   1.100  15.166  0.3742  3.9802 -0.5197
11285TIP3   OH255345   3.544   1.566   3.819 -0.3864  0.0721  0.0837
11285TIP3    H155346   3.636   1.549   3.801 -0.5109  0.0930 -0.5579
11285TIP3    H255347   3.538   1.661   3.832 -0.5240  0.2182 -1.0435
11286TIP3   OH255348   2.306   2.068   0.203 -0.5059  0.0099  0.7760
11286TIP3    H155349   2.301   2.129   0.130  0.8481  0.2312  0.8530
11286TIP3    H255350   2.269   1.986   0.169 -4.1366  1.3895  1.2715
11287TIP3   OH255351   3.534   4.092   0.692  0.1823  0.3201  0.9506
11287TIP3    H155352   3.473   4.030   0.651  1.8423  0.5544 -2.0364
11287TIP3    H255353   3.490   4.177   0.685 -0.3278  0.0867  1.2959
11288TIP3   OH255354   0.791   1.541  13.126 -0.3338  0.1063  0.0290
11288TIP3    H155355   0.772   1.604  13.057  0.3711  0.6291  0.3053
11288TIP3    H255356   0.787   1.455  13.083 -2.3301  0.2549 -0.1250
11289TIP3   OH255357   4.565   4.249   3.772 -0.1178  0.5005 -0.3768
11289TIP3    H155358   4.595   4.160   3.752  0.2394  0.8065 -1.1908
11289TIP3    H255359   4.639   4.290   3.816  0.1859  0.8169 -1.1755
11290TIP3   OH255360   4.808   4.403   4.883  0.4325  0.0960 -0.0433
11290TIP3    H155361   4.813   4.484   4.833 -1.8429 -0.2263 -0.8915
11290TIP3    H255362   4.842   4.425   4.970 -0.3258  2.0094 -0.2122
11291TIP3   OH255363   0.258   6.132  13.398  0.4403 -0.2540 -0.1320
11291TIP3    H155364   0.314   6.111  13.324 -1.6258  1.0070 -2.1092
11291TIP3    H255365   0.230   6.047  13.432 -0.7173 -0.8571 -2.4899
11292TIP3   OH255366   0.462   6.708   6.266  0.1668 -0.3658  0.2285
11292TIP3    H155367   0.537   6.728   6.210 -0.4798  0.2092 -0.4400
11292TIP3    H255368   0.476   6.762   6.344 -1.2982  2.3892 -1.3436
11293TIP3   OH255369   4.428   5.087  12.158 -0.3078  0.6991  0.3987
11293TIP3    H155370   4.454   5.175  12.185  0.7348 -0.0980  2.0721
11293TIP3    H255371   4.506   5.051  12.116 -1.4346  1.3639 -2.3796
11294TIP3   OH255372   0.187   4.590  16.629  0.0329 -0.5401 -0.3605
11294TIP3    H155373   0.207   4.684  16.634  0.4189 -0.4982 -2.2803
11294TIP3    H255374   0.246   4.557  16.561  0.0754 -2.2279  0.4820
11295TIP3   OH255375   5.305   4.105  13.276  0.5668 -0.5599  0.0289
11295TIP3    H155376   5.234   4.056  13.235 -0.4525 -0.9496  2.1744
11295TIP3    H255377   5.328   4.054  13.353  0.2458  1.7323  1.7168
11296TIP3   OH255378   5.198   2.173   3.817  0.5321 -0.4577  0.0327
11296TIP3    H155379   5.212   2.267   3.818 -1.8223 -0.0665  2.6050
11296TIP3    H255380   5.268   2.138   3.872  0.1265  0.0174  0.8587
11297TIP3   OH255381   0.765   0.929  13.914 -0.0275 -0.0325  0.1656
11297TIP3    H155382   0.814   0.848  13.902  1.1170  0.9968 -2.7077
11297TIP3    H255383   0.813   0.993  13.862 -2.8228  1.6872 -0.3904
11298TIP3   OH255384   3.205   4.168  11.480 -0.1440 -0.0385  0.2904
11298TIP3    H155385   3.121   4.140  11.515 -0.7435  3.1185  1.5310
11298TIP3    H255386   3.183   4.226  11.407  0.9550  0.3451  0.2567
11299TIP3   OH255387   4.413   4.726  15.895 -0.2595 -0.3694 -0.1398
11299TIP3    H155388   4.484   4.664  15.877  0.2832  0.4844 -0.9626
11299TIP3    H255389   4.333   4.676  15.878  0.1813 -0.7418 -1.1553
11300TIP3   OH255390   1.947   3.490  14.108 -0.3612 -0.2948  0.8465
11300TIP3    H155391   2.036   3.509  14.139 -0.5544  0.7695  0.7834
11300TIP3    H255392   1.947   3.520  14.017 -0.7542 -0.3707  0.8224
11301TIP3   OH255393   6.436   1.519   4.579  0.0411 -0.2785  0.0345
11301TIP3    H155394   6.375   1.547   4.510 -0.7820 -0.0297  0.8413
11301TIP3    H255395   6.445   1.425   4.567  0.5335 -0.1149 -0.9063
11302TIP3   OH255396   6.510   3.206   0.077  0.4328  0.5414 -0.3774
11302TIP3    H155397   6.582   3.227   0.137 -0.4281  1.6454  0.2899
11302TIP3    H255398   6.531   3.253  -0.004  0.1223  1.4499  0.0540
11303TIP3   OH255399   2.234   0.399   3.559  0.1561 -0.0363  0.0567
11303TIP3    H155400   2.191   0.483   3.546 -0.5117 -0.5134 -0.9133
11303TIP3    H255401   2.316   0.406   3.511 -0.8298 -0.6422 -1.7838
11304TIP3   OH255402   4.307   5.395   3.907  0.1910 -0.1131 -0.4588
11304TIP3    H155403   4.297   5.405   4.002  0.3437  2.4727 -0.6611
11304TIP3    H255404   4.268   5.475   3.871  0.5159 -0.8726 -2.5650
11305TIP3   OH255405   2.198   2.927   4.395  0.0208  0.2255 -0.1309
11305TIP3    H155406   2.156   2.842   4.397 -0.2946  0.3574 -0.9759
11305TIP3    H255407   2.191   2.956   4.304  0.8857  0.7690 -0.0380
11306TIP3   OH255408   6.788   4.935  14.661 -0.0675  0.1080 -0.3360
11306TIP3    H155409   6.764   4.897  14.577  0.9608  0.1127 -0.6434
11306TIP3    H255410   6.833   4.865  14.708 -1.3163 -0.1357  0.5325
11307TIP3   OH255411   5.720   4.166   0.039  0.3563 -0.2352 -0.2079
11307TIP3    H155412   5.813   4.157   0.061  0.4072  0.9211  0.0802
11307TIP3    H255413   5.720   4.203  -0.049  0.1639 -0.6774 -0.3953
11308TIP3   OH255414   5.392   3.173   3.582  0.4907 -0.0743  0.4685
11308TIP3    H155415   5.348   3.191   3.665 -0.2572 -0.2775  0.1251
11308TIP3    H255416   5.322   3.140   3.525  0.8906  0.5122 -0.3817
11309TIP3   OH255417   1.826   0.829   2.881  0.1399  0.2563  0.2173
11309TIP3    H155418   1.781   0.837   2.797  2.1540  1.1259 -0.8091
11309TIP3    H255419   1.841   0.735   2.891 -0.3191  0.1280 -0.2819
11310TIP3   OH255420   1.137   5.823  12.219 -0.1027  0.6762  0.3342
11310TIP3    H155421   1.067   5.763  12.246 -0.5715  0.6714 -0.8531
11310TIP3    H255422   1.216   5.770  12.221 -0.6309 -0.2458 -1.5105
11311TIP3   OH255423   3.206   0.600  15.211 -0.1224  0.2745 -0.2642
11311TIP3    H155424   3.240   0.562  15.292 -1.0578 -1.1038 -0.4919
11311TIP3    H255425   3.151   0.531  15.173 -0.5219  1.2666 -1.5545
11312TIP3   OH255426   4.920   1.415   1.868 -0.0109 -0.2289  0.3905
11312TIP3    H155427   4.852   1.482   1.858  0.8818  0.5397 -0.5941
11312TIP3    H255428   4.924   1.373   1.782 -2.2879 -3.2466  1.6635
11313TIP3   OH255429   3.709   0.873   0.884  0.0280 -0.1599  0.0642
11313TIP3    H155430   3.800   0.897   0.901  0.3601 -2.0194  1.0107
11313TIP3    H255431   3.713   0.818   0.806 -0.2719 -0.3824  0.2049
11314TIP3   OH255432   3.267   6.092  15.171  0.7997 -0.5520 -0.3764
11314TIP3    H155433   3.189   6.053  15.209 -0.5133 -1.1646 -3.5208
11314TIP3    H255434   3.308   6.020  15.122  0.9893  0.8002 -2.2412
11315TIP3   OH255435   5.146   5.492  15.664  0.5780  1.1879  0.3345
11315TIP3    H155436   5.142   5.439  15.585 -1.6526 -0.8586  1.7251
11315TIP3    H255437   5.194   5.437  15.727 -1.3590  0.9395  1.6560
11316TIP3   OH255438   1.504   2.117  16.079 -0.0860 -0.2141 -0.1163
11316TIP3    H155439   1.460   2.201  16.065 -1.5770 -1.2738 -2.1241
11316TIP3    H255440   1.447   2.070  16.140 -1.2389 -1.1574 -1.8622
11317TIP3   OH255441   5.122   5.207   2.999 -0.2167 -0.5607  0.0694
11317TIP3    H155442   5.065   5.185   2.925 -0.1150 -0.3746 -0.0653
11317TIP3    H255443   5.063   5.239   3.066 -0.2456 -0.1157 -0.1670
11318TIP3   OH255444   3.843   2.931   2.393 -0.2533 -0.0005 -0.2258
11318TIP3    H155445   3.936   2.914   2.380  0.2010  2.7025 -0.7590
11318TIP3    H255446   3.826   2.904   2.483  0.0282 -4.4865 -1.4154
11319TIP3   OH255447   2.270   2.744  10.951  0.0512 -0.4303  0.6721
11319TIP3    H155448   2.263   2.681  10.880  1.6324  1.7992 -1.5272
11319TIP3    H255449   2.179   2.770  10.969 -0.2550  0.6208 -2.1076
11320TIP3   OH255450   3.985   5.151  13.891 -0.2677  0.2516  0.2825
11320TIP3    H155451   3.963   5.168  13.799 -0.4675 -0.3357  0.2223
11320TIP3    H255452   3.902   5.127  13.931 -0.4654  1.9634  0.9596
11321TIP3   OH255453   1.111   0.941  15.707  0.2375  0.9110 -0.4836
11321TIP3    H155454   1.055   1.017  15.722  0.6299  1.1069 -0.0228
11321TIP3    H255455   1.200   0.972  15.723  0.3323  0.1564  0.5011
11322TIP3   OH255456   0.118   4.781   1.466 -0.3799  0.1920 -0.2251
11322TIP3    H155457   0.176   4.828   1.406 -0.4134  0.7582  0.1713
11322TIP3    H255458   0.176   4.746   1.534 -0.1617 -1.7364 -1.3815
11323TIP3   OH255459   2.470   5.715  12.446  0.4682 -0.1969 -0.5506
11323TIP3    H155460   2.557   5.749  12.466  0.0941  0.4823 -0.0710
11323TIP3    H255461   2.415   5.792  12.437 -0.1074 -0.6253 -0.7573
11324TIP3   OH255462   4.414   1.540   3.344  0.6165  0.4385  0.2713
11324TIP3    H155463   4.403   1.625   3.386  0.1728  0.0997  0.8610
11324TIP3    H255464   4.324   1.507   3.332  0.8251 -0.7100  1.6709
11325TIP3   OH255465   3.512   6.223  13.245  0.2824  0.0888  0.8068
11325TIP3    H155466   3.543   6.305  13.285 -1.4321  1.0368  0.2074
11325TIP3    H255467   3.550   6.224  13.157  0.9702 -0.1985  1.0906
11326TIP3   OH255468   0.907   3.026  14.682 -0.0354  0.0159  0.2552
11326TIP3    H155469   0.913   2.932  14.694 -0.8808 -0.3507 -1.9553
11326TIP3    H255470   0.982   3.061  14.731  1.2155 -1.9123 -0.2313
11327TIP3   OH255471   4.724   6.107   4.340 -0.0245  0.1277 -0.8562
11327TIP3    H155472   4.818   6.115   4.327 -0.1532  2.8218 -0.4692
11327TIP3    H255473   4.710   6.137   4.430 -1.3585  0.8354 -1.2758
11328TIP3   OH255474   3.684   1.165   0.926  0.6598  0.0397 -0.3176
11328TIP3    H155475   3.702   1.074   0.949  1.8410  0.4776  0.5724
11328TIP3    H255476   3.759   1.193   0.875  1.1456  1.0190  0.8928
11329TIP3   OH255477   1.021   6.042   2.587  0.0638 -0.2860 -0.1767
11329TIP3    H155478   1.090   6.104   2.564  0.7880 -0.8451  0.4720
11329TIP3    H255479   0.962   6.043   2.511  0.6351  0.3989 -0.6211
11330TIP3   OH255480   3.143   5.462  13.098 -0.3299  0.5710  0.8122
11330TIP3    H155481   3.096   5.415  13.029  0.5551  0.4862  0.2498
11330TIP3    H255482   3.156   5.550  13.063 -0.2309  0.6474  1.0377
11331TIP3   OH255483   0.946   1.153  15.749  0.2624  0.1567  0.3260
11331TIP3    H155484   1.001   1.191  15.817  0.6416  1.0033 -0.4531
11331TIP3    H255485   0.902   1.227  15.708 -0.9023 -0.4453  0.4407
11332TIP3   OH255486   4.318   2.757  11.767  0.7404  0.8160  0.1307
11332TIP3    H155487   4.232   2.754  11.809  1.0575  1.0725  0.8027
11332TIP3    H255488   4.353   2.668  11.776  0.6929  0.8001  0.1564
11333TIP3   OH255489   5.492   0.467   3.302  0.4040 -0.4946 -0.1295
11333TIP3    H155490   5.519   0.554   3.273 -1.2588  0.1216  0.1159
11333TIP3    H255491   5.551   0.407   3.257  3.2552  0.8624  1.7022
11334TIP3   OH255492   4.601   6.222   3.340 -0.1676 -0.2515 -0.3088
11334TIP3    H155493   4.600   6.262   3.253 -0.3252 -0.8357 -0.5746
11334TIP3    H255494   4.509   6.214   3.364 -0.2601 -2.9157 -1.3904
11335TIP3   OH255495   2.219   1.642  15.913 -0.3593 -0.7059 -0.1024
11335TIP3    H155496   2.270   1.572  15.953 -1.3110 -1.9909 -1.1120
11335TIP3    H255497   2.133   1.635  15.955 -0.1757  0.4730  0.4876
11336TIP3   OH255498   4.761   5.836  12.260  0.2413  0.6975  0.0728
11336TIP3    H155499   4.797   5.813  12.345 -0.4195 -2.4419 -0.4427
11336TIP3    H255500   4.836   5.839  12.201  0.5129  1.4203  0.4482
11337TIP3   OH255501   5.188   4.009   6.022 -0.1457  0.1970 -0.1259
11337TIP3    H155502   5.265   3.966   6.059  0.4415  0.2553 -1.2692
11337TIP3    H255503   5.209   4.102   6.026 -1.5192  0.4342  2.5848
11338TIP3   OH255504   3.394   0.364   4.332 -0.5011  0.1798 -0.0590
11338TIP3    H155505   3.389   0.272   4.359  2.2718 -0.3573 -1.2146
11338TIP3    H255506   3.385   0.413   4.413  1.7492 -1.2428  1.1143
11339TIP3   OH255507   2.349   6.179  12.581  0.6387 -0.5595  0.4925
11339TIP3    H155508   2.377   6.266  12.610 -2.4422  0.2472  1.2178
11339TIP3    H255509   2.253   6.183  12.582  0.4536 -3.0708 -2.2553
11340TIP3   OH255510   0.281   1.839   0.550  0.0106 -0.1854  0.2472
11340TIP3    H155511   0.324   1.753   0.554  0.9454  0.2689  0.0934
11340TIP3    H255512   0.301   1.872   0.462 -1.7036 -0.4966 -0.2774
11341TIP3   OH255513   2.004   2.635   4.060 -0.1768  0.6001  0.3489
11341TIP3    H155514   2.006   2.569   4.129 -0.3794  1.6091  1.3398
11341TIP3    H255515   1.938   2.698   4.089  1.6097  2.4288  0.5465
11342TIP3   OH255516   0.873   1.827  13.488  0.2585 -0.2764  0.3482
11342TIP3    H155517   0.894   1.914  13.453 -0.5191  0.2959  1.2975
11342TIP3    H255518   0.903   1.767  13.419 -0.4139  0.7943 -0.9155
11343TIP3   OH255519   4.304   0.422   3.751  0.6795 -0.4686 -0.1076
11343TIP3    H155520   4.248   0.364   3.701 -1.0382 -0.3943  1.6661
11343TIP3    H255521   4.364   0.460   3.687 -1.0153 -0.8954 -1.9624
11344TIP3   OH255522   4.687   1.679  16.450  0.2113  0.0011  0.7358
11344TIP3    H155523   4.781   1.670  16.464  0.3388  0.0631 -0.0780
11344TIP3    H255524   4.648   1.649  16.532  1.0467  3.5488  2.4894
11345TIP3   OH255525   2.000   5.879   0.770 -0.2366  0.0877 -0.0799
11345TIP3    H155526   1.905   5.892   0.763 -0.2603 -1.1337 -2.4411
11345TIP3    H255527   2.013   5.786   0.753  1.1568 -0.4199  3.2834
11346TIP3   OH255528   3.319   2.573   0.350  0.3489 -0.3075  0.6631
11346TIP3    H155529   3.268   2.570   0.431 -1.2067 -1.7545 -0.3288
11346TIP3    H255530   3.328   2.482   0.323  0.6509  0.1605 -0.8955
11347TIP3   OH255531   1.512   4.619   5.327  0.4228  0.2749 -0.2261
11347TIP3    H155532   1.459   4.549   5.288 -0.7307 -0.0928  1.9602
11347TIP3    H255533   1.593   4.618   5.276 -0.2032 -1.6185 -1.2451
11348TIP3   OH255534   5.040   5.952  14.193  0.0479 -0.4802  0.6090
11348TIP3    H155535   5.018   6.015  14.262 -2.7005 -0.7835  0.0594
11348TIP3    H255536   5.038   5.867  14.238 -3.2172 -0.8317 -0.0839
11349TIP3   OH255537   1.252   3.911  15.887 -0.0143  0.0028 -0.5918
11349TIP3    H155538   1.340   3.943  15.905 -0.1620 -0.7265  1.5661
11349TIP3    H255539   1.263   3.817  15.873 -0.4820 -0.1697  0.1269
11350TIP3   OH255540   5.861   1.976  16.393  0.6843  0.2424  0.1806
11350TIP3    H155541   5.864   1.881  16.384  0.6235  0.2744 -0.2121
11350TIP3    H255542   5.782   1.993  16.443 -0.1574  0.1758 -1.1062
11351TIP3   OH255543   1.380   5.632  15.778 -0.1978  0.0341 -0.4196
11351TIP3    H155544   1.308   5.575  15.753 -0.4016 -0.0560  0.3657
11351TIP3    H255545   1.459   5.579  15.763 -0.3470 -0.2159 -0.3230
11352TIP3   OH255546   6.336   3.362  12.926  0.0417 -0.3465  0.2775
11352TIP3    H155547   6.345   3.350  12.831 -1.1698 -1.0917  0.2486
11352TIP3    H255548   6.365   3.279  12.963  0.7140  0.0189  0.5786
11353TIP3   OH255549   5.232   0.303   4.044  0.6553  0.2457 -0.1625
11353TIP3    H155550   5.138   0.311   4.025  0.8007  0.1505 -0.9366
11353TIP3    H255551   5.261   0.229   3.991  1.1347  0.1681  0.2060
11354TIP3   OH255552   3.051   5.423  11.033 -0.2225  0.0787 -0.1735
11354TIP3    H155553   2.966   5.390  11.061 -1.7981  3.0312 -1.2446
11354TIP3    H255554   3.089   5.462  11.112 -0.3810 -0.1833  0.0335
11355TIP3   OH255555   6.437   0.410  17.281  0.7886 -0.2102 -0.2521
11355TIP3    H155556   6.354   0.377  17.315 -0.3104  2.1525 -0.5273
11355TIP3    H255557   6.442   0.375  17.192 -1.9686  2.9225 -1.7492
11356TIP3   OH255558   2.020   1.827  16.409 -0.2171 -0.1093  0.1180
11356TIP3    H155559   1.931   1.862  16.403 -0.1352 -0.1958 -1.9519
11356TIP3    H255560   2.065   1.862  16.332  1.5349 -0.1142  1.0986
11357TIP3   OH255561   2.622   4.422  12.327  0.1983  0.2462 -0.3196
11357TIP3    H155562   2.684   4.387  12.263  2.0804  0.5445  1.2754
11357TIP3    H255563   2.536   4.391  12.297  1.2052 -0.9220 -2.0887
11358TIP3   OH255564   2.727   3.350  14.019  0.1953 -0.4203 -0.0051
11358TIP3    H155565   2.787   3.333  13.947  1.6163  0.6905  0.8836
11358TIP3    H255566   2.780   3.397  14.084 -1.6537  0.6662  0.7568
11359TIP3   OH255567   1.357   1.038  14.138  0.2878  0.0050  0.5657
11359TIP3    H155568   1.398   1.110  14.090 -1.8613  0.6279 -0.4139
11359TIP3    H255569   1.376   0.961  14.085 -0.2334  0.3674 -0.1694
11360TIP3   OH255570   2.745   6.046   5.054  0.2414 -0.3401  0.1522
11360TIP3    H155571   2.810   6.010   5.114  0.5890 -0.4129 -0.2638
11360TIP3    H255572   2.675   6.079   5.110  1.9859  2.4450  0.7478
11361TIP3   OH255573   1.254   3.430  16.517 -0.3869 -0.3442 -0.1376
11361TIP3    H155574   1.194   3.504  16.530 -1.5676 -1.3157 -0.0135
11361TIP3    H255575   1.340   3.465  16.541 -0.8715  1.1037 -0.4434
11362TIP3   OH255576   3.550   5.795  16.276  0.0973 -0.2420  0.0977
11362TIP3    H155577   3.600   5.867  16.237  0.2538 -0.8284 -0.8022
11362TIP3    H255578   3.607   5.719  16.266 -0.1789 -0.5406  0.8030
11363TIP3   OH255579   4.156   0.970   2.651  0.0556 -0.1114 -0.9383
11363TIP3    H155580   4.106   0.893   2.679  0.5294 -0.0380  0.1307
11363TIP3    H255581   4.120   1.042   2.702 -1.1523  0.6067 -2.7457
11364TIP3   OH255582   2.420   6.636  12.503  0.1397  0.4055  0.4311
11364TIP3    H155583   2.479   6.601  12.570  0.7033  0.7198  0.1119
11364TIP3    H255584   2.343   6.580  12.506  0.2695  0.2606  1.1634
11365TIP3   OH255585   1.834   3.341   5.948  0.2338 -0.0925  0.3690
11365TIP3    H155586   1.886   3.289   5.887 -1.9134 -0.8627 -0.8536
11365TIP3    H255587   1.898   3.395   5.994  1.9819 -0.1109 -1.9629
11366TIP3   OH255588   4.281   6.643  10.300 -0.0468 -0.1925  0.3298
11366TIP3    H155589   4.281   6.738  10.286 -1.5560 -0.2820 -0.3745
11366TIP3    H255590   4.228   6.630  10.379  0.3732 -0.4231  0.5715
11367TIP3   OH255591   1.070   1.670  17.076  0.0926  0.0435  0.1273
11367TIP3    H155592   1.033   1.744  17.125 -1.5093  0.5376 -1.7477
11367TIP3    H255593   1.162   1.667  17.103 -0.5698  0.7001  2.6228
11368TIP3   OH255594   6.787   3.160   2.579  0.2955 -0.1686  0.2557
11368TIP3    H155595   6.795   3.256   2.583 -0.7628 -0.0890  0.4565
11368TIP3    H255596   6.872   3.131   2.543  1.3715  0.6918  2.0517
11369TIP3   OH255597   2.814   1.594   1.437 -0.6781  0.0990 -0.2926
11369TIP3    H155598   2.761   1.628   1.509 -2.5788 -0.4119 -1.4281
11369TIP3    H255599   2.822   1.668   1.377 -0.0112  0.1996 -0.0863
11370TIP3   OH255600   3.938   4.669  15.827 -0.3231  0.3936  0.5423
11370TIP3    H155601   3.899   4.663  15.914 -0.2020 -1.5516  0.4683
11370TIP3    H255602   3.888   4.740  15.784 -1.9410 -0.2006  1.3867
11371TIP3   OH255603   4.163   4.917  15.909 -0.0814  0.1614  0.2134
11371TIP3    H155604   4.209   4.834  15.900  1.3845  1.0712 -0.9567
11371TIP3    H255605   4.230   4.978  15.941 -0.9619  1.0542  0.3771
11372TIP3   OH255606   6.686   0.349  15.042 -0.6915  0.4119  0.2480
11372TIP3    H155607   6.627   0.374  15.113  0.3959  0.6678  1.0800
11372TIP3    H255608   6.729   0.430  15.016 -0.0197  0.0747  0.2945
11373TIP3   OH255609   5.037   3.995   5.667  0.2019 -0.6665 -0.2572
11373TIP3    H155610   4.957   4.008   5.617 -0.3824 -0.4216  0.7341
11373TIP3    H255611   5.065   4.084   5.691  0.8469 -0.7397 -0.7038
11374TIP3   OH255612   6.507   3.081   3.068  0.3803 -0.1815  0.0021
11374TIP3    H155613   6.540   3.030   3.142  1.7856 -1.0647 -1.2023
11374TIP3    H255614   6.574   3.149   3.055  0.1897 -0.0939 -0.5254
11375TIP3   OH255615   4.361   4.463  14.308  0.2184 -0.0753 -0.1894
11375TIP3    H155616   4.385   4.411  14.385  1.1585 -1.8762 -1.6421
11375TIP3    H255617   4.384   4.407  14.234  0.5444  2.1336 -1.8072
11376TIP3   OH255618   6.471   2.793  11.020  0.0339 -0.2831  0.4341
11376TIP3    H155619   6.432   2.723  11.072 -1.5358  1.5678  1.8397
11376TIP3    H255620   6.403   2.861  11.017  0.9739  0.5988 -2.1127
11377TIP3   OH255621   1.782   0.553  15.353 -0.2045 -0.3028 -0.0184
11377TIP3    H155622   1.695   0.562  15.313 -0.7820  0.0835  1.3048
11377TIP3    H255623   1.771   0.482  15.417  0.6758 -0.8170 -0.4270
11378TIP3   OH255624   5.252   2.480  12.285 -0.3501  0.3312  0.1721
11378TIP3    H155625   5.208   2.440  12.359 -1.4937 -0.2403 -0.7973
11378TIP3    H255626   5.345   2.475  12.306 -0.6037 -0.8168  1.0631
11379TIP3   OH255627   5.767   5.391   4.726 -0.1040  0.1287 -0.9378
11379TIP3    H155628   5.723   5.359   4.648 -0.8192 -1.4353  0.0835
11379TIP3    H255629   5.853   5.420   4.696 -0.4470 -0.2827 -2.3179
11380TIP3   OH255630   4.089   6.509   0.204 -0.4833 -0.7869 -0.0560
11380TIP3    H155631   4.062   6.561   0.280  2.0330  2.0692 -1.0130
11380TIP3    H255632   4.011   6.505   0.148 -0.7730  1.9461  0.1038
11381TIP3   OH255633   6.173   6.761   4.927  0.3226 -0.3250 -0.1532
11381TIP3    H155634   6.201   6.848   4.956 -1.0825  0.4075 -0.9134
11381TIP3    H255635   6.253   6.720   4.894  0.5579  1.7558 -2.3864
11382TIP3   OH255636   0.346   0.004  15.410 -0.3804  0.0433 -0.5283
11382TIP3    H155637   0.301  -0.023  15.490  0.4526  3.5857  1.1972
11382TIP3    H255638   0.302  -0.046  15.341 -3.8735 -0.0682  1.6260
11383TIP3   OH255639   6.163   1.386   3.365  0.1961 -0.4530 -0.1705
11383TIP3    H155640   6.133   1.468   3.325  1.4760  0.4021  0.5853
11383TIP3    H255641   6.255   1.402   3.387 -0.1345 -1.3125  2.0134
11384TIP3   OH255642   5.293   2.313   2.310  0.6201  0.5993  0.1759
11384TIP3    H155643   5.357   2.310   2.239  1.9610  0.7291  1.3844
11384TIP3    H255644   5.322   2.245   2.371 -1.3417 -0.5121 -0.0650
11385TIP3   OH255645   4.062   0.753  11.192  0.6699  0.2747  0.4828
11385TIP3    H155646   4.020   0.741  11.277  1.8430 -0.1240  1.0276
11385TIP3    H255647   3.993   0.785  11.134 -0.4458 -0.6914  1.2680
11386TIP3   OH255648   0.134   1.135   6.243  0.0039  0.1078 -0.3482
11386TIP3    H155649   0.127   1.218   6.195 -1.8238  0.3179  0.2382
11386TIP3    H255650   0.045   1.102   6.247  0.4138 -0.8768  1.2178
11387TIP3   OH255651   1.922   6.053  16.567  0.0530  0.5710 -0.0377
11387TIP3    H155652   1.829   6.034  16.571  0.0407  0.6453  0.0312
11387TIP3    H255653   1.964   5.968  16.550  0.0189  0.4408  0.5226
11388TIP3   OH255654   6.709   0.360   0.400 -0.8133 -0.0234  0.2327
11388TIP3    H155655   6.632   0.354   0.343 -0.8252 -0.6171  0.3121
11388TIP3    H255656   6.757   0.279   0.385  1.8661  1.9695 -2.7737
11389TIP3   OH255657   5.190   1.650   2.190  0.0014  0.2983 -0.0011
11389TIP3    H155658   5.285   1.637   2.186 -0.0179 -0.2401  1.1553
11389TIP3    H255659   5.162   1.643   2.099  0.9784 -0.2967 -0.2697
11390TIP3   OH255660   0.436   1.412   0.391 -0.3547  0.4190  0.5135
11390TIP3    H155661   0.373   1.340   0.397  0.3752 -0.1785  1.1127
11390TIP3    H255662   0.386   1.490   0.416 -1.5768  0.3914 -1.7153
11391TIP3   OH255663   6.352   5.950   2.961  0.2271  0.3183 -0.9003
11391TIP3    H155664   6.411   5.878   2.984 -1.3142 -0.5329  0.5249
11391TIP3    H255665   6.267   5.908   2.946 -0.3157  1.6590 -1.6548
11392TIP3   OH255666   1.827   5.299   6.008  0.7251  0.4123 -0.0065
11392TIP3    H155667   1.781   5.358   5.948 -0.0042 -0.3020 -0.1572
11392TIP3    H255668   1.787   5.214   5.992  2.2836 -0.2662 -0.3214
11393TIP3   OH255669   4.639   2.732  12.341  0.2801 -0.6255 -0.1181
11393TIP3    H155670   4.647   2.821  12.308 -1.3343 -0.6383 -0.6240
11393TIP3    H255671   4.663   2.676  12.267  0.7066 -0.6070  0.0103
11394TIP3   OH255672   0.357   5.050  11.696  0.3732  0.8272 -0.5242
11394TIP3    H155673   0.280   5.015  11.653 -1.0885  1.5978  1.3971
11394TIP3    H255674   0.431   5.018  11.644 -1.2974  1.2876 -3.2369
11395TIP3   OH255675   5.700   5.614   3.436  0.6202  0.4793 -0.0686
11395TIP3    H155676   5.671   5.541   3.380  1.0661 -0.8387  1.3944
11395TIP3    H255677   5.674   5.692   3.388 -1.2112 -0.6499 -0.9842
11396TIP3   OH255678   0.682   6.582  15.012  0.2078  0.1463  0.0635
11396TIP3    H155679   0.685   6.555  14.920  0.3574 -0.4641  0.2441
11396TIP3    H255680   0.769   6.562  15.046  0.3995  1.0926  0.1452
11397TIP3   OH255681   4.539   2.214  13.874  0.1721 -0.4952  0.2133
11397TIP3    H155682   4.509   2.148  13.936 -0.0410  0.0603  0.7120
11397TIP3    H255683   4.629   2.189  13.852  0.0674 -0.9825  0.3472
11398TIP3   OH255684   0.284   0.716  12.910  0.1096  0.0057 -0.7420
11398TIP3    H155685   0.369   0.673  12.908  0.5049  0.7738 -0.8763
11398TIP3    H255686   0.257   0.714  13.002  2.5782  4.1390  0.1886
11399TIP3   OH255687   4.965   5.699  15.617  0.1282  0.2276  0.2313
11399TIP3    H155688   4.873   5.694  15.594  0.2629  1.2072 -0.5825
11399TIP3    H255689   4.995   5.608  15.616 -0.8769 -0.1134  0.7405
11400TIP3   OH255690   2.592   6.624  15.112 -0.2415 -0.1990  0.2390
11400TIP3    H155691   2.595   6.632  15.017 -0.8585  1.1893  0.3238
11400TIP3    H255692   2.540   6.699  15.141  0.8609  0.0052  1.7597
11401TIP3   OH255693   3.303   3.916   0.671  0.8490 -0.4278  1.0967
11401TIP3    H155694   3.354   3.839   0.697  0.9591 -1.1517 -1.1024
11401TIP3    H255695   3.218   3.881   0.645  1.2482  0.0238 -0.9211
11402TIP3   OH255696   0.437   4.905   1.075 -0.2204  0.3885  0.5135
11402TIP3    H155697   0.365   4.848   1.050  0.8616 -0.5339 -0.5864
11402TIP3    H255698   0.467   4.944   0.993  2.2203 -1.2859  0.5547
11403TIP3   OH255699   6.068   0.047   1.149  0.1214 -0.3619  0.4683
11403TIP3    H155700   6.060  -0.024   1.213  0.1469 -0.8924 -0.1153
11403TIP3    H255701   6.146   0.025   1.098  1.7423  1.5099  2.0479
11404TIP3   OH255702   1.236   1.352   3.964 -0.3198 -0.1003 -0.3186
11404TIP3    H155703   1.219   1.270   3.917 -0.2086  0.4942 -1.3896
11404TIP3    H255704   1.307   1.394   3.916 -0.2137  0.5262  0.3662
11405TIP3   OH255705   3.340   0.603  14.935 -0.2002 -0.1404 -0.1056
11405TIP3    H155706   3.259   0.636  14.974 -0.2590  1.4675 -1.5367
11405TIP3    H255707   3.342   0.510  14.959 -2.1437 -0.0531  0.4786
11406TIP3   OH255708   0.596   1.898   4.595  0.5063  0.0453  0.5492
11406TIP3    H155709   0.642   1.975   4.562 -0.6423  0.5156  0.0313
11406TIP3    H255710   0.535   1.932   4.660 -1.0606 -0.2333 -0.7471
11407TIP3   OH255711   1.803   2.074  11.981 -0.0701 -0.4317  0.0643
11407TIP3    H155712   1.867   2.041  11.918 -0.2629 -0.0072 -0.3589
11407TIP3    H255713   1.855   2.114  12.050  0.2234 -2.9739  1.3681
11408TIP3   OH255714   2.842   4.094   4.348 -0.1349 -0.7330 -0.9691
11408TIP3    H155715   2.831   4.158   4.419 -0.4057  1.7958 -3.2221
11408TIP3    H255716   2.932   4.062   4.360 -0.0649 -0.1117  0.3347
11409TIP3   OH255717   0.662   3.329   4.296  0.6166  0.1360 -0.8909
11409TIP3    H155718   0.738   3.332   4.355 -0.6372  1.6580  0.6736
11409TIP3    H255719   0.678   3.398   4.233 -0.7667  2.3270  1.0956
11410TIP3   OH255720   0.705   1.152  14.082 -0.1370  0.2294  0.5510
11410TIP3    H155721   0.689   1.065  14.045 -1.3519  0.5590  0.2931
11410TIP3    H255722   0.791   1.177  14.047 -0.0426 -0.6157  0.1629
11411TIP3   OH255723   4.311   2.976   6.315  0.3065  0.1224  0.6968
11411TIP3    H155724   4.336   2.953   6.405  0.8511  0.4558  0.6337
11411TIP3    H255725   4.316   3.072   6.313 -0.1937  0.1406  0.4528
11412TIP3   OH255726   6.607   2.540  14.720 -0.2289 -0.1611  0.4682
11412TIP3    H155727   6.686   2.593  14.731 -1.3405  1.0027  3.1038
11412TIP3    H255728   6.634   2.452  14.746  0.9550 -0.4187 -1.5226
11413TIP3   OH255729   5.222   1.997  12.274  0.1827 -0.5218 -0.1969
11413TIP3    H155730   5.135   1.996  12.234 -0.3419 -2.2277  0.9757
11413TIP3    H255731   5.275   1.942  12.216  0.6538  0.9627 -1.2222
11414TIP3   OH255732   1.176   0.697   4.389 -0.5078  0.2358  0.1785
11414TIP3    H155733   1.250   0.637   4.396  0.1144  1.1094  1.1527
11414TIP3    H255734   1.216   0.782   4.372 -1.4091  0.3111 -1.7858
11415TIP3   OH255735   2.591   3.084  12.797  0.3729  0.0094  0.3342
11415TIP3    H155736   2.591   3.034  12.879  3.5966 -2.7313 -1.2277
11415TIP3    H255737   2.521   3.045  12.745  0.1607 -0.1028  0.7029
11416TIP3   OH255738   1.613   5.378   1.056 -0.5954 -0.4355 -0.2690
11416TIP3    H155739   1.700   5.342   1.043 -0.2614  0.4421 -0.4910
11416TIP3    H255740   1.558   5.333   0.991  0.2527  0.9871 -2.0375
11417TIP3   OH255741   1.019   2.057  13.075  0.2459  0.5635 -0.2394
11417TIP3    H155742   1.083   2.060  13.147 -0.3904  3.6481  0.2734
11417TIP3    H255743   1.050   2.124  13.014 -0.4416 -0.5396 -1.8285
11418TIP3   OH255744   2.737   3.431  15.272  0.0003 -0.1343  0.3894
11418TIP3    H155745   2.822   3.388  15.276  0.3773  0.6560  1.0679
11418TIP3    H255746   2.755   3.522  15.295 -0.8712  0.2653 -0.4503
11419TIP3   OH255747   1.000   0.752  17.111 -0.5364  0.1078  0.3990
11419TIP3    H155748   0.935   0.786  17.050  0.4192  2.5999  0.7381
11419TIP3    H255749   0.972   0.785  17.197 -0.8711 -1.8887  1.1067
11420TIP3   OH255750   2.991   3.432  14.635 -0.4456 -0.0060 -0.2309
11420TIP3    H155751   3.087   3.435  14.638 -0.4959  1.1942  2.6245
11420TIP3    H255752   2.970   3.406  14.546  2.5502 -0.7460 -0.7759
11421TIP3   OH255753   4.006   4.536   3.124 -0.7272  0.3566 -0.4190
11421TIP3    H155754   3.961   4.500   3.049 -1.2127  0.4547 -0.1771
11421TIP3    H255755   4.098   4.541   3.097 -0.4590 -2.0554 -0.0676
11422TIP3   OH255756   5.922   3.162  11.908  0.1658  0.4354 -0.0493
11422TIP3    H155757   5.893   3.075  11.937 -1.6718  0.1346 -2.6616
11422TIP3    H255758   5.956   3.147  11.820  0.6073  2.2411 -0.1952
11423TIP3   OH255759   1.865   1.143   5.870 -0.0250  0.5224  0.2102
11423TIP3    H155760   1.900   1.174   5.953 -0.0646  0.9868  0.0532
11423TIP3    H255761   1.894   1.052   5.865  1.9204  1.1476 -0.3351
11424TIP3   OH255762   5.655   1.158  16.913  0.7320  0.6424  0.1687
11424TIP3    H155763   5.576   1.210  16.924  1.2272  1.2487  0.9632
11424TIP3    H255764   5.675   1.164  16.820  0.5505  1.5389  0.1790
11425TIP3   OH255765   2.104   2.132   2.069  0.3851  0.0930 -0.7363
11425TIP3    H155766   2.022   2.169   2.103  0.7223 -1.0091  1.3585
11425TIP3    H255767   2.081   2.043   2.044  0.3738  0.5853 -2.6117
11426TIP3   OH255768   3.987   3.080   3.819  0.1544  0.3944  0.0696
11426TIP3    H155769   4.049   3.047   3.754 -0.1643  0.8347 -0.4637
11426TIP3    H255770   3.906   3.031   3.802 -0.4249  1.7096 -0.9571
11427TIP3   OH255771   4.712   5.418  10.974 -0.6651 -0.3092  0.7037
11427TIP3    H155772   4.632   5.368  10.987 -0.3615 -0.3670  2.4744
11427TIP3    H255773   4.757   5.415  11.059  1.5224 -0.8110 -0.4380
11428TIP3   OH255774   6.490   4.127  12.891  0.5179  0.0895 -0.0864
11428TIP3    H155775   6.445   4.073  12.955 -0.1032 -1.0563 -1.4712
11428TIP3    H255776   6.427   4.196  12.868 -0.0351 -0.6907 -0.9655
11429TIP3   OH255777   1.404   3.204  12.772  0.3094 -0.4020  0.0187
11429TIP3    H155778   1.399   3.175  12.863  0.5077  0.9329  0.4708
11429TIP3    H255779   1.316   3.190  12.737 -0.5590  1.6630  1.2496
11430TIP3   OH255780   1.591   4.017   2.536 -0.3124 -0.6015  0.1075
11430TIP3    H155781   1.553   4.103   2.517  0.5992 -0.3905 -0.8224
11430TIP3    H255782   1.543   3.986   2.612 -1.0613  0.4764  0.0891
11431TIP3   OH255783   2.163   1.983  17.107 -0.0795 -0.4317  0.4934
11431TIP3    H155784   2.149   2.071  17.141  1.9377 -0.1260  0.5464
11431TIP3    H255785   2.181   1.995  17.014  4.0720 -0.4098  1.2312
11432TIP3   OH255786   6.414   5.533  14.474 -0.1154 -0.3004  0.3123
11432TIP3    H155787   6.506   5.542  14.499  0.2383 -1.7193 -0.4180
11432TIP3    H255788   6.374   5.616  14.499  1.4956  0.5611  0.0954
11433TIP3   OH255789   5.800   2.731   6.010  0.6295  0.1202  0.2231
11433TIP3    H155790   5.894   2.717   6.000  0.6800  1.7623 -2.0445
11433TIP3    H255791   5.787   2.745   6.103  2.7302  0.6002  0.4570
11434TIP3   OH255792   2.566   2.289  15.757  0.4347  0.0945 -1.0765
11434TIP3    H155793   2.554   2.330  15.672 -0.9156 -0.9731 -1.4301
11434TIP3    H255794   2.497   2.222  15.761  0.7528 -0.1561  0.6684
11435TIP3   OH255795   0.927   1.428  11.342  0.8421 -0.0477  0.4081
11435TIP3    H155796   0.970   1.431  11.256 -1.2333  1.5268 -0.6381
11435TIP3    H255797   0.872   1.507  11.344 -1.2051 -1.4445  2.0675
11436TIP3   OH255798   5.298   0.906  11.633 -0.7120  0.3288  0.0899
11436TIP3    H155799   5.215   0.948  11.611 -0.4511  2.0751  2.3544
11436TIP3    H255800   5.277   0.845  11.704 -0.5632 -1.3984 -1.2981
11437TIP3   OH255801   2.035   1.116   0.808  0.3127 -0.3090  0.1570
11437TIP3    H155802   2.121   1.156   0.814 -0.4689  1.4434 -0.0630
11437TIP3    H255803   1.975   1.188   0.790 -0.9164 -1.8199 -2.0863
11438TIP3   OH255804   3.537   6.442  14.894 -0.2077  0.1886 -0.4036
11438TIP3    H155805   3.496   6.476  14.973 -1.5996 -0.5714 -0.7743
11438TIP3    H255806   3.571   6.356  14.919  0.0654  0.2919 -0.4197
11439TIP3   OH255807   2.454   6.383  17.153 -0.0092 -0.1560  0.1414
11439TIP3    H155808   2.472   6.289  17.158  0.5192 -0.1007 -0.7489
11439TIP3    H255809   2.478   6.416  17.240 -0.9596 -0.9640  0.7360
11440TIP3   OH255810   0.589   4.741  16.563 -0.1073 -0.2387 -0.2826
11440TIP3    H155811   0.644   4.676  16.606  0.3045  0.2905 -0.0084
11440TIP3    H255812   0.503   4.698  16.556  0.6951 -1.6112 -2.0138
11441TIP3   OH255813   0.172   0.430   6.171 -0.1107 -0.0519  0.5228
11441TIP3    H155814   0.114   0.366   6.129  1.1460  0.7728 -2.5486
11441TIP3    H255815   0.129   0.514   6.157  1.6086  0.5232 -1.4634
11442TIP3   OH255816   1.444   6.740   2.457 -0.0830  0.4335  0.2634
11442TIP3    H155817   1.383   6.764   2.526 -0.1301 -0.1676  0.4275
11442TIP3    H255818   1.434   6.645   2.447 -1.2916  0.7335 -1.7224
11443TIP3   OH255819   1.357   2.393  10.999  0.0181 -0.0766  0.0698
11443TIP3    H155820   1.371   2.395  10.904  0.3832 -0.4421  0.1106
11443TIP3    H255821   1.381   2.481  11.028 -1.5925  0.5175 -0.3699
11444TIP3   OH255822   0.268   3.354  13.214  0.1011  0.2049  0.1689
11444TIP3    H155823   0.342   3.313  13.170  1.3946  0.4795  2.0138
11444TIP3    H255824   0.296   3.363  13.305 -2.3249  0.0509  0.9760
11445TIP3   OH255825   2.450   0.991   4.119  0.3113  0.3089  0.5008
11445TIP3    H155826   2.489   0.947   4.044 -0.1832  0.9727 -0.1521
11445TIP3    H255827   2.438   1.082   4.090 -1.1238  0.2583  0.9037
11446TIP3   OH255828   1.890   4.321   0.684 -0.6711 -0.6029  0.0993
11446TIP3    H155829   1.879   4.312   0.779 -2.2733  0.3700  0.0348
11446TIP3    H255830   1.874   4.413   0.667  4.2173  0.2477 -0.5917
11447TIP3   OH255831   3.522   3.505   1.015 -0.6255 -0.0799 -0.1751
11447TIP3    H155832   3.502   3.595   1.037  1.5451  0.6473 -1.0444
11447TIP3    H255833   3.463   3.484   0.943 -3.0948 -0.3113  1.8629
11448TIP3   OH255834   1.604   3.448  14.928  0.3695 -0.1122 -0.6871
11448TIP3    H155835   1.617   3.367  14.880  2.4876  0.1909 -0.6535
11448TIP3    H255836   1.663   3.442  15.003  0.4497  1.3938 -0.6003
11449TIP3   OH255837   5.764   6.208  15.856  0.0616 -0.0503  0.0733
11449TIP3    H155838   5.677   6.249  15.861  0.1441  0.1955 -0.4414
11449TIP3    H255839   5.749   6.116  15.878 -0.3031  0.0321  0.1688
11450TIP3   OH255840   5.987   2.169  12.574 -0.7355  0.3189  0.0044
11450TIP3    H155841   5.979   2.226  12.651 -1.0772 -1.1810  1.1026
11450TIP3    H255842   6.071   2.125  12.585 -0.5449  0.4907 -0.7536
11451TIP3   OH255843   0.902   2.000   2.413  0.4323  0.1979  0.3158
11451TIP3    H155844   0.992   2.005   2.446  0.8752  0.6046 -0.9399
11451TIP3    H255845   0.907   2.032   2.323 -0.8775 -0.2953  0.0533
11452TIP3   OH255846   4.324   5.810  11.504  0.2368  0.0241  0.1044
11452TIP3    H155847   4.330   5.865  11.426  0.5093 -0.5850 -0.3120
11452TIP3    H255848   4.295   5.725  11.470  0.8599 -0.3895  0.5931
11453TIP3   OH255849   3.010   2.919  12.020 -0.0866  0.3550  0.9650
11453TIP3    H155850   2.940   2.980  11.998 -0.5865 -0.5298  0.0770
11453TIP3    H255851   3.023   2.931  12.114 -2.1167 -0.1630  1.3514
11454TIP3   OH255852   2.579   0.350   4.734 -0.1687 -0.6852 -0.1172
11454TIP3    H155853   2.622   0.266   4.718 -1.5832 -1.5045  0.2446
11454TIP3    H255854   2.565   0.353   4.828 -1.8901 -0.9547 -0.3430
11455TIP3   OH255855   0.519   6.228  12.979  0.1175  0.5247 -0.3167
11455TIP3    H155856   0.530   6.238  12.885 -0.3081  1.9134 -0.2296
11455TIP3    H255857   0.471   6.306  13.007  1.5697  0.8988  1.2773
11456TIP3   OH255858   3.297   3.564   2.054  0.6858  0.4565 -0.2011
11456TIP3    H155859   3.306   3.472   2.078  0.7357  1.0011  1.9630
11456TIP3    H255860   3.370   3.608   2.098 -0.4467  1.8001  0.3944
11457TIP3   OH255861   4.176   4.170   5.937  0.3326 -0.3663  0.0137
11457TIP3    H155862   4.178   4.112   6.013  0.7928 -0.2023  0.1333
11457TIP3    H255863   4.126   4.246   5.966  1.0733 -0.0058  0.3829
11458TIP3   OH255864   3.921   4.685  14.158  0.1097  0.2330 -0.2562
11458TIP3    H155865   3.956   4.714  14.074  0.1683 -1.0660 -0.6842
11458TIP3    H255866   3.989   4.628  14.195  0.4905  1.5420  1.1112
11459TIP3   OH255867   0.021   6.695   5.234 -0.5329 -0.0937 -0.2185
11459TIP3    H155868   0.058   6.620   5.189  0.4039  0.6285 -0.6621
11459TIP3    H255869  -0.043   6.658   5.295  0.6689 -1.3304  0.3113
11460TIP3   OH255870   0.578   2.962  11.537 -0.9933  0.2374 -0.3087
11460TIP3    H155871   0.559   2.990  11.626 -1.0416  1.5222 -0.7109
11460TIP3    H255872   0.674   2.964  11.531 -0.9754 -0.2007 -0.1766
11461TIP3   OH255873   3.736   5.997  11.763  0.1074 -0.1499  0.5153
11461TIP3    H155874   3.814   5.975  11.814 -1.5869 -0.6069  3.0188
11461TIP3    H255875   3.708   6.081  11.798  0.0552  0.5134 -1.0988
11462TIP3   OH255876   1.348   2.203   1.071 -0.1209 -0.4231  0.2484
11462TIP3    H155877   1.297   2.204   1.152 -0.4521  0.0733  0.0334
11462TIP3    H255878   1.385   2.291   1.064  1.0057 -0.8620  0.5537
11463TIP3   OH255879   2.606   6.629   4.675 -0.5947 -0.0471 -0.0145
11463TIP3    H155880   2.541   6.660   4.737  0.9874 -0.2232  1.8025
11463TIP3    H255881   2.652   6.558   4.722  1.0251  0.2192 -1.1416
11464TIP3   OH255882   3.937   4.310  12.085  0.2154  0.1432 -0.5959
11464TIP3    H155883   4.017   4.356  12.109  0.0923 -0.0364  0.1895
11464TIP3    H255884   3.942   4.299  11.990  1.3865 -0.3431 -0.4864
11465TIP3   OH255885   0.864   2.256  14.601  0.0432 -0.1556 -0.2913
11465TIP3    H155886   0.924   2.327  14.581 -0.0101 -0.5205 -1.7728
11465TIP3    H255887   0.905   2.178  14.564 -0.1861 -0.8037  0.7968
11466TIP3   OH255888   4.729   2.159  14.361 -0.1258 -0.3345  0.3465
11466TIP3    H155889   4.741   2.064  14.353  0.1177 -0.3059  0.3504
11466TIP3    H255890   4.642   2.170  14.398  0.0930 -0.5805  0.9396
11467TIP3   OH255891   5.737   0.813   5.966  0.0318  0.3114  0.6597
11467TIP3    H155892   5.732   0.722   5.997  1.7316  0.2942  0.9458
11467TIP3    H255893   5.650   0.848   5.981 -1.1952 -1.7859 -1.0991
11468TIP3   OH255894   3.771   3.674  12.519 -1.1821 -0.3919  0.1425
11468TIP3    H155895   3.721   3.634  12.589  0.6922 -0.3716  1.5360
11468TIP3    H255896   3.848   3.711  12.562 -0.3356  0.2278 -1.8183
11469TIP3   OH255897   1.771   0.109   5.434 -0.7258 -0.1990 -0.0784
11469TIP3    H155898   1.830   0.074   5.501 -0.6070  0.9167  0.4135
11469TIP3    H255899   1.714   0.170   5.482 -0.0037  1.3499 -1.1501
11470TIP3   OH255900   2.519   4.198  13.351  0.2512  0.5023 -0.1583
11470TIP3    H155901   2.504   4.179  13.444 -0.3379 -1.2480 -0.6052
11470TIP3    H255902   2.432   4.212  13.315  0.3683 -0.3103 -0.7623
11471TIP3   OH255903   4.719   3.349  12.188 -0.5459  0.2116  0.0361
11471TIP3    H155904   4.642   3.308  12.228 -1.3024  1.3021 -0.2665
11471TIP3    H255905   4.706   3.338  12.094 -0.6952  1.0413 -0.0408
11472TIP3   OH255906   1.925   1.374  12.346 -0.1812  0.8350  0.6399
11472TIP3    H155907   1.956   1.304  12.403 -0.3636 -0.5231 -0.9157
11472TIP3    H255908   1.832   1.382  12.366 -0.3266  0.0978  0.2533
11473TIP3   OH255909   0.955   3.567   1.983  0.3233 -0.2842  0.6119
11473TIP3    H155910   0.914   3.493   2.027 -2.5184  1.1750  0.5033
11473TIP3    H255911   1.009   3.527   1.915 -0.7841 -2.2765  0.8759
11474TIP3   OH255912   2.644   6.362  11.061 -0.3098  0.5465  0.0460
11474TIP3    H155913   2.582   6.368  11.134 -0.8989  0.3356 -0.4351
11474TIP3    H255914   2.590   6.338  10.986  0.7190 -2.2341  0.1478
11475TIP3   OH255915   4.885   4.064  16.802  0.0968  0.1285  0.1889
11475TIP3    H155916   4.893   4.078  16.897 -0.2682 -0.4603  0.3046
11475TIP3    H255917   4.796   4.093  16.781 -1.0153 -2.8851  0.5869
11476TIP3   OH255918   0.165   0.813  14.304  0.2234  0.0997 -0.0077
11476TIP3    H155919   0.162   0.788  14.211  0.9240  0.8550 -0.2296
11476TIP3    H255920   0.215   0.894  14.306  1.2748 -0.5636  1.1809
11477TIP3   OH255921   4.124   0.237   2.755  0.0574  0.2609  0.3891
11477TIP3    H155922   4.064   0.163   2.769 -0.0832  0.3670  0.3400
11477TIP3    H255923   4.211   0.197   2.760  0.0171  0.3309  1.7824
11478TIP3   OH255924   6.139   6.704   4.558 -0.1329 -0.2227  0.0510
11478TIP3    H155925   6.082   6.634   4.589  0.4625 -1.0143 -0.6109
11478TIP3    H255926   6.170   6.747   4.638 -0.9185 -0.3731  0.4435
11479TIP3   OH255927   3.561   3.153   1.512  0.3810 -0.2965 -0.6379
11479TIP3    H155928   3.611   3.072   1.504  1.8426  0.5921 -0.7962
11479TIP3    H255929   3.574   3.180   1.603  1.2916  0.6196 -1.0258
11480TIP3   OH255930   3.189   5.161  13.297  0.5040 -0.2582 -0.6171
11480TIP3    H155931   3.215   5.150  13.205 -0.5555  0.7912 -1.0677
11480TIP3    H255932   3.116   5.100  13.309  0.3153 -0.0316 -0.6135
11481TIP3   OH255933   3.962   0.418  14.740  0.2141 -0.0609 -0.3376
11481TIP3    H155934   3.905   0.494  14.749 -1.5532 -1.2174 -1.5265
11481TIP3    H255935   3.999   0.426  14.652  1.2088  0.2219  0.1024
11482TIP3   OH255936   6.143   3.800  14.918  0.1178 -0.0399 -0.4413
11482TIP3    H155937   6.079   3.735  14.944  0.4408  0.4639  1.7126
11482TIP3    H255938   6.091   3.878  14.895 -0.2367 -0.8677 -2.5944
11483TIP3   OH255939   3.211   1.281  15.989 -0.5162  0.1719  0.2919
11483TIP3    H155940   3.176   1.192  15.980 -3.0495  1.3483 -2.2757
11483TIP3    H255941   3.295   1.269  16.033 -1.3734 -3.3658  1.1519
11484TIP3   OH255942   1.145   1.013   5.502  0.1948 -0.4123 -0.0604
11484TIP3    H155943   1.221   0.993   5.557 -0.5011 -1.5094  0.5160
11484TIP3    H255944   1.118   0.928   5.468 -0.4014  0.0586 -0.7613
11485TIP3   OH255945   5.998   5.240  14.589 -0.1980 -0.8820  0.3960
11485TIP3    H155946   6.083   5.274  14.561  0.9077 -1.2693  3.0875
11485TIP3    H255947   5.995   5.151  14.556  0.2716 -0.7332 -0.0501
11486TIP3   OH255948   5.846   0.798   3.329 -0.0917 -0.1245  0.3544
11486TIP3    H155949   5.819   0.794   3.421  0.4802  1.2818  0.5992
11486TIP3    H255950   5.941   0.790   3.331 -0.1742 -1.2249 -0.2060
11487TIP3   OH255951   0.532   2.137   1.304  0.6606 -0.7389 -0.3023
11487TIP3    H155952   0.556   2.221   1.266  0.4600 -0.7644 -0.4882
11487TIP3    H255953   0.439   2.126   1.281  0.0303  0.1089  1.7624
11488TIP3   OH255954   3.775   5.521   2.218  0.8275  0.0656  0.0639
11488TIP3    H155955   3.779   5.438   2.265  1.7631  0.5898  0.9252
11488TIP3    H255956   3.681   5.536   2.203  0.6167 -0.8024  0.5001
11489TIP3   OH255957   5.538   5.923   2.910 -0.1350  0.4353  0.2840
11489TIP3    H155958   5.561   5.843   2.956 -0.7412 -0.3067 -0.7030
11489TIP3    H255959   5.586   5.992   2.957  1.2353 -0.6284  0.4632
11490TIP3   OH255960   3.504   4.199  11.817 -0.5170  0.5585 -0.1989
11490TIP3    H155961   3.477   4.139  11.748 -2.1392  1.3593 -0.2894
11490TIP3    H255962   3.524   4.143  11.892 -0.7659 -0.1737 -0.6774
11491TIP3   OH255963   3.381   5.328   4.080 -0.3408  0.1518 -0.3916
11491TIP3    H155964   3.422   5.353   3.997  0.0562  0.1070 -0.2112
11491TIP3    H255965   3.439   5.364   4.147  1.0816 -2.5400 -0.1076
11492TIP3   OH255966   3.578   4.811  16.364  0.0403 -0.0088  0.0082
11492TIP3    H155967   3.633   4.887  16.345 -0.7261  0.4522 -0.3778
11492TIP3    H255968   3.602   4.785  16.453  0.6193  0.4079 -0.0208
11493TIP3   OH255969   1.597   4.826   4.291 -0.5427 -0.1203 -0.6039
11493TIP3    H155970   1.505   4.848   4.279 -0.2977  0.7159 -0.9247
11493TIP3    H255971   1.618   4.858   4.379 -0.6958 -0.8158 -0.3005
11494TIP3   OH255972   0.797   2.381   2.749  0.1025 -0.2126 -0.3981
11494TIP3    H155973   0.709   2.355   2.722 -0.2536 -2.2082  2.5493
11494TIP3    H255974   0.784   2.460   2.801 -0.2869 -1.8747  2.1329
11495TIP3   OH255975   3.459   6.320   1.468 -0.1848  0.2883 -0.6308
11495TIP3    H155976   3.545   6.297   1.434 -0.7516 -0.2439 -1.7008
11495TIP3    H255977   3.413   6.359   1.394 -1.4329 -0.9117 -0.5090
11496TIP3   OH255978   0.319   5.874  12.784 -0.8808 -0.4754 -0.1715
11496TIP3    H155979   0.327   5.790  12.737 -0.1273 -0.7934  0.5188
11496TIP3    H255980   0.409   5.903  12.795 -1.1783  0.8084 -1.0756
11497TIP3   OH255981   6.158   5.893   0.368 -0.3555  0.3629 -0.1724
11497TIP3    H155982   6.139   5.805   0.402 -3.0168  1.6809  1.9602
11497TIP3    H255983   6.119   5.893   0.281 -1.7679 -0.1007  0.4343
11498TIP3   OH255984   2.942   5.599  13.274  0.4526 -0.4489  0.0534
11498TIP3    H155985   3.015   5.652  13.308 -1.4884  2.9300 -0.8578
11498TIP3    H255986   2.979   5.555  13.197  1.7509  0.6851  0.0028
11499TIP3   OH255987   1.232   0.785   3.810  0.7177  0.3346  0.1827
11499TIP3    H155988   1.170   0.850   3.842 -0.7558 -1.3626  0.8786
11499TIP3    H255989   1.192   0.753   3.728  0.6577 -0.7356  0.6148
11500TIP3   OH255990   5.045   2.811   1.094  0.3052 -0.0833 -0.1848
11500TIP3    H155991   4.985   2.883   1.115  0.8770  0.6195 -0.9132
11500TIP3    H255992   5.009   2.735   1.140 -0.0764  0.7653  0.9252
11501TIP3   OH255993   1.840   4.340   4.369 -0.2371  0.0675  0.3873
11501TIP3    H155994   1.786   4.419   4.364 -0.7678 -0.4098 -1.8205
11501TIP3    H255995   1.926   4.368   4.337 -0.0080  0.0845  1.0004
11502TIP3   OH255996   4.152   1.236   2.374 -0.1319 -0.6419  0.3460
11502TIP3    H155997   4.168   1.296   2.447 -1.0839 -0.0992  0.1100
11502TIP3    H255998   4.203   1.274   2.301  1.2250 -1.4604  0.8560
11503TIP3   OH255999   4.657   0.198   0.791  0.6638  0.2446  0.1498
11503TIP3    H156000   4.676   0.104   0.789  1.6729  0.4479 -0.1581
11503TIP3    H256001   4.578   0.207   0.737 -0.1205 -0.5691  1.1457
11504TIP3   OH256002   3.999   0.432  14.448 -0.3359 -0.2183  0.0907
11504TIP3    H156003   3.959   0.510  14.409  0.1972  0.0934  0.1595
11504TIP3    H256004   4.037   0.385  14.374 -0.6723 -0.4252  0.0467
11505TIP3   OH256005   2.289   0.335  11.330 -0.0486 -0.1426  0.3662
11505TIP3    H156006   2.315   0.294  11.412  2.0526 -1.7052 -1.0325
11505TIP3    H256007   2.267   0.262  11.272  0.3000  0.8481 -1.0497
11506TIP3   OH256008   0.703   1.046  12.467  0.0518  0.0981 -0.2067
11506TIP3    H156009   0.742   0.972  12.420  0.1256  0.6313 -0.9997
11506TIP3    H256010   0.775   1.080  12.520  0.1411 -0.1117 -0.1899
11507TIP3   OH256011   3.071   6.269   1.586 -1.3970 -0.2073 -0.5178
11507TIP3    H156012   3.100   6.360   1.577 -0.3376 -0.3467  1.2547
11507TIP3    H256013   3.145   6.217   1.555 -1.4566 -0.4859 -0.1921
11508TIP3   OH256014   4.138   6.203   4.374  0.5121 -0.0790  0.4131
11508TIP3    H156015   4.134   6.130   4.312  0.5011 -0.1967  0.5517
11508TIP3    H256016   4.142   6.281   4.318 -0.1322 -0.1460  0.2613
11509TIP3   OH256017   3.422   0.809   3.116 -0.4692  0.2877  0.0763
11509TIP3    H156018   3.420   0.843   3.026  1.4224  0.1418 -0.0466
11509TIP3    H256019   3.513   0.782   3.129 -0.7375  0.2578  2.0253
11510TIP3   OH256020   5.121   3.886  16.393 -0.0883 -0.1612 -0.4053
11510TIP3    H156021   5.180   3.945  16.440 -0.9265  0.1535  0.2704
11510TIP3    H256022   5.103   3.930  16.311  0.3144 -0.0833 -0.4539
11511TIP3   OH256023   3.828   6.615  15.471  0.2330  0.0253  0.1300
11511TIP3    H156024   3.758   6.554  15.447  1.3060 -1.4095  0.5598
11511TIP3    H256025   3.794   6.701  15.448 -2.1858 -0.5063  1.5181
11512TIP3   OH256026   0.470   2.828  15.658  0.4152  0.0960 -0.4570
11512TIP3    H156027   0.520   2.750  15.681 -0.1623 -0.8491 -2.3184
11512TIP3    H256028   0.392   2.823  15.714 -0.4164 -1.5629 -1.6938
11513TIP3   OH256029   5.745   1.013   1.770 -0.4752 -0.0860  1.0125
11513TIP3    H156030   5.671   1.074   1.772 -0.4896 -0.0569  0.0845
11513TIP3    H256031   5.712   0.938   1.720  0.8721  0.9545 -1.5490
11514TIP3   OH256032   3.063   4.246  16.280  0.3087 -0.6015 -0.4303
11514TIP3    H156033   3.114   4.230  16.359  2.9270 -0.3125 -1.9750
11514TIP3    H256034   3.026   4.333  16.292 -0.2899 -1.0455  0.9646
11515TIP3   OH256035   4.481   4.602  11.311 -0.0233  0.0061 -0.4569
11515TIP3    H156036   4.527   4.589  11.228  1.8242 -0.2108  0.5737
11515TIP3    H256037   4.431   4.683  11.299 -0.6467 -0.6173 -2.1466
11516TIP3   OH256038   2.805   5.518   2.317  0.2715  0.1662 -0.5550
11516TIP3    H156039   2.741   5.491   2.252  1.1876  1.6631 -2.1477
11516TIP3    H256040   2.762   5.505   2.401 -1.5570 -0.2584 -1.5390
11517TIP3   OH256041   2.870   0.753   1.016 -0.4380 -0.1738  0.6865
11517TIP3    H156042   2.797   0.795   0.970 -1.0394 -1.7834  0.1413
11517TIP3    H256043   2.833   0.671   1.049  0.9527 -0.6826  0.9965
11518TIP3   OH256044   0.497   5.747   1.141 -0.6854  0.2210 -0.0486
11518TIP3    H156045   0.509   5.653   1.132 -1.9139  0.1359 -0.7998
11518TIP3    H256046   0.440   5.772   1.068 -1.0724  1.3981  0.6385
11519TIP3   OH256047   5.906   3.525   1.728 -0.0886  0.2329  0.3878
11519TIP3    H156048   5.968   3.579   1.777  2.2197 -1.1712 -0.8990
11519TIP3    H256049   5.959   3.479   1.663 -2.4234 -1.3155 -0.5248
11520TIP3   OH256050   6.568   2.898   0.846 -0.8861 -0.1977  0.5027
11520TIP3    H156051   6.547   2.957   0.773 -1.5628 -1.5987 -0.4442
11520TIP3    H256052   6.659   2.919   0.868 -1.1910  1.3782  0.3417
11521TIP3   OH256053   5.813   4.365   5.754 -0.7785 -0.4580 -0.2236
11521TIP3    H156054   5.782   4.283   5.793  0.9274 -0.8481  0.3431
11521TIP3    H256055   5.843   4.416   5.829  1.1000 -0.5920 -0.8560
11522TIP3   OH256056   4.504   0.897  16.291 -0.3451  0.0420 -0.1488
11522TIP3    H156057   4.530   0.815  16.248 -0.4109 -0.9673  1.6738
11522TIP3    H256058   4.525   0.883  16.383 -2.5348  1.1930  0.5561
11523TIP3   OH256059   1.012   0.135  12.293  0.0632 -0.1775  0.1512
11523TIP3    H156060   0.987   0.047  12.322 -1.3153 -0.4018 -1.6454
11523TIP3    H256061   0.993   0.191  12.368 -0.6125 -1.1896  0.7487
11524TIP3   OH256062   4.313   1.209   3.757 -0.0663  0.1811  0.0110
11524TIP3    H156063   4.346   1.276   3.817  0.5673  0.3518 -0.5129
11524TIP3    H256064   4.315   1.251   3.671  0.5432 -0.5725 -0.3567
11525TIP3   OH256065   0.095   0.338   4.609  0.0818  0.1230 -0.0409
11525TIP3    H156066   0.058   0.300   4.688 -0.9232  0.3444 -0.4019
11525TIP3    H256067   0.022   0.382   4.566  0.6418  0.1328 -1.0161
11526TIP3   OH256068   1.278   6.192  12.057  0.7387  0.4284 -0.8108
11526TIP3    H156069   1.198   6.140  12.044  1.0289 -0.6813  1.5241
11526TIP3    H256070   1.345   6.145  12.008  0.6325 -0.4674 -0.1099
11527TIP3   OH256071   0.503   1.664   4.431 -0.0907  0.1319 -0.0518
11527TIP3    H156072   0.539   1.742   4.473  0.2369  0.0196 -0.1279
11527TIP3    H256073   0.431   1.697   4.377  0.4430  0.4537 -0.5711
11528TIP3   OH256074   6.314   2.760   1.978  0.1289  0.3224 -0.0174
11528TIP3    H156075   6.328   2.759   2.073 -2.0117  0.9777  0.3464
11528TIP3    H256076   6.232   2.712   1.965 -0.4104  1.5337 -1.3619
11529TIP3   OH256077   0.232   3.197  16.671  0.2333 -0.0825 -0.1349
11529TIP3    H156078   0.200   3.258  16.738 -0.8015 -0.4018 -0.3248
11529TIP3    H256079   0.322   3.177  16.698  0.5333  1.4226 -0.0080
11530TIP3   OH256080   1.592   3.867   2.312 -0.5807 -0.2159 -0.2216
11530TIP3    H156081   1.637   3.799   2.361 -0.9481 -1.3227 -1.4048
11530TIP3    H256082   1.601   3.946   2.366  1.0183 -0.8804  0.4997
11531TIP3   OH256083   0.783   5.282  12.066  0.0680 -0.2057 -0.5911
11531TIP3    H156084   0.820   5.194  12.077 -1.5322 -0.7087  0.9558
11531TIP3    H256085   0.699   5.279  12.111 -0.1317  2.0686 -0.7384
11532TIP3   OH256086   0.920   4.983   3.695  0.1468 -0.3690  0.3200
11532TIP3    H156087   0.837   4.993   3.742 -0.0147 -0.6689  0.0937
11532TIP3    H256088   0.926   5.061   3.640 -0.1546 -0.5273  0.0665
11533TIP3   OH256089   4.810   0.549  16.727 -0.0376  0.5315  0.3722
11533TIP3    H156090   4.740   0.539  16.663  0.8939  0.4289 -0.6578
11533TIP3    H256091   4.776   0.612  16.791 -1.4267 -0.2622  0.4373
11534TIP3   OH256092   3.060   2.963  11.228  0.3633 -0.3531 -0.0483
11534TIP3    H156093   2.970   2.995  11.220  0.8025  0.8222 -0.3978
11534TIP3    H256094   3.073   2.953  11.323  0.3284  0.8150  0.0798
11535TIP3   OH256095   2.232   6.727   0.736  0.1217 -0.5428 -0.0919
11535TIP3    H156096   2.235   6.649   0.792  0.0808 -1.9012 -1.9475
11535TIP3    H256097   2.166   6.707   0.669 -1.3415  1.8811  0.5277
11536TIP3   OH256098   0.144   4.368  15.130  0.0031  0.0333  0.0663
11536TIP3    H156099   0.154   4.463  15.120  0.5852  0.3026  2.8873
11536TIP3    H256100   0.051   4.356  15.153 -0.2790 -0.1925 -1.1246
11537TIP3   OH256101   4.676   0.920  14.323  0.6498 -0.2046 -0.1121
11537TIP3    H156102   4.655   0.973  14.246  0.8403 -0.3181 -0.2430
11537TIP3    H256103   4.594   0.874  14.343  0.1056  1.1582  0.8163
11538TIP3   OH256104   1.466   2.609   2.562  0.2895 -0.2696 -0.3356
11538TIP3    H156105   1.417   2.557   2.626  0.0302 -0.2198 -0.4941
11538TIP3    H256106   1.558   2.583   2.575  0.6609  2.0196  2.2486
11539TIP3   OH256107   0.500   6.544  14.576  0.4228  0.0179 -0.5821
11539TIP3    H156108   0.479   6.635  14.601 -0.0250 -0.5006  1.0239
11539TIP3    H256109   0.428   6.518  14.519  0.4589  0.6192 -0.9073
11540TIP3   OH256110   3.366   0.077   4.352  0.0896 -0.4652  0.3602
11540TIP3    H156111   3.300   0.055   4.419  0.0736 -1.8326 -0.0869
11540TIP3    H256112   3.446   0.035   4.383  0.0894 -1.0821 -0.4558
11541TIP3   OH256113   5.508   0.183   0.179 -0.3471  0.0113  0.2836
11541TIP3    H156114   5.476   0.135   0.103 -1.8010  2.1500 -0.5075
11541TIP3    H256115   5.570   0.123   0.221 -2.0857 -2.5251 -0.6357
11542TIP3   OH256116   3.364   2.915  14.062  0.1260 -0.1996  0.0748
11542TIP3    H156117   3.442   2.900  14.008  1.5548  0.8521  1.7997
11542TIP3    H256118   3.332   3.001  14.035 -0.8068 -0.8767 -1.0401
11543TIP3   OH256119   4.812   1.135   1.994 -0.2561  0.1072  0.4174
11543TIP3    H156120   4.828   1.215   1.945  0.7325 -1.0577 -1.2482
11543TIP3    H256121   4.893   1.121   2.043  0.1490 -0.6424 -0.4497
11544TIP3   OH256122   4.809   0.719   4.268 -0.0757  0.2677 -0.5063
11544TIP3    H156123   4.781   0.742   4.357 -1.7541 -0.1719 -0.8884
11544TIP3    H256124   4.733   0.674   4.230  1.4943 -1.8094 -1.3112
11545TIP3   OH256125   4.659   4.940  13.657  0.4312 -0.4540  0.2429
11545TIP3    H156126   4.742   4.966  13.697  2.4465 -0.8978 -3.4521
11545TIP3    H256127   4.638   5.011  13.597 -2.0538 -0.2116  1.3394
11546TIP3   OH256128   6.006   4.728  14.664  0.4168 -0.2428 -0.3069
11546TIP3    H156129   6.055   4.667  14.608 -0.0454 -0.6502 -0.2716
11546TIP3    H256130   6.029   4.815  14.631 -0.3128 -0.4945 -1.5088
11547TIP3   OH256131   4.636   6.487   4.802 -0.3469 -0.1717  0.1392
11547TIP3    H156132   4.703   6.423   4.825  0.1089  0.0062 -0.6352
11547TIP3    H256133   4.554   6.438   4.803 -0.3648 -0.1303  2.2029
11548TIP3   OH256134   6.427   3.993  13.950  0.3707  0.2424  0.0869
11548TIP3    H156135   6.448   3.949  14.032  0.8503  1.1794  0.4883
11548TIP3    H256136   6.503   3.978  13.894 -0.0392 -0.5586 -0.2590
11549TIP3   OH256137   1.774   3.559  14.304  0.3887  0.6076 -0.4200
11549TIP3    H156138   1.856   3.533  14.263  0.9969  0.9231  0.5559
11549TIP3    H256139   1.737   3.624  14.244  0.6892  0.2157 -1.0352
11550TIP3   OH256140   5.240   6.557  15.980  0.5942 -0.6127 -0.6528
11550TIP3    H156141   5.238   6.468  15.943  1.0095 -1.0585  0.3606
11550TIP3    H256142   5.289   6.547  16.062 -0.9555  0.1989  0.3888
11551TIP3   OH256143   0.975   5.847  15.282  0.1211 -0.6861  0.2585
11551TIP3    H156144   0.997   5.754  15.286 -0.2534 -0.7542  0.7156
11551TIP3    H256145   0.922   5.856  15.203 -0.7020 -1.0387  0.7667
11552TIP3   OH256146   5.077   4.092  15.348 -0.1746 -0.1002 -0.3611
11552TIP3    H156147   5.087   4.020  15.286  1.1858 -0.5573  0.3804
11552TIP3    H256148   4.984   4.115  15.343 -0.6659 -2.0683 -0.4163
11553TIP3   OH256149   5.247   5.150  15.524  0.4835 -0.0333  0.5408
11553TIP3    H156150   5.299   5.220  15.482  1.5259 -1.1285 -0.0417
11553TIP3    H256151   5.296   5.130  15.604  0.4094 -0.3774  0.4957
11554TIP3   OH256152   5.578   5.223   1.529 -0.1543 -0.3981  0.3122
11554TIP3    H156153   5.540   5.300   1.487 -0.0602 -0.7427 -0.4110
11554TIP3    H256154   5.525   5.209   1.607 -1.9512 -1.2801 -1.0375
11555TIP3   OH256155   2.256   1.158   3.643 -0.2194  0.5869  0.2076
11555TIP3    H156156   2.321   1.109   3.593  0.1003  0.7068  0.5081
11555TIP3    H256157   2.184   1.096   3.655 -0.9063  0.9888 -1.6148
11556TIP3   OH256158   1.512   5.609   0.919  0.0137  0.2097 -0.6414
11556TIP3    H156159   1.485   5.544   0.984  1.2454  0.2168 -0.1200
11556TIP3    H256160   1.599   5.581   0.891 -0.5387  0.1437 -2.3762
11557TIP3   OH256161   3.786   6.703   4.430 -0.1584 -0.0185  0.0563
11557TIP3    H156162   3.852   6.708   4.499 -0.8292  0.6081  0.6623
11557TIP3    H256163   3.715   6.758   4.462 -0.9658 -0.6794 -0.6013
11558TIP3   OH256164   4.554   2.811  12.942 -0.2875 -0.6130  0.2897
11558TIP3    H156165   4.630   2.861  12.911 -0.3752  0.1114  1.2239
11558TIP3    H256166   4.479   2.867  12.921 -0.6346 -1.5824 -1.1656
11559TIP3   OH256167   2.923   4.728  15.328  0.0769 -0.2519  0.3077
11559TIP3    H156168   2.885   4.760  15.410 -0.4420  0.9130 -0.3708
11559TIP3    H256169   2.973   4.651  15.354  0.0939  0.2152  1.7498
11560TIP3   OH256170   2.194   1.897   1.840 -0.3834  0.7685  0.3364
11560TIP3    H156171   2.237   1.974   1.878  2.0468 -0.8730  1.0312
11560TIP3    H256172   2.139   1.864   1.910  1.0381  0.0463  1.1327
11561TIP3   OH256173   5.680   2.267  16.461  0.3077  0.3355 -0.3058
11561TIP3    H156174   5.701   2.243  16.371  0.7347 -0.0428 -0.1088
11561TIP3    H256175   5.587   2.249  16.470  0.2412  0.4841 -0.7051
11562TIP3   OH256176   4.732   6.086   2.424 -0.1986  0.0914  0.3152
11562TIP3    H156177   4.808   6.070   2.368  0.4560 -0.5708  1.3732
11562TIP3    H256178   4.687   6.159   2.383  0.9074  0.3667 -0.4316
11563TIP3   OH256179   1.411   3.070   0.954  0.5316  0.0152  0.3314
11563TIP3    H156180   1.437   3.018   1.031  1.4950 -1.0437 -0.6955
11563TIP3    H256181   1.333   3.026   0.920 -1.8482  2.3350  2.5378
11564TIP3   OH256182   0.868   5.964   4.367 -0.0323 -0.0462  0.4925
11564TIP3    H156183   0.798   5.904   4.342  0.5697 -0.4875 -0.1582
11564TIP3    H256184   0.850   5.985   4.458 -1.0297 -0.1324  0.3242
11565TIP3   OH256185   5.789   5.529  12.779  0.6715 -0.3469 -0.7864
11565TIP3    H156186   5.833   5.493  12.856  0.8564 -1.5654 -1.4495
11565TIP3    H256187   5.697   5.536  12.805  0.4884 -2.0540 -0.8889
11566TIP3   OH256188   2.921   0.474  11.854 -0.3008  0.3239 -0.1527
11566TIP3    H156189   2.967   0.551  11.822  0.6978 -0.0247  0.4259
11566TIP3    H256190   2.868   0.507  11.927 -0.7020  0.6598 -0.5919
11567TIP3   OH256191   5.147   3.783  11.691 -0.5550 -0.2315  0.5314
11567TIP3    H156192   5.208   3.856  11.678  1.2456 -2.0908 -1.8200
11567TIP3    H256193   5.160   3.758  11.783  1.7356 -0.1394  0.2720
11568TIP3   OH256194   0.605   1.100   4.317  0.3029  0.3159 -0.2560
11568TIP3    H156195   0.628   1.174   4.261  0.9469 -0.1282 -0.5681
11568TIP3    H256196   0.524   1.066   4.279 -0.1130  0.9849  0.0099
11569TIP3   OH256197   1.236   3.174  15.857 -0.3297 -0.0863 -0.3919
11569TIP3    H156198   1.269   3.088  15.884 -1.7780 -0.8807 -1.0997
11569TIP3    H256199   1.302   3.208  15.796 -0.3679 -1.2688 -1.1030
11570TIP3   OH256200   6.428   5.193  13.646  0.1718  0.6637  0.6138
11570TIP3    H156201   6.435   5.137  13.723 -0.5245  0.5742  0.6177
11570TIP3    H256202   6.337   5.223  13.646 -0.6588 -1.6471 -1.7638
11571TIP3   OH256203   6.381   3.310  12.661  0.0690  0.0324 -0.0002
11571TIP3    H156204   6.329   3.251  12.606 -0.4711 -0.4156  0.9752
11571TIP3    H256205   6.470   3.301  12.628 -0.1182 -0.8495 -0.2787
11572TIP3   OH256206   3.302   1.573  16.244 -0.2471  0.5112  0.2798
11572TIP3    H156207   3.243   1.605  16.311  1.3647 -0.1769  2.0711
11572TIP3    H256208   3.306   1.478  16.258 -0.2302  0.2917 -1.0757
11573TIP3   OH256209   4.666   6.437  11.579  0.4706  0.1032  0.2147
11573TIP3    H156210   4.695   6.521  11.615 -1.3505  0.4554  0.9674
11573TIP3    H256211   4.595   6.461  11.519  2.1261 -0.6565 -2.1156
11574TIP3   OH256212   0.907   6.725   5.658 -0.0640  0.1910 -0.1414
11574TIP3    H156213   0.834   6.760   5.607  0.8124  0.4425 -1.2490
11574TIP3    H256214   0.985   6.744   5.605  1.2950  3.6713  2.9529
11575TIP3   OH256215   1.436   3.435   1.936 -0.1592 -0.3844 -0.2718
11575TIP3    H156216   1.529   3.429   1.914  0.5481  0.3396  2.4183
11575TIP3    H256217   1.424   3.373   2.008 -1.9283 -0.9586 -1.0197
11576TIP3   OH256218   5.342   3.001  13.562  0.4692 -0.0217 -0.6287
11576TIP3    H156219   5.408   2.985  13.494  0.4292 -2.7955 -0.0914
11576TIP3    H256220   5.259   3.001  13.514  0.5996  0.0896 -0.8592
11577TIP3   OH256221   3.651   3.786  15.845 -0.2475  0.7436  0.0601
11577TIP3    H156222   3.606   3.715  15.891 -1.9779  1.2341 -0.8319
11577TIP3    H256223   3.653   3.858  15.909 -4.2213  2.0295 -1.0888
11578TIP3   OH256224   3.063   0.042   3.402 -0.0115  0.5589 -0.2989
11578TIP3    H156225   3.095   0.006   3.485  0.2126 -1.5793 -1.2637
11578TIP3    H256226   3.058   0.136   3.416  0.9598  0.3120  1.8214
11579TIP3   OH256227   3.746   3.377   1.081 -0.1901 -0.7771  0.3506
11579TIP3    H156228   3.660   3.419   1.083  0.8952  1.6129 -0.8536
11579TIP3    H256229   3.727   3.284   1.067 -2.5370 -0.1009 -1.2257
11580TIP3   OH256230   5.947   2.814  14.576  0.3346  0.0261  0.0102
11580TIP3    H156231   5.932   2.880  14.643  1.7813 -1.1950  1.5594
11580TIP3    H256232   5.943   2.863  14.493  1.8700  2.1580  1.1500
11581TIP3   OH256233   3.677   5.298   0.693  0.0626 -0.0028  0.2986
11581TIP3    H156234   3.686   5.328   0.784 -0.6225  0.0163  0.3622
11581TIP3    H256235   3.760   5.320   0.652  1.0124 -1.4775  1.3526
11582TIP3   OH256236   6.145   6.102  11.526  0.4780 -0.1095  0.6507
11582TIP3    H156237   6.066   6.050  11.529 -0.2971  1.0115  0.0655
11582TIP3    H256238   6.134   6.167  11.596  0.8804  0.0516  0.5702
11583TIP3   OH256239   6.773   4.874   1.249 -0.7567  0.1622 -0.3370
11583TIP3    H156240   6.713   4.805   1.221 -1.7915  1.5154 -1.4471
11583TIP3    H256241   6.809   4.841   1.332 -1.5287 -1.5304 -0.6470
11584TIP3   OH256242   2.746   5.692  16.503  0.1358  0.5360 -0.0713
11584TIP3    H156243   2.818   5.644  16.462 -1.4102 -1.2697 -0.7505
11584TIP3    H256244   2.781   5.719  16.588  1.3118 -1.1721  0.0206
11585TIP3   OH256245   0.574   4.288   3.230  0.3128  0.0754  0.0880
11585TIP3    H156246   0.488   4.287   3.273  0.1952  1.0379 -0.1042
11585TIP3    H256247   0.577   4.206   3.181  0.3825 -0.9640  1.8052
11586TIP3   OH256248   4.891   4.496  15.675 -0.1912 -0.0407 -0.7721
11586TIP3    H156249   4.952   4.487  15.602  0.2879  1.5912 -0.5797
11586TIP3    H256250   4.842   4.576  15.656  0.8791  1.1664  1.3867
11587TIP3   OH256251   3.736   2.252  15.541  0.0066 -0.0709  0.2426
11587TIP3    H156252   3.763   2.222  15.628  2.1412  2.2431  0.4409
11587TIP3    H256253   3.641   2.250  15.543  0.0468 -1.4963  2.1075
11588TIP3   OH256254   3.360   3.925   0.273  0.4298  0.1806  0.2062
11588TIP3    H156255   3.379   4.002   0.218  0.2958 -0.1602 -0.3209
11588TIP3    H256256   3.445   3.904   0.313  0.2835  1.1192  1.0261
11589TIP3   OH256257   4.124   6.805  16.890  0.1366 -0.1609 -0.1456
11589TIP3    H156258   4.170   6.743  16.947 -1.6580 -0.6223  0.8456
11589TIP3    H256259   4.131   6.767  16.803  0.7626 -0.7231  0.1420
11590TIP3   OH256260   4.883   3.363   2.933  0.1036  0.3558 -0.6228
11590TIP3    H156261   4.807   3.402   2.891 -2.3160 -1.7274  1.7089
11590TIP3    H256262   4.901   3.419   3.008  0.1886  0.1798 -0.5114
11591TIP3   OH256263   0.148   1.437  14.531 -0.4596 -0.1365 -0.5003
11591TIP3    H156264   0.121   1.348  14.507  0.2770 -0.0714 -1.5901
11591TIP3    H256265   0.132   1.489  14.453  2.4938 -0.0383 -1.0787
11592TIP3   OH256266   4.585   6.776  16.507  0.1175  0.1515 -0.3917
11592TIP3    H156267   4.536   6.719  16.448 -0.6057  1.2380 -0.8505
11592TIP3    H256268   4.670   6.789  16.464  0.5085 -1.0262 -0.0092
11593TIP3   OH256269   4.005   1.591   6.005 -0.6710 -0.3040  0.1758
11593TIP3    H156270   4.026   1.500   6.025  0.2656  0.4908  3.2612
11593TIP3    H256271   4.089   1.637   6.015 -1.1806  0.9369 -1.1133
11594TIP3   OH256272   2.933   2.096  16.707  0.3361 -0.4837 -0.3953
11594TIP3    H156273   2.983   2.049  16.773  0.1585  1.3901  1.1339
11594TIP3    H256274   2.853   2.044  16.696  1.2168 -1.8246 -0.5537
11595TIP3   OH256275   3.740   0.091  11.093  0.4773  0.7843  0.2243
11595TIP3    H156276   3.686   0.065  11.018  3.1686 -1.1573 -1.0959
11595TIP3    H256277   3.697   0.051  11.169 -1.1501  1.1072 -0.5059
11596TIP3   OH256278   3.350   3.409   0.153  0.2954  0.3829 -0.4556
11596TIP3    H156279   3.273   3.382   0.102 -0.1416  1.4489 -0.3826
11596TIP3    H256280   3.424   3.370   0.107 -0.0535  1.7586 -2.2439
11597TIP3   OH256281   6.517   1.801  11.120 -1.0738 -0.3691 -0.0888
11597TIP3    H156282   6.460   1.848  11.060 -1.0018 -1.4325 -1.0109
11597TIP3    H256283   6.492   1.709  11.111 -0.1431 -0.6946  0.5068
11598TIP3   OH256284   5.207   6.617   2.804 -0.7587 -0.3387  0.5049
11598TIP3    H156285   5.272   6.566   2.755 -0.6413  1.3245 -1.1114
11598TIP3    H256286   5.259   6.666   2.868 -0.4494  0.6093 -0.4547
11599TIP3   OH256287   6.205   1.671  15.194  0.6482  0.2816  0.0022
11599TIP3    H156288   6.165   1.745  15.147  0.0718  0.1193  0.2276
11599TIP3    H256289   6.191   1.596  15.136 -0.3217  0.0279  0.5594
11600TIP3   OH256290   1.069   6.084  14.573  0.1629  0.0427 -0.1003
11600TIP3    H156291   1.134   6.142  14.612  0.3765 -0.6996  0.6877
11600TIP3    H256292   1.070   6.104  14.480  1.2994  0.2622 -0.0409
11601TIP3   OH256293   1.897   5.190  11.855 -0.0918 -0.1231  0.0302
11601TIP3    H156294   1.839   5.205  11.930  1.5689  0.2191  1.2918
11601TIP3    H256295   1.923   5.278  11.828 -0.8471 -0.2403 -1.0847
11602TIP3   OH256296   6.464   3.335   1.706  0.1020  0.0572  0.1212
11602TIP3    H156297   6.383   3.308   1.748  0.1331  1.2952  1.0149
11602TIP3    H256298   6.525   3.263   1.722  0.0515  0.4077  2.0532
11603TIP3   OH256299   3.784   3.576   1.455 -0.0712  0.3853  0.4274
11603TIP3    H156300   3.716   3.553   1.519 -0.2982 -1.8808 -0.5605
11603TIP3    H256301   3.860   3.599   1.508 -0.5860 -0.3985  1.5368
11604TIP3   OH256302   4.997   0.284  13.367 -0.1886 -0.6669 -0.0685
11604TIP3    H156303   5.074   0.342  13.370  1.1942 -2.4381 -0.3522
11604TIP3    H256304   4.942   0.315  13.438  0.6354  0.8501 -0.0549
11605TIP3   OH256305   1.659   0.924  13.038  0.4170  0.0674 -0.0617
11605TIP3    H156306   1.735   0.953  13.088  0.4155 -1.0082  0.5805
11605TIP3    H256307   1.601   0.883  13.103 -1.3645  2.0953 -0.2934
11606TIP3   OH256308   2.586   5.289  12.391 -0.4469 -0.5960  0.3300
11606TIP3    H156309   2.595   5.197  12.365 -0.8066 -0.0348 -1.9019
11606TIP3    H256310   2.650   5.335  12.337  0.7118  0.3380  2.4208
11607TIP3   OH256311   4.244   6.270  14.999  0.6754  0.3618 -0.1882
11607TIP3    H156312   4.224   6.321  15.078  1.4590  0.9328 -0.3546
11607TIP3    H256313   4.269   6.335  14.934  0.4852 -0.1479 -0.7782
11608TIP3   OH256314   5.700   2.516  12.091  0.3093  0.1885  0.0059
11608TIP3    H156315   5.765   2.567  12.043  0.6676 -0.2069  0.0718
11608TIP3    H256316   5.645   2.581  12.133 -2.3269  0.6908 -3.9160
11609TIP3   OH256317   5.033   3.864  13.330 -0.0579  0.5630 -0.1956
11609TIP3    H156318   5.041   3.904  13.417 -1.0992 -0.5534  0.4308
11609TIP3    H256319   4.986   3.929  13.278 -0.7489  0.6177  0.4907
11610TIP3   OH256320   1.980   3.760  14.420  0.4754  0.2752  0.0520
11610TIP3    H156321   1.913   3.771  14.352  0.9595 -1.5991 -0.7438
11610TIP3    H256322   2.063   3.762  14.373  0.8897  0.6502  0.7999
11611TIP3   OH256323   3.767   0.691   1.778  0.1291 -0.5726 -0.0227
11611TIP3    H156324   3.844   0.747   1.786 -0.0665 -0.2611 -0.2877
11611TIP3    H256325   3.750   0.687   1.684 -0.8332  0.2546  0.1079
11612TIP3   OH256326   3.515   0.197  15.629  0.1497 -0.0654 -0.4516
11612TIP3    H156327   3.563   0.199  15.712 -0.7816 -0.9518  0.1274
11612TIP3    H256328   3.510   0.104  15.607  1.6704  0.2641 -2.2623
11613TIP3   OH256329   5.007   6.368   5.574  0.5305  0.5223  0.0315
11613TIP3    H156330   5.078   6.403   5.628  3.4880  0.1375 -3.4551
11613TIP3    H256331   4.985   6.284   5.615  0.7881  1.4893  2.2141
11614TIP3   OH256332   6.154   1.658   3.311  0.3040 -0.0349 -0.3094
11614TIP3    H156333   6.069   1.666   3.268 -0.5661 -2.4844  0.8764
11614TIP3    H256334   6.142   1.703   3.395  0.2046 -0.3195 -0.1716
11615TIP3   OH256335   5.962   4.120   0.975 -0.4026 -0.4730  0.8184
11615TIP3    H156336   5.886   4.069   1.004 -0.7962 -0.7805 -0.7269
11615TIP3    H256337   6.025   4.055   0.945 -0.4997 -0.1033 -0.1928
11616TIP3   OH256338   4.572   6.003  15.570 -0.2229 -0.1311 -0.1779
11616TIP3    H156339   4.580   5.978  15.478 -1.0341  1.0099 -0.5717
11616TIP3    H256340   4.662   6.016  15.600  0.0366 -0.3949 -0.8340
11617TIP3   OH256341   1.489   5.154   4.058  0.5247  0.5841 -0.1037
11617TIP3    H156342   1.455   5.168   4.147  2.6824 -0.6339  0.9444
11617TIP3    H256343   1.530   5.237   4.035 -0.4403  1.0573 -0.1661
11618TIP3   OH256344   4.198   0.443  13.618  0.8874  0.1032 -0.4110
11618TIP3    H156345   4.125   0.465  13.560  0.6108  0.2343 -0.0200
11618TIP3    H256346   4.269   0.417  13.560  1.7383  3.5075 -0.9937
11619TIP3   OH256347   5.018   5.068  11.923 -0.3107  0.5635 -0.7707
11619TIP3    H156348   4.969   4.992  11.955  0.0306  0.0337 -1.5143
11619TIP3    H256349   4.953   5.120  11.876 -0.9136  1.5555  1.1108
11620TIP3   OH256350   2.198   5.767  10.570 -0.2038  0.5165  0.3765
11620TIP3    H156351   2.137   5.699  10.540 -0.3462  1.3142 -1.2099
11620TIP3    H256352   2.195   5.834  10.501  1.0916  1.4179  1.1714
11621TIP3   OH256353   5.104   0.361  14.199 -0.3992  0.6053  0.1252
11621TIP3    H156354   5.058   0.369  14.283  1.9852  0.5010  1.4998
11621TIP3    H256355   5.126   0.268  14.193 -1.5627  0.4014 -1.1952
11622TIP3   OH256356   4.954   2.653   2.782 -0.4747 -0.3683 -0.0619
11622TIP3    H156357   5.028   2.671   2.724  0.8890 -1.5191  1.2573
11622TIP3    H256358   4.987   2.585   2.841 -2.0119  0.3821  1.6909
11623TIP3   OH256359   6.575   3.865  13.324 -1.0032 -0.1220  0.1107
11623TIP3    H156360   6.523   3.898  13.398  2.0737 -2.6917  3.6505
11623TIP3    H256361   6.549   3.773  13.316  0.2053 -0.4000 -0.6173
11624TIP3   OH256362   6.637   1.931  12.315 -0.2092  0.2557  0.0584
11624TIP3    H156363   6.614   2.023  12.310 -0.9297 -0.0127 -2.3605
11624TIP3    H256364   6.727   1.927  12.284 -0.1293  0.1789  0.3034
11625TIP3   OH256365   4.334   1.111  11.851 -1.1338  0.1796  0.3291
11625TIP3    H156366   4.255   1.165  11.842 -1.3638  0.0019  1.2556
11625TIP3    H256367   4.385   1.153  11.920 -0.2877  0.4359 -0.4365
11626TIP3   OH256368   0.410   4.296  15.192 -0.5381 -0.4224 -0.0692
11626TIP3    H156369   0.326   4.334  15.165 -0.8301 -1.4946 -0.6836
11626TIP3    H256370   0.472   4.368  15.182 -1.5588  0.6992  1.4143
11627TIP3   OH256371   2.658   6.306   3.381 -0.4074 -0.1315 -0.0892
11627TIP3    H156372   2.690   6.219   3.408 -0.1952 -0.9276 -2.7641
11627TIP3    H256373   2.609   6.338   3.457  0.2505 -2.2235  1.2622
11628TIP3   OH256374   4.343   3.093  16.798  0.1990 -0.3223 -0.1988
11628TIP3    H156375   4.317   3.129  16.884 -2.3033  0.3915 -1.2086
11628TIP3    H256376   4.437   3.110  16.793  0.3130 -0.0120  2.2481
11629TIP3   OH256377   4.806   2.475  13.222  0.1314 -0.1755 -0.0635
11629TIP3    H156378   4.717   2.440  13.230 -0.4106  0.6442 -2.0629
11629TIP3    H256379   4.831   2.455  13.132  1.5969  0.4911  0.1815
11630TIP3   OH256380   5.599   1.184   2.440 -0.1247  0.0491  0.1060
11630TIP3    H156381   5.652   1.158   2.516  1.1140  1.6405 -0.1833
11630TIP3    H256382   5.534   1.114   2.431  0.8561 -1.0780  1.5219
11631TIP3   OH256383   0.628   0.639  16.274 -0.0614 -0.2358  0.1524
11631TIP3    H156384   0.607   0.547  16.256 -1.4332  0.0836  0.1104
11631TIP3    H256385   0.705   0.657  16.220 -0.6251 -0.9686 -0.8991
11632TIP3   OH256386   1.040   6.277  11.854 -0.2508 -0.1073 -0.4042
11632TIP3    H156387   1.113   6.321  11.811  1.2042 -2.0981 -0.0803
11632TIP3    H256388   0.996   6.230  11.783 -0.3892 -0.0146 -0.3799
11633TIP3   OH256389   1.698   1.861   1.577 -0.0228  0.2751 -0.5092
11633TIP3    H156390   1.781   1.902   1.598 -0.3071  0.8916 -0.5795
11633TIP3    H256391   1.687   1.793   1.644  0.2190  0.6322 -0.1062
11634TIP3   OH256392   6.714   4.562   3.832 -0.2015  0.2373  0.3465
11634TIP3    H156393   6.657   4.497   3.873 -0.7140 -0.4780 -1.4615
11634TIP3    H256394   6.671   4.584   3.750  3.0381 -1.6859 -1.9539
11635TIP3   OH256395   0.732   3.622   4.690 -0.4932 -0.1818 -0.0355
11635TIP3    H156396   0.816   3.608   4.646  0.1930 -0.4304  1.3248
11635TIP3    H256397   0.671   3.644   4.619  0.3620 -1.5316 -1.2236
11636TIP3   OH256398   0.336   0.944   4.339  0.1684 -0.5487 -0.4398
11636TIP3    H156399   0.356   0.860   4.382 -1.7721 -0.1261  1.3635
11636TIP3    H256400   0.346   1.009   4.409 -0.9076  0.4193 -1.1820
11637TIP3   OH256401   2.341   6.137  16.583  0.3080  0.6334  0.1829
11637TIP3    H156402   2.348   6.096  16.669 -0.8237  0.6280  0.2835
11637TIP3    H256403   2.419   6.191  16.576  1.1649 -0.5351  0.5826
11638TIP3   OH256404   1.374   3.751   4.492  0.4605  0.4368  0.1741
11638TIP3    H156405   1.381   3.730   4.585  0.5989  1.0052  0.2939
11638TIP3    H256406   1.449   3.709   4.451 -0.6870 -1.5036  0.0168
11639TIP3   OH256407   5.193   1.786  15.776  0.1471 -0.0719 -0.1243
11639TIP3    H156408   5.212   1.724  15.846 -0.5611  1.6049  1.5943
11639TIP3    H256409   5.278   1.827  15.757 -0.1851  1.6330  1.9042
11640TIP3   OH256410   3.752   1.898  15.858 -0.5074 -0.4144  0.3123
11640TIP3    H156411   3.740   1.839  15.784 -2.3466 -1.6207  1.5198
11640TIP3    H256412   3.815   1.963  15.827 -1.8331 -0.4282 -2.5781
11641TIP3   OH256413   5.886   2.374  13.467  0.5805  0.5332 -0.3313
11641TIP3    H156414   5.819   2.443  13.477  0.1931  0.2800 -1.1212
11641TIP3    H256415   5.888   2.331  13.553  0.0919  0.8724 -0.1410
11642TIP3   OH256416   2.567   3.005   2.741 -0.1476 -0.0221  0.3278
11642TIP3    H156417   2.513   3.065   2.691 -1.4615 -1.0603  0.4879
11642TIP3    H256418   2.655   3.015   2.703 -0.8736  0.0965 -1.3696
11643TIP3   OH256419   0.787   3.033   2.557 -0.0759 -0.2717  0.3919
11643TIP3    H156420   0.750   2.967   2.616  0.2260 -0.1384  0.7266
11643TIP3    H256421   0.808   3.107   2.613 -0.5010  0.1524  0.0022
11644TIP3   OH256422   4.040   0.453  17.222  0.2536 -0.4061  0.7034
11644TIP3    H156423   4.088   0.370  17.219  0.7997 -0.0380 -0.9410
11644TIP3    H256424   3.948   0.428  17.220  0.4210 -0.9451 -0.7073
11645TIP3   OH256425   1.094   3.702   2.749  0.8434 -0.1298  0.1681
11645TIP3    H156426   1.068   3.621   2.706  0.2215  0.1511  0.0016
11645TIP3    H256427   1.160   3.740   2.691  0.9204 -0.3697  0.0984
11646TIP3   OH256428   1.197   3.445  14.936  0.1545  0.3252 -0.2358
11646TIP3    H156429   1.202   3.539  14.954  1.9454 -0.1884  2.2724
11646TIP3    H256430   1.112   3.419  14.972  0.1435  0.7824  0.0835
11647TIP3   OH256431   5.741   3.391  16.182 -0.2555  0.0671  0.3955
11647TIP3    H156432   5.670   3.351  16.231  0.4375 -1.1202  0.4654
11647TIP3    H256433   5.809   3.324  16.180  0.8302  1.1505  0.2601
11648TIP3   OH256434   3.565   0.146   6.168  0.1873 -0.0350  0.3645
11648TIP3    H156435   3.559   0.122   6.075  0.4921  2.0982 -0.2512
11648TIP3    H256436   3.506   0.221   6.176  0.5346  0.0884  1.7968
11649TIP3   OH256437   3.047   0.505  13.397 -0.4600 -0.3489  0.1428
11649TIP3    H156438   2.955   0.533  13.395 -0.7275 -1.1737  0.6869
11649TIP3    H256439   3.043   0.413  13.422  0.5719 -0.1718  0.9715
11650TIP3   OH256440   6.490   0.505  16.924 -0.0611 -0.4230 -0.3405
11650TIP3    H156441   6.540   0.498  16.843  0.7948 -1.9733  0.3116
11650TIP3    H256442   6.433   0.581  16.910  2.1563  1.1214 -1.2466
11651TIP3   OH256443   1.257   4.608  11.919  0.0080 -0.2467  0.0620
11651TIP3    H156444   1.341   4.566  11.935  0.5122 -0.1240 -2.0504
11651TIP3    H256445   1.213   4.609  12.004  2.2251 -0.1285  1.2318
11652TIP3   OH256446   3.159   6.549   4.110  0.5093 -0.2431 -0.0604
11652TIP3    H156447   3.085   6.529   4.167  0.2899 -1.3753 -0.7270
11652TIP3    H256448   3.119   6.568   4.025  0.9428 -0.3127 -0.2824
11653TIP3   OH256449   6.789   5.905  12.020  0.2666  0.0622  0.1930
11653TIP3    H156450   6.707   5.939  11.986  0.0801 -0.6823 -0.1180
11653TIP3    H256451   6.824   5.850  11.949  0.2740 -0.8586  0.8886
11654TIP3   OH256452   2.211   1.062   3.206 -0.1369  0.0743 -0.3371
11654TIP3    H156453   2.151   1.118   3.256  0.4154  0.7053 -0.3769
11654TIP3    H256454   2.156   1.024   3.137 -0.8313 -0.5389  0.5429
11655TIP3   OH256455   4.305   4.085   3.176 -0.1003 -0.3701 -0.4146
11655TIP3    H156456   4.265   4.076   3.262  1.0111 -0.4222  0.1133
11655TIP3    H256457   4.331   4.177   3.170 -2.6950  0.3139 -1.8506
11656TIP3   OH256458   5.332   1.951  15.484  0.3749  0.7366 -1.0208
11656TIP3    H156459   5.345   2.040  15.450 -0.9571  0.6007 -1.8933
11656TIP3    H256460   5.279   1.907  15.418  0.7272 -0.6130 -0.4218
11657TIP3   OH256461   2.236   0.059   4.627  0.2103  0.4011 -0.3806
11657TIP3    H156462   2.196   0.028   4.546 -0.0841 -1.1063  0.3196
11657TIP3    H256463   2.204   0.148   4.636 -2.6316 -0.5822 -0.1312
11658TIP3   OH256464   6.374   4.997  13.825 -0.3717 -0.7960  0.2552
11658TIP3    H156465   6.379   4.950  13.908 -0.5211 -0.0920  0.6660
11658TIP3    H256466   6.291   4.968  13.786 -0.8672 -0.2632  0.8891
11659TIP3   OH256467   0.749   6.725  16.697  0.3315 -0.4077  0.1643
11659TIP3    H156468   0.741   6.739  16.792 -0.0546  1.1194 -0.0845
11659TIP3    H256469   0.684   6.784  16.659 -2.0604 -3.5845 -0.9178
11660TIP3   OH256470   2.277   4.163   3.122  0.4131  0.6852  0.7921
11660TIP3    H156471   2.306   4.188   3.035  1.6032  1.1227  1.3051
11660TIP3    H256472   2.266   4.247   3.168 -0.4936  0.4733  0.9704
11661TIP3   OH256473   3.822   4.647   0.300  0.0529  0.2534 -0.0181
11661TIP3    H156474   3.750   4.707   0.280  0.8558  0.9399 -0.8912
11661TIP3    H256475   3.778   4.567   0.331 -1.1176  0.3354 -1.4053
11662TIP3   OH256476   5.259   6.758   6.201  0.5263  0.2354 -0.0508
11662TIP3    H156477   5.211   6.769   6.283  0.0143 -3.0714  0.1665
11662TIP3    H256478   5.201   6.793   6.134  1.3238  3.8265  0.9801
11663TIP3   OH256479   5.805   6.055  12.982  0.4348 -0.5917  0.1627
11663TIP3    H156480   5.895   6.069  12.952  1.0274 -0.5441  1.9374
11663TIP3    H256481   5.785   5.965  12.955  1.5160 -1.0887  0.9648
11664TIP3   OH256482   3.592   0.674  16.821  0.3849 -0.2053  1.0617
11664TIP3    H156483   3.580   0.696  16.913  0.9937 -0.0880  1.1137
11664TIP3    H256484   3.527   0.606  16.803 -0.7136  0.7982  1.2079
11665TIP3   OH256485   5.986   2.300  15.392  0.4541 -0.3547  0.5930
11665TIP3    H156486   6.058   2.317  15.452 -0.5078  2.0603  1.1357
11665TIP3    H256487   5.925   2.245  15.442  1.3828 -1.4939  0.4978
11666TIP3   OH256488   5.952   4.358  16.919  0.0769  0.0052 -0.5365
11666TIP3    H156489   5.863   4.384  16.895  0.0108 -0.0019 -0.3060
11666TIP3    H256490   5.959   4.267  16.892 -0.6611 -0.6046  1.2225
11667TIP3   OH256491   4.424   0.113   6.895 -0.3674 -0.6329  0.3196
11667TIP3    H156492   4.355   0.054   6.867 -0.0646 -1.8084  1.9578
11667TIP3    H256493   4.501   0.084   6.846 -0.7630 -0.0843 -0.6255
11668TIP3   OH256494   4.478   2.979   5.352  0.4050  0.0676 -0.7485
11668TIP3    H156495   4.388   2.945   5.350 -0.0257  1.2080 -2.0015
11668TIP3    H256496   4.471   3.065   5.310  2.2781 -0.2670 -1.7835
11669TIP3   OH256497   0.202   5.465  15.714 -0.0611  0.6003  0.2514
11669TIP3    H156498   0.149   5.426  15.785  0.7508 -2.6593 -0.8450
11669TIP3    H256499   0.286   5.485  15.755 -0.3043  0.6647  0.7193
11670TIP3   OH256500   4.670   2.135  12.746  0.2402 -0.4572  0.0601
11670TIP3    H156501   4.743   2.085  12.711 -0.8951 -0.9543 -1.6933
11670TIP3    H256502   4.704   2.223  12.756  1.0871 -0.6762 -0.7732
11671TIP3   OH256503   6.272   4.913   2.876  0.5342 -0.2522  0.0058
11671TIP3    H156504   6.365   4.895   2.860  1.1236  1.9792  0.7640
11671TIP3    H256505   6.245   4.967   2.801  0.8244  2.1257  1.5333
11672TIP3   OH256506   5.432   0.956  17.004 -0.8355 -0.3629  0.1268
11672TIP3    H156507   5.423   1.003  17.087  0.3762 -2.5707  1.5518
11672TIP3    H256508   5.526   0.949  16.991 -1.0179  0.3175 -1.6739
11673TIP3   OH256509   0.017   2.584   4.819 -0.0957 -0.4182  0.5298
11673TIP3    H156510   0.107   2.615   4.812 -0.1718  0.1565  1.9054
11673TIP3    H256511  -0.025   2.647   4.877 -1.0827 -1.3286  0.8058
11674TIP3   OH256512   2.779   5.321  11.050  0.3615  0.1942 -0.6584
11674TIP3    H156513   2.691   5.358  11.039 -0.2310 -1.2823 -0.9655
11674TIP3    H256514   2.798   5.279  10.966  0.7946 -0.6858 -0.1284
11675TIP3   OH256515   4.447   3.651  14.448 -0.0120  0.0311  0.1472
11675TIP3    H156516   4.445   3.641  14.353 -0.5238  1.0036  0.0557
11675TIP3    H256517   4.478   3.740  14.463  0.2210 -0.1720  0.8959
11676TIP3   OH256518   3.407   0.019  15.237 -0.2440 -0.0850  0.8623
11676TIP3    H156519   3.357   0.101  15.242  1.4131  0.9044  1.5107
11676TIP3    H256520   3.365  -0.039  15.301 -1.1239  0.4069  0.7413
11677TIP3   OH256521   2.218   5.878  12.828 -0.1362  0.4210  0.3877
11677TIP3    H156522   2.171   5.825  12.891  2.4895 -1.2481  1.0367
11677TIP3    H256523   2.276   5.932  12.881  1.0884 -0.0011 -0.4950
11678TIP3   OH256524   0.691   2.139   0.952  0.0735  0.2588  0.6439
11678TIP3    H156525   0.598   2.134   0.931  0.5651 -2.4934 -1.2407
11678TIP3    H256526   0.709   2.060   1.003  1.8354 -0.5406 -1.1306
11679TIP3   OH256527   1.662   4.718   4.034 -0.4912 -0.0910 -0.4500
11679TIP3    H156528   1.608   4.715   4.113 -1.5341 -1.5871 -1.1923
11679TIP3    H256529   1.627   4.792   3.984  0.2889  0.9726  0.5583
11680TIP3   OH256530   5.551   0.943  10.911  0.2793 -0.3290 -0.7046
11680TIP3    H156531   5.586   1.027  10.940  2.3958 -1.0950 -0.9674
11680TIP3    H256532   5.567   0.884  10.985  1.5973 -1.2250 -1.7045
11681TIP3   OH256533   1.699   6.221  12.682 -0.6311  0.6644 -0.4838
11681TIP3    H156534   1.661   6.266  12.757  0.6295  0.9911 -0.0348
11681TIP3    H256535   1.651   6.139  12.676  0.1365  0.0662  1.4593
11682TIP3   OH256536   6.122   4.278   2.627 -0.1971  0.0450 -0.2831
11682TIP3    H156537   6.204   4.325   2.644 -0.1793  0.1610 -0.6955
11682TIP3    H256538   6.126   4.201   2.684  1.4600 -1.4370 -2.3129
11683TIP3   OH256539   4.510   3.075   2.027  0.1981  0.0745 -0.5905
11683TIP3    H156540   4.467   3.019   1.962 -0.7144  0.2737 -0.1665
11683TIP3    H256541   4.592   3.030   2.047 -0.1941 -0.7424 -0.7957
11684TIP3   OH256542   4.765   5.207   2.437 -0.1992  0.2685  0.5651
11684TIP3    H156543   4.741   5.292   2.400 -1.0141  0.0297  0.5303
11684TIP3    H256544   4.861   5.209   2.442 -0.0788  0.3953 -1.3866
11685TIP3   OH256545   6.073   1.908  16.149  0.2930  0.0440 -0.0793
11685TIP3    H156546   6.075   1.837  16.214 -0.1570  0.5232  0.4669
11685TIP3    H256547   6.132   1.879  16.080 -1.0038 -1.5170 -0.5431
11686TIP3   OH256548   3.900   4.847   4.200  0.4293  0.1123  0.5855
11686TIP3    H156549   3.896   4.868   4.293 -0.2764  2.3496  0.0786
11686TIP3    H256550   3.854   4.919   4.157 -3.0061 -2.9665 -1.2082
11687TIP3   OH256551   1.961   6.163   3.074  0.6217 -0.0092  0.5800
11687TIP3    H156552   1.993   6.163   2.984  0.8666  0.5404  0.6664
11687TIP3    H256553   1.934   6.254   3.090 -0.0167 -0.2426  0.8463
11688TIP3   OH256554   3.536   6.183   0.142  0.3489  0.4419  0.4540
11688TIP3    H156555   3.490   6.119   0.195 -0.1998  1.2226  0.9177
11688TIP3    H256556   3.539   6.143   0.054  0.7007 -0.5554  0.9067
11689TIP3   OH256557   4.894   4.259  14.000  0.2309  0.3589  0.1596
11689TIP3    H156558   4.881   4.284  13.908 -0.8221 -1.0495 -0.1076
11689TIP3    H256559   4.973   4.205  13.999 -0.7113 -1.0541 -0.2225
11690TIP3   OH256560   6.057   3.041  14.137 -0.1350 -0.2374 -0.5046
11690TIP3    H156561   6.110   2.989  14.077  0.9789  1.2420 -0.8252
11690TIP3    H256562   6.020   3.111  14.083  0.0396  0.5083  0.3200
11691TIP3   OH256563   3.853   1.977   4.652 -0.0540  0.2784  0.2853
11691TIP3    H156564   3.858   2.068   4.683 -0.1640 -0.1592  1.6105
11691TIP3    H256565   3.828   1.985   4.560 -0.4288  1.5814  0.4828
11692TIP3   OH256566   6.007   4.407   4.037 -0.1627 -0.6530  0.4188
11692TIP3    H156567   5.945   4.473   4.066 -0.9003 -0.6261 -1.1638
11692TIP3    H256568   6.054   4.448   3.965  0.8435 -1.1053  0.8166
11693TIP3   OH256569   3.612   5.267  10.699  0.1486 -0.1033 -0.7053
11693TIP3    H156570   3.683   5.205  10.680  0.6884  0.3609 -0.2041
11693TIP3    H256571   3.537   5.211  10.720  0.9113 -0.5851  0.7685
11694TIP3   OH256572   0.197   4.174  17.263  0.1157 -0.3138  0.2274
11694TIP3    H156573   0.291   4.188  17.247  0.2193 -2.7990 -1.6160
11694TIP3    H256574   0.184   4.202  17.354  2.8568 -0.8711  0.8486
11695TIP3   OH256575   4.808   4.630   3.498 -0.4719 -0.1208  0.2170
11695TIP3    H156576   4.888   4.584   3.475  1.5581  1.7022  3.1703
11695TIP3    H256577   4.835   4.722   3.508 -2.5828  0.3101  2.5747
11696TIP3   OH256578   4.206   3.874   5.840 -0.1936  0.0332 -0.3248
11696TIP3    H156579   4.162   3.920   5.912 -0.9084  0.2342 -0.8768
11696TIP3    H256580   4.268   3.815   5.883 -0.0683  0.7091  0.4257
11697TIP3   OH256581   1.482   0.558  11.682  0.2581  0.8629  0.0004
11697TIP3    H156582   1.409   0.500  11.661  2.7144 -2.1947 -0.5872
11697TIP3    H256583   1.479   0.627  11.616 -0.8547 -0.3997 -1.2888
11698TIP3   OH256584   4.716   3.902  10.476  0.1255  0.3530 -0.7256
11698TIP3    H156585   4.703   3.964  10.404  0.3495 -0.0346 -1.1004
11698TIP3    H256586   4.791   3.849  10.448  1.3301  1.3307  0.5533
11699TIP3   OH256587   5.954   1.720  13.565  0.0435 -0.2002  0.6381
11699TIP3    H156588   5.874   1.741  13.515  0.7809  0.0886 -0.4409
11699TIP3    H256589   5.925   1.656  13.630 -1.2239  0.4672  0.7451
11700TIP3   OH256590   1.603   5.068   3.353  0.5543 -0.6764 -0.0218
11700TIP3    H156591   1.656   5.074   3.273 -0.8128 -4.0581 -1.2772
11700TIP3    H256592   1.516   5.095   3.326  0.4365 -0.3531  0.6966
11701TIP3   OH256593   1.004   6.525   2.731  0.1822 -0.0725  0.0730
11701TIP3    H156594   0.927   6.578   2.751 -0.8254 -2.1799  1.9944
11701TIP3    H256595   0.971   6.452   2.680  1.4312  0.6058 -1.7862
11702TIP3   OH256596   3.601   0.045  17.147 -0.2324  0.2074  0.2211
11702TIP3    H156597   3.673   0.086  17.194 -0.3488  1.1280 -0.3989
11702TIP3    H256598   3.615  -0.049  17.159  0.7765  0.3926  0.5270
11703TIP3   OH256599   3.649   3.021   3.042  0.6428 -0.2812 -0.0934
11703TIP3    H156600   3.583   2.952   3.048  0.0077  0.1366 -1.9854
11703TIP3    H256601   3.697   3.001   2.962  1.7050  0.4033  0.3563
11704TIP3   OH256602   5.179   3.433  12.357 -0.2599  0.3197  0.0494
11704TIP3    H156603   5.120   3.360  12.376 -0.5672 -0.0735 -2.3114
11704TIP3    H256604   5.244   3.429  12.427  0.0669 -2.5794 -0.3376
11705TIP3   OH256605   0.170   5.024  12.791  0.0948 -0.3889 -0.1500
11705TIP3    H156606   0.200   5.049  12.878  0.9711  0.7630 -0.7750
11705TIP3    H256607   0.076   5.041  12.792  0.2143  0.2410  0.3496
11706TIP3   OH256608   0.120   3.177  11.547  0.7582 -0.2899  0.0052
11706TIP3    H156609   0.129   3.163  11.453 -0.0682 -0.4692 -0.0464
11706TIP3    H256610   0.170   3.106  11.587 -1.1124 -1.7827 -0.2718
11707TIP3   OH256611   3.614   6.363   5.738 -0.7569 -0.4766  0.0565
11707TIP3    H156612   3.634   6.295   5.803 -3.0232 -0.6094  0.6621
11707TIP3    H256613   3.562   6.317   5.671 -0.4083  0.1858 -0.6801
11708TIP3   OH256614   4.559   4.475  16.633 -0.2620 -0.5608  0.4803
11708TIP3    H156615   4.609   4.475  16.551  0.5042 -2.0764  0.9253
11708TIP3    H256616   4.473   4.508  16.608  0.4629  0.5814 -0.6020
11709TIP3   OH256617   5.820   3.639  11.584 -0.3481 -0.3588 -0.9157
11709TIP3    H156618   5.903   3.591  11.578 -0.5272 -0.7303 -0.4637
11709TIP3    H256619   5.786   3.639  11.495 -0.6298 -1.5841 -0.8099
11710TIP3   OH256620   1.270   3.797   2.546 -0.1765 -0.8479  0.0270
11710TIP3    H156621   1.353   3.782   2.592  0.3378  0.9738 -0.2590
11710TIP3    H256622   1.284   3.759   2.459  0.1570 -1.0360  0.1599
11711TIP3   OH256623   1.629   4.188   4.055 -0.2434 -0.5876  1.1876
11711TIP3    H156624   1.626   4.097   4.084  0.0279  0.0643  3.3572
11711TIP3    H256625   1.582   4.236   4.124 -3.0471  0.5650 -1.4176
11712TIP3   OH256626   6.004   6.038  13.248  0.0093 -0.3422  0.1328
11712TIP3    H156627   5.987   5.944  13.254  0.8150 -0.4281  1.1883
11712TIP3    H256628   6.079   6.046  13.190  1.0437 -0.4837  1.4267
11713TIP3   OH256629   4.222   0.470   0.984 -0.6831  0.0496 -0.0112
11713TIP3    H156630   4.314   0.468   0.958 -1.1322 -0.3774 -1.6670
11713TIP3    H256631   4.223   0.466   1.079  0.9633 -1.7449 -0.0887
11714TIP3   OH256632   2.158   0.708   2.110  0.0401  0.1876  0.3113
11714TIP3    H156633   2.236   0.669   2.071  0.2583 -0.4397  1.3702
11714TIP3    H256634   2.183   0.731   2.199 -1.4472 -1.5289  1.2057
11715TIP3   OH256635   3.868   5.204   5.089 -0.1238  0.5774 -0.5663
11715TIP3    H156636   3.883   5.262   5.015  0.9933  0.9834 -0.0371
11715TIP3    H256637   3.773   5.190   5.090 -0.4364  2.5956 -0.5359
11716TIP3   OH256638   0.557   6.632   5.735  0.1862  0.1176 -0.0893
11716TIP3    H156639   0.634   6.589   5.771 -0.6226  0.2318  1.8585
11716TIP3    H256640   0.526   6.688   5.806 -1.0738  0.8759 -1.2141
11717TIP3   OH256641   2.541   0.321  13.780 -0.0120  0.6924 -0.2256
11717TIP3    H156642   2.446   0.326  13.789  0.1748  2.0813  1.2761
11717TIP3    H256643   2.575   0.367  13.858  1.8603  1.3763 -1.4026
11718TIP3   OH256644   6.035   5.098  17.276 -0.8009 -0.4209  0.3429
11718TIP3    H156645   6.115   5.065  17.317 -0.2872  0.8807  0.4127
11718TIP3    H256646   5.969   5.031  17.294  0.1632 -1.2877  0.6710
11719TIP3   OH256647   1.999   3.081   0.781  0.1115  0.4892  0.0706
11719TIP3    H156648   1.951   3.158   0.813 -0.4927 -0.0331  0.4483
11719TIP3    H256649   1.946   3.049   0.707 -0.0262  0.0108  0.3759
11720TIP3   OH256650   3.155   2.440   1.505 -0.6528  0.6109 -0.0489
11720TIP3    H156651   3.179   2.524   1.465  0.8255  1.1069  1.8074
11720TIP3    H256652   3.234   2.412   1.550 -1.1326 -1.8155 -0.6604
11721TIP3   OH256653   0.028   6.647   0.148  0.0237  0.5368 -0.2010
11721TIP3    H156654  -0.061   6.631   0.116  0.1787  0.5869 -0.6615
11721TIP3    H256655   0.018   6.655   0.243 -0.1310 -1.7439  0.0076
11722TIP3   OH256656   4.526   2.924  14.746 -0.3874  0.7764  0.1387
11722TIP3    H156657   4.540   2.837  14.784  0.1526  0.5093 -0.6633
11722TIP3    H256658   4.578   2.924  14.666 -1.4046  1.3962 -0.5308
11723TIP3   OH256659   0.167   2.452   1.009  0.4280 -0.0148 -0.0375
11723TIP3    H156660   0.137   2.540   1.030  2.6674  0.6034  0.7797
11723TIP3    H256661   0.259   2.464   0.983  0.8398 -2.1420  0.3395
11724TIP3   OH256662   2.117   0.836  16.373 -0.3109 -0.2949 -0.1740
11724TIP3    H156663   2.059   0.877  16.436 -0.2307  2.1896 -1.6493
11724TIP3    H256664   2.205   0.866  16.398 -0.1001 -0.7255 -0.3926
11725TIP3   OH256665   6.727   6.561   2.047 -0.3028  0.1524  0.4345
11725TIP3    H156666   6.764   6.546   1.959  1.6603  1.9573  0.9122
11725TIP3    H256667   6.779   6.504   2.104  0.1379  0.8859  0.7706
11726TIP3   OH256668   1.315   1.691  15.695  0.4653  0.0384 -0.2813
11726TIP3    H156669   1.360   1.758  15.747  0.2155  0.7994 -1.0377
11726TIP3    H256670   1.287   1.625  15.759 -1.9537  2.1351  0.8771
11727TIP3   OH256671   6.196   4.259   0.811 -0.0107  0.0721  0.0497
11727TIP3    H156672   6.182   4.165   0.813 -3.2619  0.5183  2.1584
11727TIP3    H256673   6.210   4.284   0.902 -0.0947  1.7384 -0.3742
11728TIP3   OH256674   4.535   3.762  11.422  0.0632  0.3809  0.1051
11728TIP3    H156675   4.574   3.676  11.437  3.1005  1.3879 -1.5737
11728TIP3    H256676   4.545   3.807  11.506  2.1062  0.4276 -0.1324
11729TIP3   OH256677   2.702   1.002  15.636  0.3312 -0.2301  0.5336
11729TIP3    H156678   2.691   0.917  15.680 -1.1323 -0.3968 -0.1368
11729TIP3    H256679   2.644   0.997  15.560  0.1095  1.4569  0.5958
11730TIP3   OH256680   6.574   1.082  14.605  0.5704  0.4624 -0.3284
11730TIP3    H156681   6.496   1.132  14.580  0.9794  0.3301 -1.9816
11730TIP3    H256682   6.629   1.145  14.652  1.1933  1.6927 -2.6029
11731TIP3   OH256683   0.195   2.658   4.464  0.2833 -0.4521  0.6652
11731TIP3    H156684   0.259   2.609   4.413 -0.0207 -0.2102  0.0372
11731TIP3    H256685   0.117   2.662   4.407 -1.3260 -3.2458  2.5449
11732TIP3   OH256686   6.672   1.777   1.923  0.2856  0.4127  0.5832
11732TIP3    H156687   6.653   1.864   1.957  0.0183  0.8797 -0.7279
11732TIP3    H256688   6.593   1.752   1.874 -1.0110 -1.9880  3.7079
11733TIP3   OH256689   6.121   3.797  13.636  0.2026  0.2475 -0.2196
11733TIP3    H156690   6.157   3.802  13.724 -0.4478 -1.0212  0.1417
11733TIP3    H256691   6.063   3.720  13.639 -0.2644  0.5407 -1.5835
11734TIP3   OH256692   5.815   1.334  16.027  0.1632  0.3783 -0.4066
11734TIP3    H156693   5.722   1.329  16.045  0.1268 -1.7321 -1.0552
11734TIP3    H256694   5.843   1.416  16.067 -1.7221  0.4416  0.8337
11735TIP3   OH256695   3.612   6.158   5.909 -0.4119 -0.0221 -0.6316
11735TIP3    H156696   3.530   6.178   5.954 -0.1959  1.4259 -0.8350
11735TIP3    H256697   3.648   6.083   5.956 -1.2982  0.0370  0.1629
11736TIP3   OH256698   0.014   3.020  17.291 -0.2671 -0.2850  0.3755
11736TIP3    H156699  -0.031   3.008  17.207 -2.0076  1.5343  1.0247
11736TIP3    H256700   0.087   3.078  17.270 -1.6865  1.5666  0.3876
11737TIP3   OH256701   5.662   1.029   0.048  0.1812  0.2347  0.5990
11737TIP3    H156702   5.574   1.043   0.015  0.8857  0.0659 -1.4437
11737TIP3    H256703   5.681   0.937   0.028  1.4882  0.7650 -0.7263
11738TIP3   OH256704   1.769   2.640   0.503 -0.3877 -0.0158  0.2689
11738TIP3    H156705   1.794   2.732   0.506 -0.6496  0.0137  1.6527
11738TIP3    H256706   1.673   2.641   0.497 -0.4250 -0.1973  0.7830
11739TIP3   OH256707   4.046   1.111   4.487 -0.0567 -0.1607  0.2187
11739TIP3    H156708   4.089   1.124   4.402  1.3183 -0.9250  0.7931
11739TIP3    H256709   4.115   1.080   4.545 -1.0299  0.1755  1.5867
11740TIP3   OH256710   6.104   2.910   4.277 -0.6304  0.4789  0.0159
11740TIP3    H156711   6.160   2.904   4.355 -0.6399  1.3563  0.0994
11740TIP3    H256712   6.057   2.993   4.288  0.0828  1.0825 -1.3868
11741TIP3   OH256713   5.955   1.683   1.941  0.2286 -0.0457  0.0534
11741TIP3    H156714   6.006   1.653   2.016 -0.2419 -1.6214 -0.2261
11741TIP3    H256715   6.011   1.746   1.897  1.3668 -0.7205  0.5196
11742TIP3   OH256716   3.860   1.390   2.083 -0.3068 -0.0600 -0.0692
11742TIP3    H156717   3.937   1.386   2.026 -0.5737  1.4419 -0.5646
11742TIP3    H256718   3.857   1.481   2.112 -1.4404 -0.3002  0.5768
11743TIP3   OH256719   5.420   1.965  15.117 -0.0125  0.1580 -0.1950
11743TIP3    H156720   5.331   1.975  15.150  1.0284  1.5755  2.2608
11743TIP3    H256721   5.434   1.871  15.114 -1.1774 -0.0427  0.4842
11744TIP3   OH256722   3.440   6.800  13.954  0.2543 -0.3876  0.6279
11744TIP3    H156723   3.417   6.816  13.862  0.9991 -1.2837  0.2697
11744TIP3    H256724   3.362   6.759  13.991  0.7529 -2.1968 -0.2383
11745TIP3   OH256725   5.653   1.862  17.026  0.0951 -0.4782  0.0473
11745TIP3    H156726   5.706   1.887  16.951  2.2104  0.3283  1.7587
11745TIP3    H256727   5.609   1.781  16.999  0.6202 -0.0573 -2.1139
11746TIP3   OH256728   2.863   5.923  14.401  0.0956  0.5860  0.3324
11746TIP3    H156729   2.894   5.866  14.471 -0.3310 -1.0005 -0.7382
11746TIP3    H256730   2.792   5.973  14.440  0.4739  0.3797  1.2880
11747TIP3   OH256731   0.352   4.011  14.192  0.0703 -0.1513  0.4656
11747TIP3    H156732   0.409   3.935  14.183 -0.7514 -0.8075  0.7001
11747TIP3    H256733   0.358   4.035  14.285 -0.8636 -0.8801  0.7135
11748TIP3   OH256734   5.676   3.040   4.238  0.4897  0.0174 -0.4043
11748TIP3    H156735   5.728   2.969   4.275  2.3814  1.8149  0.4842
11748TIP3    H256736   5.652   3.010   4.151  1.9738 -1.3584 -0.3565
11749TIP3   OH256737   1.022   3.477  14.006  0.3702 -0.1060 -0.2323
11749TIP3    H156738   0.970   3.526  14.069  0.1066 -0.8211  0.1081
11749TIP3    H256739   0.963   3.410  13.972  0.5026  0.2883 -1.2558
11750TIP3   OH256740   5.134   3.575   1.710  0.1824  0.1144  0.2220
11750TIP3    H156741   5.142   3.521   1.789  0.6705 -0.0968  0.0311
11750TIP3    H256742   5.174   3.522   1.641 -0.7009  0.0836 -0.2725
11751TIP3   OH256743   4.706   5.915   4.007  0.7460  0.1193  0.1963
11751TIP3    H156744   4.737   5.979   3.943 -0.7248  1.1963  0.5263
11751TIP3    H256745   4.651   5.966   4.067 -0.5898 -1.4874  0.3722
11752TIP3   OH256746   3.084   1.622  16.373  0.1047  0.1430 -0.2039
11752TIP3    H156747   3.003   1.673  16.377  1.7850  2.8380  1.1827
11752TIP3    H256748   3.082   1.567  16.451 -1.1169 -1.0022 -1.0299
11753TIP3   OH256749   3.444   0.484   2.976 -0.3076  0.0120  0.2374
11753TIP3    H156750   3.455   0.503   3.069 -1.2895 -0.2145  0.4038
11753TIP3    H256751   3.383   0.411   2.974 -1.0125  0.6114 -0.6110
11754TIP3   OH256752   6.459   0.838   3.476  0.0782  0.2075  0.1549
11754TIP3    H156753   6.520   0.827   3.549  0.3860 -2.3675 -0.4323
11754TIP3    H256754   6.511   0.878   3.407  0.3971  0.4798  0.5511
11755TIP3   OH256755   4.151   1.987   2.786 -0.1725  0.3673 -0.3275
11755TIP3    H156756   4.160   2.049   2.859  2.2598 -0.6936  0.3183
11755TIP3    H256757   4.106   1.912   2.825 -0.2956  0.4432 -0.3228
11756TIP3   OH256758   6.262   4.897  10.943 -0.1049 -0.0851  0.4378
11756TIP3    H156759   6.276   4.803  10.939 -0.0172 -0.1526  1.9773
11756TIP3    H256760   6.167   4.907  10.943 -0.1370 -0.0348 -1.9886
11757TIP3   OH256761   5.564   1.101   3.068  0.2063 -0.4362  0.0595
11757TIP3    H156762   5.658   1.102   3.051 -0.2035 -1.4741 -2.5899
11757TIP3    H256763   5.525   1.143   2.992 -1.5154 -0.5121  0.8679
11758TIP3   OH256764   5.154   6.756  11.306 -0.0240 -0.8898  0.2845
11758TIP3    H156765   5.059   6.750  11.302  0.0398 -1.8777  0.1716
11758TIP3    H256766   5.171   6.829  11.366 -0.8518  0.0690 -0.6261
11759TIP3   OH256767   4.544   6.703  13.270 -0.0711 -0.6986  0.1691
11759TIP3    H156768   4.550   6.609  13.254  1.2169 -0.4330 -0.9636
11759TIP3    H256769   4.462   6.713  13.319 -0.9198 -2.2585 -0.8678
11760TIP3   OH256770   3.023   6.493  14.988 -0.0699 -0.4540  0.3898
11760TIP3    H156771   2.948   6.441  15.015 -1.0095  0.6932  0.0516
11760TIP3    H256772   3.002   6.522  14.900  0.9229 -0.3987  0.1629
11761TIP3   OH256773   3.556   5.871  11.277 -0.2500  0.5282  0.0813
11761TIP3    H156774   3.649   5.892  11.288  0.4650 -1.0892 -2.4429
11761TIP3    H256775   3.544   5.791  11.328  0.3107 -0.4986 -1.3479
11762TIP3   OH256776   2.409   3.907  17.082  0.3488  0.2166  0.4306
11762TIP3    H156777   2.466   3.834  17.057 -1.0206 -0.4868 -0.6995
11762TIP3    H256778   2.462   3.959  17.143  1.0761 -2.1680  1.9144
11763TIP3   OH256779   3.098   0.079   4.446  0.0430  0.0187 -0.1606
11763TIP3    H156780   3.069   0.170   4.442 -1.8904 -0.5852 -0.5579
11763TIP3    H256781   3.055   0.037   4.371 -0.0832 -1.4714  0.7285
11764TIP3   OH256782   4.708   3.279  12.642 -0.0359  0.1232 -0.0250
11764TIP3    H156783   4.654   3.256  12.566  0.2492 -0.9029  0.0788
11764TIP3    H256784   4.767   3.347  12.610 -1.0947  0.9443 -0.2553
11765TIP3   OH256785   5.214   6.471  11.834 -0.6115  0.3438  0.3473
11765TIP3    H156786   5.227   6.514  11.750 -1.2448  0.5820  0.3668
11765TIP3    H256787   5.284   6.406  11.839 -1.0969 -0.2735 -0.7430
11766TIP3   OH256788   1.646   3.529   0.011  0.2794  0.6625  0.5429
11766TIP3    H156789   1.616   3.524   0.102  0.0236  0.5472  0.4519
11766TIP3    H256790   1.733   3.570   0.017  0.3142  0.5492  0.8491
11767TIP3   OH256791   3.801   0.046   4.178 -0.5823  0.0142  0.2209
11767TIP3    H156792   3.770   0.015   4.093 -0.6650 -0.3865  0.3976
11767TIP3    H256793   3.750  -0.003   4.242  0.4345 -0.6728  0.5199
11768TIP3   OH256794   3.394   1.176  16.837  0.0669  0.1868 -0.3662
11768TIP3    H156795   3.345   1.229  16.900  1.1722  0.8541 -0.0453
11768TIP3    H256796   3.352   1.193  16.753 -0.9953 -0.1869  0.0741
11769TIP3   OH256797   3.070   5.348  12.714  0.4169  0.1331  0.4159
11769TIP3    H156798   3.076   5.334  12.620  2.4469  0.6526  0.4379
11769TIP3    H256799   3.062   5.261  12.752 -1.1992 -0.0273 -0.2663
11770TIP3   OH256800   4.745   2.317   3.685  0.0944 -0.3847 -0.1249
11770TIP3    H156801   4.779   2.407   3.676  0.5117 -0.5611 -0.3151
11770TIP3    H256802   4.804   2.276   3.749  0.9639 -1.0496 -1.3265
11771TIP3   OH256803   3.089   5.114   4.736 -0.8658 -0.7027 -0.3258
11771TIP3    H156804   3.086   5.028   4.695 -1.6089 -1.2217  0.7653
11771TIP3    H256805   3.155   5.106   4.805 -0.9465 -0.4130 -0.2125
11772TIP3   OH256806   0.496   0.407  17.244 -0.1789 -0.1547 -0.0499
11772TIP3    H156807   0.416   0.357  17.223  0.1283 -1.1021  0.9873
11772TIP3    H256808   0.493   0.418  17.339  1.1112 -0.4978  0.0324
11773TIP3   OH256809   3.190   4.553   0.428  0.9312  0.6009 -0.6380
11773TIP3    H156810   3.276   4.513   0.443  0.6360  0.0804 -0.3166
11773TIP3    H256811   3.208   4.646   0.417  1.4876  0.5662 -0.0581
11774TIP3   OH256812   2.769   3.018   6.356 -0.0898 -0.2393  0.7431
11774TIP3    H156813   2.843   3.030   6.415 -0.1293 -0.8885  0.9263
11774TIP3    H256814   2.760   3.102   6.312 -1.7056  1.1628  3.5806
11775TIP3   OH256815   0.744   5.552   3.710 -0.1910 -0.3571 -0.0704
11775TIP3    H156816   0.649   5.561   3.720 -0.3565  0.2565 -2.0328
11775TIP3    H256817   0.768   5.484   3.773 -1.6537  0.7487  1.7234
11776TIP3   OH256818   5.799   0.528   2.747 -0.4057  0.1565  0.0017
11776TIP3    H156819   5.892   0.505   2.750 -0.7025 -0.8765  2.6179
11776TIP3    H256820   5.796   0.610   2.697  1.8867  0.1604 -0.1765
11777TIP3   OH256821   2.011   5.978   2.585  0.0045  0.2211 -0.5443
11777TIP3    H156822   2.067   5.915   2.630 -0.5084 -0.1802 -0.4723
11777TIP3    H256823   1.930   5.931   2.568 -0.1102  0.6363 -1.1411
11778TIP3   OH256824   2.968   2.510  15.537  0.0710  0.6952 -0.2793
11778TIP3    H156825   2.938   2.427  15.575 -2.5199  2.2804  1.3561
11778TIP3    H256826   2.917   2.519  15.456 -1.0782  1.5343  0.5087
11779TIP3   OH256827   3.395   3.532   6.313 -1.0406 -0.0535  0.2365
11779TIP3    H156828   3.448   3.611   6.304 -0.6229 -0.5311 -1.5466
11779TIP3    H256829   3.454   3.468   6.352 -1.1543  0.2628  0.9433
11780TIP3   OH256830   1.563   3.635   6.553  0.0419  0.5527  0.0697
11780TIP3    H156831   1.614   3.713   6.576 -0.9375  1.0939  0.4064
11780TIP3    H256832   1.472   3.660   6.569 -0.4550  0.0717 -1.9171
11781TIP3   OH256833   3.959   3.431  11.968 -0.7233 -0.3370 -0.1956
11781TIP3    H156834   4.005   3.387  11.897  0.6941 -0.0535  0.5317
11781TIP3    H256835   3.903   3.363  12.006 -0.1846 -0.9421 -0.4732
11782TIP3   OH256836   5.271   5.587   1.192 -0.2755  0.6834 -0.6717
11782TIP3    H156837   5.274   5.516   1.128  1.9982 -0.7094  0.8851
11782TIP3    H256838   5.212   5.555   1.260  0.7720  0.2332  0.0448
11783TIP3   OH256839   0.414   1.509   5.175  0.4361  0.1623 -0.2052
11783TIP3    H156840   0.475   1.439   5.152  1.1672  0.4458  0.8415
11783TIP3    H256841   0.460   1.561   5.241 -0.5690  0.9338 -0.0913
11784TIP3   OH256842   1.790   0.136  16.830 -0.0555  0.3046  0.6304
11784TIP3    H156843   1.727   0.168  16.895  0.4233  0.5744  0.9649
11784TIP3    H256844   1.866   0.110  16.881  0.7730  1.6000  0.0812
11785TIP3   OH256845   3.784   1.447  12.934 -0.1895  0.2697 -0.0933
11785TIP3    H156846   3.710   1.388  12.921 -0.3519  0.5657 -0.5231
11785TIP3    H256847   3.754   1.508  13.001 -0.1865  0.1495  0.0193
11786TIP3   OH256848   6.308   6.627  13.231 -0.5269  0.3328 -0.2582
11786TIP3    H156849   6.288   6.602  13.141 -0.7530 -1.0408  0.1631
11786TIP3    H256850   6.331   6.545  13.274 -2.3576  0.6680  1.4318
11787TIP3   OH256851   2.742   1.397  11.215  0.1390  0.1601 -0.0781
11787TIP3    H156852   2.701   1.483  11.221 -0.5775 -0.2242  0.6388
11787TIP3    H256853   2.827   1.409  11.257 -0.5483  0.1695  1.3533
11788TIP3   OH256854   4.740   4.747  11.619 -1.1008  0.4879  0.0183
11788TIP3    H156855   4.799   4.681  11.584 -1.8166  0.5976 -1.4253
11788TIP3    H256856   4.798   4.814  11.657 -0.3966 -1.8974  3.3492
11789TIP3   OH256857   5.750   5.826  14.398  0.8911 -0.4736 -0.1880
11789TIP3    H156858   5.733   5.890  14.330 -1.9785 -0.1829  0.7421
11789TIP3    H256859   5.771   5.745  14.350 -2.7404 -0.7211 -1.5128
11790TIP3   OH256860   0.679   2.090  13.586 -0.5236  0.3879  0.4423
11790TIP3    H156861   0.648   2.040  13.661  1.0843 -0.0911  0.8015
11790TIP3    H256862   0.601   2.137  13.555 -1.1931  0.6155  2.4004
11791TIP3   OH256863   4.820   1.009   1.614 -0.0322  0.1072 -0.4553
11791TIP3    H156864   4.785   1.003   1.703 -0.6374  0.2568 -0.6797
11791TIP3    H256865   4.748   0.982   1.557  0.2813  0.2164 -0.9143
11792TIP3   OH256866   0.535   0.363  16.327 -0.3793  0.1951  0.2335
11792TIP3    H156867   0.456   0.364  16.381 -0.8978 -0.3511 -0.5109
11792TIP3    H256868   0.562   0.272  16.327 -1.6829 -0.2398 -2.3040
11793TIP3   OH256869   3.802   6.665  13.137 -0.0552  0.2967 -0.4075
11793TIP3    H156870   3.757   6.685  13.220  0.8185  1.4237 -0.1931
11793TIP3    H256871   3.829   6.574  13.147 -1.6181 -0.1692 -0.2303
11794TIP3   OH256872   2.477   3.578   0.688  0.3647 -0.1467 -0.2590
11794TIP3    H156873   2.468   3.544   0.599 -0.8406 -0.4324 -0.0437
11794TIP3    H256874   2.408   3.644   0.696  0.2820 -0.3167  0.5505
11795TIP3   OH256875   2.781   2.720   1.854  0.3208  0.1988 -0.5640
11795TIP3    H156876   2.710   2.785   1.865  0.2401  0.1297 -0.6768
11795TIP3    H256877   2.848   2.766   1.804  0.7315  0.5447  0.2924
11796TIP3   OH256878   1.685   2.473  16.721 -0.3048 -0.2509 -0.1127
11796TIP3    H156879   1.752   2.416  16.682 -0.0007  0.7723 -1.1276
11796TIP3    H256880   1.720   2.495  16.807 -0.6266 -1.9398  0.4589
11797TIP3   OH256881   6.486   6.028  15.238  0.2623 -0.3599  0.1339
11797TIP3    H156882   6.541   6.089  15.287  0.3621  0.9852 -1.5746
11797TIP3    H256883   6.399   6.039  15.276  0.2553  0.9641 -0.2305
11798TIP3   OH256884   1.250   4.542   1.260  0.1087 -0.0186  0.5113
11798TIP3    H156885   1.156   4.546   1.278  0.3481 -0.5745  2.0008
11798TIP3    H256886   1.268   4.621   1.209 -1.0197  0.5271  0.9360
11799TIP3   OH256887   2.926   6.109  11.407 -0.1568 -0.2681 -0.3863
11799TIP3    H156888   2.959   6.052  11.337  1.5528  0.1176  0.0850
11799TIP3    H256889   2.951   6.064  11.488 -2.6382 -1.0002  0.0050
11800TIP3   OH256890   3.556   5.872   3.352 -0.1394 -0.0579  0.1697
11800TIP3    H156891   3.624   5.856   3.287  0.0374  1.8822 -0.1662
11800TIP3    H256892   3.604   5.898   3.431 -0.4665  0.6539  0.1356
11801TIP3   OH256893   3.233   0.113  12.524  0.3738  1.2963 -0.3306
11801TIP3    H156894   3.298   0.048  12.550 -0.4626  0.8966  0.8107
11801TIP3    H256895   3.184   0.072  12.453  1.0133  1.3843 -0.8178
11802TIP3   OH256896   2.402   6.278   3.241 -0.5507  0.0988  0.1960
11802TIP3    H156897   2.432   6.303   3.154 -0.5668 -1.7244 -0.3533
11802TIP3    H256898   2.481   6.252   3.288 -0.8285 -1.4541 -0.1548
11803TIP3   OH256899   3.583   3.765  13.046 -0.2255  0.9056  0.3051
11803TIP3    H156900   3.547   3.798  12.964 -0.1712  1.7445  0.6168
11803TIP3    H256901   3.508   3.757  13.104 -0.1585  1.0031  0.4049
11804TIP3   OH256902   1.071   4.751   5.383  0.2984 -0.0903  0.2768
11804TIP3    H156903   1.062   4.795   5.468 -1.5353  1.2440 -0.5751
11804TIP3    H256904   1.140   4.799   5.338 -1.1817  1.4900 -0.3542
11805TIP3   OH256905   0.716   1.347  16.583 -0.1056  0.1302 -0.2754
11805TIP3    H156906   0.704   1.441  16.574  1.2378  0.2698 -0.6537
11805TIP3    H256907   0.688   1.311  16.499  1.8544  0.4403 -1.0914
11806TIP3   OH256908   2.355   3.641  14.651  0.2112 -0.0895  0.0344
11806TIP3    H156909   2.377   3.645  14.558  1.5602  0.6898  0.3805
11806TIP3    H256910   2.265   3.607  14.653 -0.7120  2.1134 -1.6680
11807TIP3   OH256911   4.400   5.130  16.922 -0.2927  0.0775  0.9014
11807TIP3    H156912   4.447   5.139  17.005  1.0348 -0.7510  0.2539
11807TIP3    H256913   4.380   5.037  16.916 -0.1566  0.0957  0.1695
11808TIP3   OH256914   5.529   4.484  12.742  0.1412 -0.2322 -0.5239
11808TIP3    H156915   5.590   4.413  12.723 -1.1222 -1.3233 -0.5557
11808TIP3    H256916   5.450   4.440  12.772 -0.3567  1.2032  0.2900
11809TIP3   OH256917   0.326   4.381   2.990  0.1773  0.6080 -0.4657
11809TIP3    H156918   0.388   4.373   2.918  1.4454  1.4186  0.5199
11809TIP3    H256919   0.375   4.357   3.068 -0.1860  3.0013  0.5675
11810TIP3   OH256920   3.033   3.015  10.510 -0.1481  0.1303 -0.5553
11810TIP3    H156921   3.030   2.925  10.478 -1.2464  0.2768 -0.9151
11810TIP3    H256922   3.058   3.008  10.602 -0.2642 -0.5505 -0.5735
11811TIP3   OH256923   4.574   1.344   4.373  0.6015  0.6834 -0.2110
11811TIP3    H156924   4.545   1.256   4.394  0.7468  0.7199  0.1431
11811TIP3    H256925   4.634   1.333   4.299  0.3340  0.5245 -0.4058
11812TIP3   OH256926   5.578   3.281   0.009  0.1608  0.3651  0.2521
11812TIP3    H156927   5.506   3.283  -0.055  0.6443 -1.6835 -0.3771
11812TIP3    H256928   5.543   3.328   0.085 -1.3626  0.5363 -0.5245
11813TIP3   OH256929   0.248   2.771  15.819 -0.0680  0.3758 -0.2541
11813TIP3    H156930   0.196   2.851  15.830 -0.6818 -0.3000  1.8970
11813TIP3    H256931   0.305   2.768  15.896  0.4654 -0.9067 -0.6774
11814TIP3   OH256932   0.288   2.539  14.737 -0.1510  0.3527 -0.3859
11814TIP3    H156933   0.315   2.453  14.770  0.4810  0.5850 -0.2920
11814TIP3    H256934   0.360   2.597  14.761 -0.2507  0.7668 -1.0930
11815TIP3   OH256935   3.723   3.857   3.987 -0.0028  0.0363 -0.4421
11815TIP3    H156936   3.673   3.876   4.066  1.2061  1.4895  0.0120
11815TIP3    H256937   3.673   3.899   3.916 -0.9924 -1.1152 -0.4394
11816TIP3   OH256938   5.409   0.380  12.635  0.4475 -0.2596 -0.0233
11816TIP3    H156939   5.348   0.365  12.563  0.2783 -2.2450  0.4920
11816TIP3    H256940   5.355   0.411  12.707  0.3859  0.1979 -0.2656
11817TIP3   OH256941   6.813   0.940   2.316 -0.3265 -0.0746 -0.6846
11817TIP3    H156942   6.844   0.923   2.405 -0.0834  1.3373 -0.4866
11817TIP3    H256943   6.889   0.972   2.269 -0.4414 -0.8797 -1.4347
11818TIP3   OH256944   3.271   1.619   5.644 -0.4899 -0.2727 -0.0112
11818TIP3    H156945   3.218   1.658   5.713  0.9218 -1.4534  1.7564
11818TIP3    H256946   3.237   1.530   5.636  0.3564 -0.6176  0.2154
11819TIP3   OH256947   0.116   3.030  14.625 -0.0985  0.2185  0.2482
11819TIP3    H156948   0.148   3.105  14.677 -0.0605  0.6544 -0.4009
11819TIP3    H256949   0.195   2.981  14.603 -0.0475  0.3856  0.0562
11820TIP3   OH256950   1.101   2.282  15.823  0.4961  0.1956 -0.0950
11820TIP3    H156951   1.067   2.353  15.768  1.3157 -0.0950 -0.9785
11820TIP3    H256952   1.098   2.205  15.767 -0.2119 -0.4513  0.8035
11821TIP3   OH256953   0.642   0.383  13.539 -0.4526  0.6390  0.4069
11821TIP3    H156954   0.728   0.424  13.526 -0.9375  1.4177 -0.3468
11821TIP3    H256955   0.657   0.320  13.609  0.9454  0.1653 -0.2873
11822TIP3   OH256956   0.081   5.637  16.039 -0.5375 -0.1777  0.1917
11822TIP3    H156957   0.115   5.558  15.996 -4.4166 -1.9858  0.1788
11822TIP3    H256958   0.143   5.654  16.110  0.9078 -2.6713 -0.4005
11823TIP3   OH256959   2.642   0.392   5.706 -0.0321 -0.0595 -0.3932
11823TIP3    H156960   2.691   0.435   5.776  1.0214  0.0144 -1.1719
11823TIP3    H256961   2.684   0.307   5.696 -1.9780 -1.2452  1.0020
11824TIP3   OH256962   4.458   1.152  12.354 -0.3963 -0.9306 -0.4455
11824TIP3    H156963   4.528   1.185  12.298  0.4354 -1.9489 -0.0460
11824TIP3    H256964   4.379   1.194  12.322  0.2312 -0.6514 -1.6686
11825TIP3   OH256965   6.692   3.807   4.193 -0.5941 -0.0998 -0.4310
11825TIP3    H156966   6.745   3.750   4.137 -0.1314  0.0152 -0.1126
11825TIP3    H256967   6.632   3.748   4.238  1.5459 -0.6511  1.7868
11826TIP3   OH256968   3.308   0.081   1.339  0.5982  0.1495  0.0543
11826TIP3    H156969   3.397   0.117   1.336  0.0145  1.6277 -0.0791
11826TIP3    H256970   3.288   0.058   1.248  0.9300 -0.4336  0.1235
11827TIP3   OH256971   0.004   0.798   0.682 -0.4894  0.0690 -0.3737
11827TIP3    H156972  -0.054   0.722   0.675 -0.0015 -0.3659  0.2471
11827TIP3    H256973   0.092   0.762   0.680 -0.2384  0.7013 -0.9681
11828TIP3   OH256974   6.121   4.346  14.308  0.1803 -0.6958  0.0865
11828TIP3    H156975   6.115   4.254  14.335  0.8126 -0.1956  2.0436
11828TIP3    H256976   6.148   4.392  14.387  3.7317  0.6777 -1.8399
11829TIP3   OH256977   0.176   1.961   1.277  0.0540  0.3924  0.3353
11829TIP3    H156978   0.187   1.871   1.307 -0.3029 -0.1141 -1.0303
11829TIP3    H256979   0.137   2.007   1.352  1.6865 -0.2142  1.5845
11830TIP3   OH256980   2.002   3.634   4.060 -0.1558 -0.5006  0.1669
11830TIP3    H156981   1.940   3.648   3.988  0.2329 -0.5102 -0.1711
11830TIP3    H256982   1.953   3.583   4.124 -0.5891 -0.2638  0.0259
11831TIP3   OH256983   0.279   5.201   2.167  0.2869 -0.2036 -0.1845
11831TIP3    H156984   0.290   5.212   2.262 -0.0528  1.0571 -0.2813
11831TIP3    H256985   0.186   5.182   2.156 -0.0161  1.3449 -0.3987
11832TIP3   OH256986   3.030   5.131  14.301 -0.0888  0.2093  0.2109
11832TIP3    H156987   3.038   5.223  14.274  1.4090 -0.0883 -0.4277
11832TIP3    H256988   2.936   5.115  14.306 -0.3608  1.6150 -0.2545
11833TIP3   OH256989   6.267   0.943  13.421 -0.3326  0.2970 -0.4293
11833TIP3    H156990   6.282   1.025  13.468 -0.5435  0.6098 -0.9016
11833TIP3    H256991   6.355   0.915  13.393 -0.1925  0.0447  0.2441
11834TIP3   OH256992   5.244   2.932  14.295 -0.5153 -0.7190 -0.3100
11834TIP3    H156993   5.225   2.878  14.372 -1.6001 -0.5540 -0.4594
11834TIP3    H256994   5.207   3.018  14.316  1.5972  0.1123  0.1099
11835TIP3   OH256995   1.216   2.606   2.196  0.4397  0.0735  0.4241
11835TIP3    H156996   1.181   2.691   2.223 -0.2479  0.4271 -1.4847
11835TIP3    H256997   1.247   2.621   2.106  2.2728 -1.1527  0.8384
11836TIP3   OH256998   1.282   0.429   4.085  0.1446 -0.4315 -0.5592
11836TIP3    H156999   1.195   0.441   4.123  0.8057 -0.4618  1.0246
11836TIP3    H257000   1.311   0.518   4.065  0.4720 -0.2690  0.6033
11837TIP3   OH257001   1.914   5.718   4.351  0.1757 -0.2983  0.3305
11837TIP3    H157002   1.914   5.659   4.276  0.0780 -0.1323  0.2016
11837TIP3    H257003   1.867   5.795   4.322  0.6522  0.0103  0.3728
11838TIP3   OH257004   5.241   4.926  12.489  0.8661  0.1253 -0.4084
11838TIP3    H157005   5.328   4.947  12.525 -0.3299 -0.0326  2.7358
11838TIP3    H257006   5.180   4.957  12.556 -1.4513 -1.2541 -1.8370
11839TIP3   OH257007   4.956   6.423  11.848  0.2087  0.3457 -0.0217
11839TIP3    H157008   4.959   6.423  11.753 -0.2304  0.1232 -0.0359
11839TIP3    H257009   5.048   6.425  11.875  0.3327  0.3869 -0.4492
11840TIP3   OH257010   1.802   2.775   3.247  0.1618 -0.4537  0.2267
11840TIP3    H157011   1.801   2.705   3.312  2.2656 -1.4670 -0.7612
11840TIP3    H257012   1.888   2.816   3.258  0.1261  0.0414 -1.1785
11841TIP3   OH257013   4.936   0.286   2.177  0.2341 -0.0082  0.4991
11841TIP3    H157014   4.901   0.302   2.264 -0.2126 -1.9410  0.6888
11841TIP3    H257015   4.860   0.294   2.119  0.6766  2.0975  0.1626
11842TIP3   OH257016   1.268   6.658   4.452 -0.0436  0.0180  0.1000
11842TIP3    H157017   1.222   6.729   4.408 -1.3131 -0.5862  0.4504
11842TIP3    H257018   1.357   6.692   4.465 -0.2674  1.0253 -0.9356
11843TIP3   OH257019   3.765   2.993   2.779  0.4005  0.3912 -0.6563
11843TIP3    H157020   3.692   3.015   2.722  0.0519  1.7731  0.3090
11843TIP3    H257021   3.790   2.904   2.752  1.1582  1.5229 -3.9183
11844TIP3   OH257022   2.901   0.822  17.054  0.3137  0.2142 -0.5255
11844TIP3    H157023   2.881   0.829  17.148  2.2981 -0.5070 -0.0151
11844TIP3    H257024   2.843   0.753  17.022 -3.3831  3.2926 -0.7829
11845TIP3   OH257025   5.328   6.448   6.088  0.5396  1.0442  0.4498
11845TIP3    H157026   5.346   6.446   5.994  2.7390  1.4430  0.8324
11845TIP3    H257027   5.243   6.491   6.095 -0.0181  0.2680 -1.4076
11846TIP3   OH257028   5.808   5.778   4.353 -0.1136 -0.0854 -0.1528
11846TIP3    H157029   5.731   5.795   4.406  0.2081 -3.6728  1.6384
11846TIP3    H257030   5.794   5.690   4.318  2.1190  0.1296 -1.6840
11847TIP3   OH257031   0.950   0.911   2.761 -0.4593 -0.5024  0.8593
11847TIP3    H157032   0.907   0.990   2.792  2.2506  1.7285 -0.8688
11847TIP3    H257033   0.929   0.907   2.668  0.9432 -0.8010  0.5462
11848TIP3   OH257034   2.999   3.614   5.288  0.2806 -0.1827  0.1147
11848TIP3    H157035   2.952   3.670   5.350  0.5178 -1.3898  1.4192
11848TIP3    H257036   2.978   3.649   5.202 -2.6545 -0.4418  0.6939
11849TIP3   OH257037   5.046   3.845   0.147  0.6446 -0.0664  0.1409
11849TIP3    H157038   5.042   3.756   0.112  3.1953 -0.2106  0.0960
11849TIP3    H257039   5.140   3.864   0.152  0.1286  2.5444  0.3729
11850TIP3   OH257040   1.544   4.551  16.712 -0.2726 -0.7941 -0.5798
11850TIP3    H157041   1.614   4.515  16.657 -0.3509 -0.4500 -0.9117
11850TIP3    H257042   1.464   4.511  16.677 -0.0316 -2.9293  1.2374
11851TIP3   OH257043   2.381   0.960   4.931 -0.5319  0.0175 -0.4083
11851TIP3    H157044   2.469   0.938   4.961 -0.5963 -1.2740 -1.0988
11851TIP3    H257045   2.342   1.008   5.004  0.5984  0.2257  0.0691
11852TIP3   OH257046   2.609   2.961  15.422  0.0501 -0.0097  0.4692
11852TIP3    H157047   2.596   3.020  15.348  0.1040 -3.4510 -2.4748
11852TIP3    H257048   2.547   2.889  15.406 -0.0651 -0.7576  3.9052
11853TIP3   OH257049   4.434   5.651  12.815  0.3864 -0.7363  0.0568
11853TIP3    H157050   4.430   5.557  12.834 -0.3217 -1.7853 -4.5175
11853TIP3    H257051   4.343   5.678  12.807  0.5796  0.4808  1.8277
11854TIP3   OH257052   0.475   5.088  15.081 -0.0957 -0.3440 -0.4315
11854TIP3    H157053   0.563   5.107  15.048  0.1064 -1.3939 -0.5246
11854TIP3    H257054   0.478   5.113  15.173  0.2901 -0.3249 -0.4468
11855TIP3   OH257055   5.432   0.704  12.572 -0.1820  0.4717  0.0670
11855TIP3    H157056   5.473   0.648  12.506  1.8156  1.8070  0.1199
11855TIP3    H257057   5.421   0.788  12.528 -2.1491  0.3674  0.3327
11856TIP3   OH257058   2.605   1.582   6.709  0.2099 -0.3700  0.4005
11856TIP3    H157059   2.530   1.623   6.667  0.5239  2.2326  2.2277
11856TIP3    H257060   2.578   1.568   6.800  2.2931  1.8893  1.4580
11857TIP3   OH257061   5.754   6.590  15.829 -0.3030 -0.2292  0.7074
11857TIP3    H157062   5.836   6.543  15.846  0.4648 -0.0372 -2.1567
11857TIP3    H257063   5.781   6.680  15.811 -1.2114  0.0213  0.5605
11858TIP3   OH257064   5.743   5.826   6.604 -0.1607 -0.2597  0.0190
11858TIP3    H157065   5.671   5.887   6.588  0.2311 -0.7772 -4.1294
11858TIP3    H257066   5.705   5.740   6.586  0.7963 -0.7625  0.4033
11859TIP3   OH257067   3.384   1.217  13.369  0.4261  1.0682  0.0696
11859TIP3    H157068   3.327   1.220  13.446 -0.0255  1.4295 -0.2681
11859TIP3    H257069   3.349   1.146  13.316  0.2895  1.2818 -0.1326
11860TIP3   OH257070   0.923   3.386  12.824 -0.1173  0.4916 -0.4805
11860TIP3    H157071   0.835   3.363  12.854  0.1433 -0.7090 -0.5829
11860TIP3    H257072   0.965   3.425  12.901  0.0926 -1.2956  0.3538
11861TIP3   OH257073   0.679   1.583  15.540  0.0134 -0.2494  0.1311
11861TIP3    H157074   0.616   1.561  15.472  0.9988  0.6481 -1.0871
11861TIP3    H257075   0.737   1.507  15.545 -1.2992 -1.1992  1.4539
11862TIP3   OH257076   3.544   4.509  12.395  0.7079 -0.0251  0.2580
11862TIP3    H157077   3.465   4.511  12.340  0.1243 -1.9827  0.9823
11862TIP3    H257078   3.608   4.462  12.342  0.4391 -1.0705  0.8377
11863TIP3   OH257079   4.240   3.517  13.642 -0.1019  0.6913 -0.7303
11863TIP3    H157080   4.224   3.557  13.557 -0.0153 -1.1812 -1.6466
11863TIP3    H257081   4.272   3.429  13.623  1.4945  0.8058  1.2265
11864TIP3   OH257082   1.730   4.041  17.072  0.1403 -0.0699 -0.2548
11864TIP3    H157083   1.639   4.051  17.044  0.3793 -0.3019 -1.1254
11864TIP3    H257084   1.762   3.965  17.024  1.2066  0.8375 -1.0050
11865TIP3   OH257085   5.089   6.450  16.872  0.5873  0.0515 -0.2001
11865TIP3    H157086   5.084   6.358  16.845  1.0102  0.3775 -1.4526
11865TIP3    H257087   5.061   6.499  16.794 -1.2090  0.9371  0.9643
11866TIP3   OH257088   2.563   1.516   3.052 -0.3531  0.6781 -0.1004
11866TIP3    H157089   2.584   1.586   3.114 -0.7686  0.4487  0.2936
11866TIP3    H257090   2.483   1.477   3.085 -2.1092  2.3383 -2.2578
11867TIP3   OH257091   4.143   5.394   3.489  0.4854 -0.1711 -0.6560
11867TIP3    H157092   4.158   5.374   3.396  2.4965  0.3519 -0.4565
11867TIP3    H257093   4.189   5.477   3.503 -0.5842  0.2129  0.5953
11868TIP3   OH257094   2.818   6.469   4.782 -0.4661  0.1596  0.2508
11868TIP3    H157095   2.774   6.421   4.852  0.0592  0.3487  0.7093
11868TIP3    H257096   2.856   6.545   4.825 -0.6059  0.5684 -0.3382
11869TIP3   OH257097   1.203   1.059  13.463 -0.6978  0.0147 -0.0540
11869TIP3    H157098   1.218   1.103  13.379 -0.1604  1.0802  0.5900
11869TIP3    H257099   1.280   1.083  13.516 -1.1931 -0.3889  0.8495
11870TIP3   OH257100   5.529   1.857  14.064 -0.2189  0.4818 -0.0925
11870TIP3    H157101   5.534   1.822  14.153 -1.2842  0.2925 -0.0968
11870TIP3    H257102   5.594   1.807  14.015 -0.7516 -0.5508  0.2188
11871TIP3   OH257103   0.891   6.113   0.883 -0.1566 -0.0973  0.4627
11871TIP3    H157104   0.941   6.101   0.803 -1.1173 -0.8855 -0.0292
11871TIP3    H257105   0.806   6.145   0.854 -1.3058 -2.6063  0.9725
11872TIP3   OH257106   1.953   1.642  15.983 -0.1676  0.3104 -0.5683
11872TIP3    H157107   1.913   1.642  15.896 -2.6864  1.3959  0.5449
11872TIP3    H257108   1.913   1.567  16.028  2.0601 -1.0108 -0.7273
11873TIP3   OH257109   2.693   1.007  14.395 -0.5115 -0.1475  0.5087
11873TIP3    H157110   2.674   0.926  14.347  0.5183 -1.2000  1.8733
11873TIP3    H257111   2.759   1.052  14.342  0.7474 -1.3897  1.0126
11874TIP3   OH257112   2.887   6.455   3.479 -0.2951 -0.1528  0.1494
11874TIP3    H157113   2.804   6.409   3.465 -0.2344  0.2191 -1.6023
11874TIP3    H257114   2.883   6.529   3.418  1.7447 -0.7093 -0.6835
11875TIP3   OH257115   5.921   6.331   2.476 -0.0856 -0.1181 -0.2266
11875TIP3    H157116   5.869   6.251   2.469 -1.1483  0.4994  0.5157
11875TIP3    H257117   5.917   6.370   2.388 -1.9994  0.6018  0.1569
11876TIP3   OH257118   5.000   6.781   2.755 -0.1961 -0.0926  0.2256
11876TIP3    H157119   5.060   6.707   2.765  1.9283  1.5578  0.0412
11876TIP3    H257120   4.986   6.789   2.661 -1.9559 -1.3996  0.3417
11877TIP3   OH257121   6.088   5.525   0.528 -0.8054 -0.1743 -0.2095
11877TIP3    H157122   6.083   5.542   0.434 -1.5821  1.2671  0.0761
11877TIP3    H257123   6.128   5.604   0.565 -1.1787 -0.4209  0.7456
11878TIP3   OH257124   0.348   5.842  16.054 -0.1878 -0.1834  0.1491
11878TIP3    H157125   0.383   5.804  16.134 -0.4801 -0.2626  0.2395
11878TIP3    H257126   0.260   5.873  16.078 -0.0780  0.2561 -0.0043
11879TIP3   OH257127   1.351   4.183   0.297 -0.0980  0.0078 -0.3762
11879TIP3    H157128   1.312   4.270   0.306 -2.0081 -0.9417  0.8230
11879TIP3    H257129   1.431   4.187   0.349 -1.5831  0.2382  1.9461
11880TIP3   OH257130   5.035   4.640  13.510 -0.1270 -0.1162 -0.2443
11880TIP3    H157131   5.041   4.639  13.414  0.1844  0.0962 -0.2271
11880TIP3    H257132   4.976   4.713  13.529 -1.0085 -0.8037 -0.3173
11881TIP3   OH257133   3.487   1.075   1.131  0.1145 -0.0555 -0.8522
11881TIP3    H157134   3.487   1.135   1.206  2.1120 -0.2547 -0.6769
11881TIP3    H257135   3.507   1.131   1.056 -1.4775  0.0732 -1.1989
11882TIP3   OH257136   5.299   5.143  11.898  0.1330  0.4806  0.4222
11882TIP3    H157137   5.299   5.086  11.820 -0.1868  0.2498  0.5898
11882TIP3    H257138   5.215   5.126  11.940 -0.5490  2.0860 -0.2456
11883TIP3   OH257139   1.083   2.120   4.973  0.2501  0.3017  0.6543
11883TIP3    H157140   1.127   2.126   5.057 -0.1151 -0.4584  0.9065
11883TIP3    H257141   1.005   2.175   4.983  1.0192  1.4791  0.2767
11884TIP3   OH257142   0.792   2.176  15.702 -0.3211  0.5170 -0.5955
11884TIP3    H157143   0.773   2.187  15.795  1.5496  0.6087 -0.1997
11884TIP3    H257144   0.752   2.092  15.679 -0.0551  0.0843  0.4920
11885TIP3   OH257145   2.743   2.831   0.255 -0.2502 -0.2638  0.3162
11885TIP3    H157146   2.767   2.826   0.162 -0.1759 -0.3548  0.3397
11885TIP3    H257147   2.775   2.917   0.283 -1.4007  0.2852 -0.0554
11886TIP3   OH257148   2.851   4.091  12.375  0.1054  0.1187 -0.1058
11886TIP3    H157149   2.942   4.073  12.350 -0.5404 -0.7074 -1.9776
11886TIP3    H257150   2.818   4.148  12.306 -1.2451 -0.8159 -0.2425
11887TIP3   OH257151   3.526   2.843   5.752  0.4960 -0.2307  0.4314
11887TIP3    H157152   3.486   2.906   5.813 -0.8543 -0.0203 -0.6529
11887TIP3    H257153   3.590   2.894   5.703 -0.7013  0.3535 -0.5495
11888TIP3   OH257154   2.946   4.120   4.072  0.0231 -0.0942  0.0396
11888TIP3    H157155   2.890   4.107   4.148 -0.0340  0.0414  0.0227
11888TIP3    H257156   3.033   4.093   4.100 -0.3418 -1.7480 -0.4028
11889TIP3   OH257157   6.453   2.595  12.210 -0.0644  0.4210 -0.2424
11889TIP3    H157158   6.486   2.660  12.148 -0.8062  0.4845 -0.5740
11889TIP3    H257159   6.475   2.511  12.171 -2.2235  0.4319 -1.5426
11890TIP3   OH257160   1.361   6.111   2.832 -0.1267 -0.2436  0.3442
11890TIP3    H157161   1.305   6.189   2.826  0.5137  0.0623 -3.1196
11890TIP3    H257162   1.300   6.038   2.827 -0.4732  0.0735 -0.1225
11891TIP3   OH257163   1.514   6.020   1.630 -0.1110 -0.9435 -0.4776
11891TIP3    H157164   1.435   6.042   1.579  1.5414  0.1710 -2.6601
11891TIP3    H257165   1.570   5.972   1.568  1.8866  0.2975  0.3122
11892TIP3   OH257166   3.062   1.156   3.969  0.2861 -0.3529 -0.1743
11892TIP3    H157167   3.090   1.177   3.879 -3.0394  0.5994 -1.0771
11892TIP3    H257168   3.054   1.241   4.011  3.5262 -0.8831  1.6450
11893TIP3   OH257169   5.919   5.500  15.846  0.1241 -0.0237 -0.3278
11893TIP3    H157170   5.874   5.442  15.907 -3.3248  1.5522 -1.2126
11893TIP3    H257171   5.984   5.545  15.899 -0.4085 -1.2391  1.3896
11894TIP3   OH257172   1.833   4.691   0.258  0.1067 -0.3956  0.3299
11894TIP3    H157173   1.855   4.725   0.345  1.2922  0.3405 -0.2528
11894TIP3    H257174   1.761   4.746   0.228 -0.1765 -0.5266  0.7631
11895TIP3   OH257175   4.579   5.188  13.495 -0.3760  0.4408  0.3924
11895TIP3    H157176   4.583   5.283  13.489  2.1365  0.4088  1.1276
11895TIP3    H257177   4.485   5.168  13.493 -0.9979  3.0219  1.5591
11896TIP3   OH257178   0.212   6.683   1.853  0.5560  0.0174 -0.3176
11896TIP3    H157179   0.147   6.745   1.887  0.4500  0.0696 -0.6154
11896TIP3    H257180   0.219   6.704   1.760  1.5137  0.4756 -0.1496
11897TIP3   OH257181   0.800   3.957  14.277 -0.3072 -0.4151  0.2925
11897TIP3    H157182   0.819   4.026  14.341  0.5611 -1.3930  1.1206
11897TIP3    H257183   0.787   4.003  14.194  0.9499  0.6976  0.6903
11898TIP3   OH257184   1.967   5.030   3.121  0.5119  0.1230  0.0356
11898TIP3    H157185   1.968   5.113   3.073 -3.4785  0.2707  0.0471
11898TIP3    H257186   1.939   5.053   3.210 -1.0432 -1.2499 -0.0663
11899TIP3   OH257187   1.818   1.756   1.935 -0.2579 -0.0571  0.1372
11899TIP3    H157188   1.881   1.814   1.892 -0.0056  0.5632  1.3292
11899TIP3    H257189   1.786   1.699   1.864  0.1713  0.9187 -0.8634
11900TIP3   OH257190   6.804   0.245   2.752 -0.6292  0.1057 -0.3237
11900TIP3    H157191   6.725   0.262   2.701  0.0593  0.1958 -1.3546
11900TIP3    H257192   6.781   0.171   2.808 -0.7618 -1.2267 -2.1237
11901TIP3   OH257193   0.319   2.437   1.623 -0.0477 -0.3126  0.2444
11901TIP3    H157194   0.351   2.525   1.642  0.2521 -0.6355  1.2385
11901TIP3    H257195   0.225   2.449   1.609 -0.5919 -0.2904  3.5405
11902TIP3   OH257196   3.724   4.074   1.420 -0.2329 -0.0486  0.3381
11902TIP3    H157197   3.720   3.979   1.415 -0.3354  0.0028 -0.6716
11902TIP3    H257198   3.764   4.101   1.337 -1.2118  0.8490  0.1466
11903TIP3   OH257199   0.434   2.375   5.224  0.3864 -0.0846 -0.1384
11903TIP3    H157200   0.343   2.373   5.198  0.2693 -2.1973  0.4068
11903TIP3    H257201   0.441   2.454   5.279 -1.0936  0.0700 -0.1641
11904TIP3   OH257202   5.465   5.511  14.966 -0.2358 -0.2712  0.6358
11904TIP3    H157203   5.552   5.546  14.983 -0.8970  1.2132  1.0740
11904TIP3    H257204   5.464   5.493  14.872  1.0781 -1.8327  0.9090
11905TIP3   OH257205   1.632   6.243  12.257  0.4360  0.1049 -0.1429
11905TIP3    H157206   1.663   6.266  12.169 -0.5746  1.1314 -0.2509
11905TIP3    H257207   1.569   6.312  12.278  1.3768  0.4035  1.7894
11906TIP3   OH257208   4.010   6.373   5.031 -0.2224  0.5389  0.2202
11906TIP3    H157209   4.005   6.308   5.101 -1.2913  0.7279  0.3173
11906TIP3    H257210   4.096   6.414   5.043  0.6282 -1.1252 -0.0805
11907TIP3   OH257211   5.920   3.659  14.170 -0.7986 -0.5330  0.0308
11907TIP3    H157212   5.861   3.676  14.243 -2.3979 -0.7781 -1.1732
11907TIP3    H257213   5.927   3.564  14.166  1.7599 -0.4759  1.7589
11908TIP3   OH257214   2.156   2.077  13.601  0.3255 -0.8282  0.4195
11908TIP3    H157215   2.145   2.061  13.507  3.0512  1.2074 -0.3255
11908TIP3    H257216   2.072   2.054  13.640 -1.2226 -0.6306 -2.6807
11909TIP3   OH257217   2.537   0.420   0.068  0.0208  0.1101  0.4293
11909TIP3    H157218   2.478   0.478   0.117 -0.4353  1.3519 -1.5161
11909TIP3    H257219   2.527   0.448  -0.023  1.6107 -1.4661 -0.2519
11910TIP3   OH257220   0.619   3.178   0.775  0.6696 -0.3967 -0.3583
11910TIP3    H157221   0.558   3.140   0.712 -0.2234 -1.6691  1.2196
11910TIP3    H257222   0.611   3.272   0.763  0.3650 -0.6236 -1.9933
11911TIP3   OH257223   3.992   0.791  12.568 -0.2566  0.3979 -0.0763
11911TIP3    H157224   3.955   0.854  12.630 -1.9057  0.3406 -0.9511
11911TIP3    H257225   3.977   0.706  12.609  0.9410  0.5093  0.5903
11912TIP3   OH257226   2.332   1.296  11.810  0.1501  0.3613  0.0110
11912TIP3    H157227   2.410   1.282  11.863 -0.0244  0.7748  0.3837
11912TIP3    H257228   2.270   1.339  11.869  1.0357  3.7208 -1.3361
11913TIP3   OH257229   3.209   2.398  14.510  0.3954 -0.1455  0.3374
11913TIP3    H157230   3.123   2.357  14.504 -0.2451  1.0832  0.9126
11913TIP3    H257231   3.271   2.326  14.504 -0.6606 -0.9725 -0.7141
11914TIP3   OH257232   5.276   5.183  16.104  0.0338  0.4136  0.3926
11914TIP3    H157233   5.209   5.216  16.045 -0.5834 -0.1099  0.7902
11914TIP3    H257234   5.288   5.092  16.079 -2.2519 -0.6250  2.8550
11915TIP3   OH257235   2.176   5.563   3.888 -0.0482 -0.1219  0.2749
11915TIP3    H157236   2.211   5.480   3.855 -0.4451 -0.5823  0.9789
11915TIP3    H257237   2.176   5.552   3.984  0.1718  0.8028  0.3840
11916TIP3   OH257238   6.553   4.905  11.945  0.0587  0.0477  0.3740
11916TIP3    H157239   6.466   4.936  11.921 -0.1550 -0.1285  0.9162
11916TIP3    H257240   6.593   4.879  11.863 -0.4786 -0.0698  0.1527
11917TIP3   OH257241   2.403   5.344  12.082  0.0003 -0.2536  0.4443
11917TIP3    H157242   2.483   5.329  12.031 -0.1679  0.7246 -0.1349
11917TIP3    H257243   2.432   5.393  12.159 -0.0760  0.3683  0.0830
11918TIP3   OH257244   3.967   5.876   0.629 -0.5520  0.1940 -0.0455
11918TIP3    H157245   3.912   5.802   0.656  0.4342 -0.2922  0.6540
11918TIP3    H257246   3.968   5.873   0.533 -2.4302  0.7168 -0.1037
11919TIP3   OH257247   2.278   6.076  14.607  0.6761 -0.0738  0.0044
11919TIP3    H157248   2.261   6.044  14.518  1.5206 -1.2928  0.2662
11919TIP3    H257249   2.293   6.170  14.596 -1.5299  0.2243 -0.8235
11920TIP3   OH257250   1.636   5.107   2.483  0.1137  0.2018  0.3057
11920TIP3    H157251   1.720   5.079   2.447 -1.1808 -1.9062 -1.2530
11920TIP3    H257252   1.611   5.036   2.542 -1.1169  0.2197 -0.1822
11921TIP3   OH257253   4.646   6.161   4.604 -0.3651 -0.0078 -0.0343
11921TIP3    H157254   4.683   6.172   4.692 -0.5480 -2.0091  0.3166
11921TIP3    H257255   4.559   6.202   4.610  0.1081  0.9472  0.3618
11922TIP3   OH257256   1.145   3.538   5.615 -0.1305  0.6319 -0.0961
11922TIP3    H157257   1.132   3.463   5.673 -2.3255  0.9204 -0.1636
11922TIP3    H257258   1.066   3.591   5.626  1.0442  2.5464 -0.6359
11923TIP3   OH257259   1.065   6.786  14.300  0.3107  0.0023  0.8132
11923TIP3    H157260   1.101   6.698  14.290 -0.7950 -0.3348 -0.3274
11923TIP3    H257261   1.131   6.843  14.260  0.8354 -0.3389  1.1767
11924TIP3   OH257262   6.347   5.994   3.953  0.5017 -0.0812  0.1581
11924TIP3    H157263   6.273   6.054   3.959  1.3328  1.0671 -0.8646
11924TIP3    H257264   6.424   6.051   3.946  1.1437 -1.2261 -2.8514
11925TIP3   OH257265   5.713   2.582   0.781 -0.5684  0.6050  0.1881
11925TIP3    H157266   5.732   2.671   0.811 -0.4435  0.5490  0.2769
11925TIP3    H257267   5.620   2.570   0.797 -0.5101  0.5887  0.5279
11926TIP3   OH257268   1.761   4.907   5.607  0.1275  0.3657 -0.4347
11926TIP3    H157269   1.734   4.928   5.696  1.1381  2.1928 -0.5398
11926TIP3    H257270   1.685   4.929   5.553 -0.5589 -0.9337 -0.0304
11927TIP3   OH257271   2.384   4.827  17.146  0.0823  0.4492  0.3592
11927TIP3    H157272   2.473   4.801  17.122 -0.0105 -1.2916  1.7804
11927TIP3    H257273   2.392   4.864  17.234 -0.3013  2.2538 -0.3452
11928TIP3   OH257274   4.118   3.590  12.168 -0.4409  0.3308 -0.2066
11928TIP3    H157275   4.083   3.550  12.088 -0.0893 -2.3317  0.9046
11928TIP3    H257276   4.051   3.573  12.234  0.9737 -0.8965  0.9296
11929TIP3   OH257277   2.640   5.219  11.979  0.7646  0.3432 -0.1660
11929TIP3    H157278   2.695   5.164  12.034  3.2282  0.4955 -2.4166
11929TIP3    H257279   2.689   5.301  11.969 -0.8660  1.3228 -0.4239
11930TIP3   OH257280   6.713   3.567   0.174  0.2708  0.8600  0.2758
11930TIP3    H157281   6.762   3.489   0.147 -2.4296 -1.6534  2.3347
11930TIP3    H257282   6.780   3.632   0.192  2.5677 -0.5216 -2.7211
11931TIP3   OH257283   4.194   5.717  14.221  0.1414  0.1077  0.2705
11931TIP3    H157284   4.143   5.636  14.224  1.1248 -0.4786  2.0848
11931TIP3    H257285   4.190   5.752  14.311  0.7452  1.4180 -0.1899
11932TIP3   OH257286   1.530   5.528  10.564 -0.4534  0.7064  0.3677
11932TIP3    H157287   1.467   5.593  10.594 -1.0684 -0.0323  0.7077
11932TIP3    H257288   1.611   5.549  10.611 -0.3312  1.9017 -0.3789
11933TIP3   OH257289   5.084   2.616  13.844 -0.4910 -0.1802 -0.2656
11933TIP3    H157290   5.114   2.586  13.758  1.0687  0.9462 -0.1555
11933TIP3    H257291   5.053   2.538  13.888 -0.7937 -0.8581 -1.6682
11934TIP3   OH257292   2.720   3.915   0.131 -0.3639  0.6100 -0.0372
11934TIP3    H157293   2.770   3.934   0.052 -0.2078  1.1929  0.1977
11934TIP3    H257294   2.678   3.831   0.113  1.1468 -0.1795 -0.0254
11935TIP3   OH257295   0.051   2.794  14.454  0.2926  0.6266 -0.1920
11935TIP3    H157296   0.102   2.873  14.477 -0.7549  1.1476  0.3873
11935TIP3    H257297   0.048   2.743  14.535 -1.3974  1.3361  0.2229
11936TIP3   OH257298   0.913   2.913   2.307  0.3681 -0.1089  0.6761
11936TIP3    H157299   0.981   2.980   2.309  1.4096 -1.1761  1.2957
11936TIP3    H257300   0.955   2.834   2.340 -1.1892 -0.7704  1.1443
11937TIP3   OH257301   2.833   5.675   4.924 -0.2161 -0.4677  0.3836
11937TIP3    H157302   2.893   5.622   4.975 -0.1861 -0.0530  0.7855
11937TIP3    H257303   2.754   5.621   4.915  0.1847 -0.9774 -0.0749
11938TIP3   OH257304   5.387   0.464  13.891  0.6223  0.4659  0.5607
11938TIP3    H157305   5.466   0.412  13.904  0.4639  0.2944  0.8355
11938TIP3    H257306   5.351   0.433  13.808  0.6561  0.3044  0.6066
11939TIP3   OH257307   0.693   5.180   2.358 -0.3480 -0.4869 -0.0632
11939TIP3    H157308   0.742   5.181   2.276 -0.6594 -1.4022 -0.2739
11939TIP3    H257309   0.618   5.237   2.342  0.8979  1.3181  0.4314
11940TIP3   OH257310   1.576   3.912   2.029  0.0179 -0.4707 -0.5703
11940TIP3    H157311   1.601   3.899   2.120  1.4415 -1.3801 -1.0809
11940TIP3    H257312   1.570   3.823   1.993  0.4428 -0.0762 -1.6274
11941TIP3   OH257313   0.393   6.571  11.379 -0.2383 -0.5646  0.7602
11941TIP3    H157314   0.326   6.581  11.447 -0.8925  0.4554 -0.0134
11941TIP3    H257315   0.367   6.634  11.312  1.4959 -0.1798  0.4479
11942TIP3   OH257316   4.129   6.488  13.714 -0.5026 -0.4871 -0.0580
11942TIP3    H157317   4.077   6.547  13.769 -0.9700  0.0127 -1.0210
11942TIP3    H257318   4.067   6.457  13.648  0.7514  1.2301 -2.0765
11943TIP3   OH257319   1.268   5.447   4.205  0.9398 -0.4317 -0.3045
11943TIP3    H157320   1.215   5.525   4.216  1.4930  0.0724 -1.1382
11943TIP3    H257321   1.312   5.435   4.288  1.5046  0.6296 -0.4504
11944TIP3   OH257322   3.827   1.636   5.780  0.5862  0.3695 -0.0649
11944TIP3    H157323   3.820   1.561   5.721  0.6468 -0.2346  0.6687
11944TIP3    H257324   3.897   1.611   5.841  0.7551  1.1181  0.0545
11945TIP3   OH257325   3.173   1.704  15.775 -0.1890  0.0002 -0.1281
11945TIP3    H157326   3.214   1.711  15.861  0.2915 -0.3268 -0.3260
11945TIP3    H257327   3.137   1.615  15.773 -0.0467 -0.0523 -0.3350
11946TIP3   OH257328   1.082   4.721  16.223 -0.1268 -0.1861 -0.0898
11946TIP3    H157329   1.001   4.673  16.242  0.0174 -0.4341 -0.1006
11946TIP3    H257330   1.053   4.800  16.178 -0.4652  0.3768  1.1125
11947TIP3   OH257331   0.657   0.083  16.048 -0.0832  0.2008 -0.1459
11947TIP3    H157332   0.662   0.035  15.965  0.5785  1.6228 -0.9534
11947TIP3    H257333   0.706   0.164  16.032 -1.5254  1.3553  1.0325
11948TIP3   OH257334   4.943   2.215   5.131 -0.3450 -0.2609 -0.3412
11948TIP3    H157335   4.879   2.161   5.177 -0.6796 -0.5797 -1.1872
11948TIP3    H257336   4.905   2.303   5.132 -0.2763 -0.2316  0.1243
11949TIP3   OH257337   5.149   2.385   1.103 -0.7454  0.2838  0.1736
11949TIP3    H157338   5.214   2.356   1.038  1.3424 -1.1142  2.7635
11949TIP3    H257339   5.102   2.305   1.127 -3.5872  1.3031 -1.7521
11950TIP3   OH257340   5.483   6.618  13.370 -0.4333 -0.3194  0.1462
11950TIP3    H157341   5.447   6.693  13.417 -1.0806 -0.3083 -0.3734
11950TIP3    H257342   5.539   6.656  13.303 -1.6281 -0.2735 -0.8291
11951TIP3   OH257343   0.584   0.201  13.873 -0.5622  0.1083 -0.2982
11951TIP3    H157344   0.542   0.264  13.930 -0.8912  1.4518 -1.9875
11951TIP3    H257345   0.534   0.120  13.886 -0.9702  0.5452  0.8829
11952TIP3   OH257346   2.957   3.490  11.223 -0.2761  0.0328 -0.5228
11952TIP3    H157347   2.907   3.568  11.247  0.0366  0.0576  0.0797
11952TIP3    H257348   3.046   3.509  11.254 -0.0399 -0.2747 -1.0069
11953TIP3   OH257349   1.588   5.347  15.239 -0.1595 -0.0732  0.2993
11953TIP3    H157350   1.665   5.396  15.268 -0.7794  0.1167  1.6700
11953TIP3    H257351   1.531   5.413  15.199 -0.0850 -0.0238  0.2750
11954TIP3   OH257352   1.773   3.103  15.965 -0.0909  0.5940  0.4292
11954TIP3    H157353   1.791   3.050  15.887 -0.6951  0.6409  0.2515
11954TIP3    H257354   1.808   3.189  15.944 -1.4866  0.9902 -0.3588
11955TIP3   OH257355   2.759   0.221   4.459 -0.4629 -0.3969 -0.1756
11955TIP3    H157356   2.722   0.150   4.512 -1.2536  1.1582  1.4118
11955TIP3    H257357   2.683   0.265   4.421  0.0011 -0.0719 -0.7389
11956TIP3   OH257358   3.751   2.532   5.748  0.7840  0.4167  0.2068
11956TIP3    H157359   3.787   2.453   5.709 -0.9423  0.1351 -0.8575
11956TIP3    H257360   3.820   2.598   5.737  1.3483 -0.3507 -0.9306
11957TIP3   OH257361   6.818   1.008  16.549  0.2705  0.2335  0.4437
11957TIP3    H157362   6.859   1.089  16.581 -0.8164  0.7575  0.5213
11957TIP3    H257363   6.737   1.001  16.598  0.0383 -0.5548 -0.0495
11958TIP3   OH257364   1.426   1.313  14.150 -0.0979 -0.2922 -0.4433
11958TIP3    H157365   1.515   1.338  14.177 -0.7887 -0.1086  1.8190
11958TIP3    H257366   1.372   1.332  14.227 -1.8618 -1.7748 -1.2745
11959TIP3   OH257367   3.878   5.623  14.912 -0.3908  0.2591  0.1454
11959TIP3    H157368   3.835   5.546  14.873 -0.9488  0.3626  0.5482
11959TIP3    H257369   3.923   5.588  14.989 -0.4981  0.3030  0.2288
11960TIP3   OH257370   4.861   0.401  15.034 -0.3697  0.5272  0.1519
11960TIP3    H157371   4.804   0.464  15.079  0.0220  0.9633  0.0339
11960TIP3    H257372   4.946   0.411  15.076 -0.2203  0.3256 -0.1036
11961TIP3   OH257373   6.677   6.696  14.545  0.0286 -0.4182  0.0381
11961TIP3    H157374   6.648   6.730  14.461  1.1188  1.4110  0.3692
11961TIP3    H257375   6.662   6.767  14.607  3.3847 -0.0692  0.5478
11962TIP3   OH257376   2.598   2.521   5.691 -0.5001  0.3868 -0.1989
11962TIP3    H157377   2.584   2.461   5.618 -2.1352  0.4900  0.0063
11962TIP3    H257378   2.531   2.588   5.679  0.4077  1.4053  0.3726
11963TIP3   OH257379   4.855   4.254  11.123 -0.2003 -0.0633 -0.6465
11963TIP3    H157380   4.903   4.219  11.198 -0.6852  0.2242 -0.1957
11963TIP3    H257381   4.774   4.288  11.160 -0.3507  0.2767 -1.2729
11964TIP3   OH257382   4.699   2.203   1.731  0.0356 -0.0665 -0.0259
11964TIP3    H157383   4.741   2.222   1.815 -0.0039 -0.7496  0.1533
11964TIP3    H257384   4.605   2.214   1.748  0.0447  0.0638 -0.0569
11965TIP3   OH257385   1.632   5.589   5.562  0.1700 -0.0436  0.4927
11965TIP3    H157386   1.549   5.637   5.565 -0.5885 -1.2558 -0.5015
11965TIP3    H257387   1.631   5.533   5.640 -0.9575 -1.6481 -0.6426
11966TIP3   OH257388   2.076   6.765  15.461 -0.1678  0.0069 -0.5534
11966TIP3    H157389   2.086   6.860  15.450  1.6374 -0.2683 -1.4782
11966TIP3    H257390   2.005   6.755  15.524  0.2180  1.9929  0.2135
11967TIP3   OH257391   3.740   3.274   4.490 -0.1376 -0.2537 -0.4428
11967TIP3    H157392   3.824   3.244   4.456  1.0469  0.1739  1.9935
11967TIP3    H257393   3.757   3.292   4.583 -2.9344 -0.2085  0.0900
11968TIP3   OH257394   6.106   2.374  16.350  0.5912  0.0033 -0.0165
11968TIP3    H157395   6.104   2.280  16.330 -0.8103  0.6047 -2.9671
11968TIP3    H257396   6.042   2.385  16.420  0.3618 -1.1431 -0.0383
11969TIP3   OH257397   5.361   2.696  15.695 -0.4768 -0.2226 -0.4103
11969TIP3    H157398   5.364   2.780  15.740  0.6477 -0.2767 -0.3782
11969TIP3    H257399   5.442   2.652  15.721 -1.6289 -1.8261  0.5707
11970TIP3   OH257400   3.527   0.817  12.978  0.4123  0.3619 -0.1208
11970TIP3    H157401   3.459   0.751  12.994 -0.1755  0.8706 -0.4558
11970TIP3    H257402   3.477   0.896  12.957  1.0999  1.1147  1.0471
11971TIP3   OH257403   0.065   2.142  11.598 -0.2821 -0.5251  0.4350
11971TIP3    H157404   0.093   2.186  11.678 -1.1905 -0.2617  0.6227
11971TIP3    H257405   0.035   2.212  11.541  1.1575 -0.6415 -0.4772
11972TIP3   OH257406   6.100   3.887  11.370 -0.4310 -0.3786 -0.5867
11972TIP3    H157407   6.020   3.939  11.374 -0.6423 -0.7871  0.7907
11972TIP3    H257408   6.135   3.891  11.459  1.7091  0.7854 -1.4391
11973TIP3   OH257409   4.707   1.763   2.235 -0.5405 -0.4393  0.4287
11973TIP3    H157410   4.732   1.717   2.154 -1.1610  1.2759 -0.7663
11973TIP3    H257411   4.728   1.855   2.218 -1.0376 -0.0017  2.0822
11974TIP3   OH257412   4.317   3.124  11.206  1.5952 -0.2322  0.0895
11974TIP3    H157413   4.334   3.175  11.127 -0.4045  0.3679  0.0193
11974TIP3    H257414   4.373   3.046  11.196  0.6074 -0.6824 -2.4336
11975TIP3   OH257415   4.589   5.600   5.254  0.1018 -0.0833  0.2843
11975TIP3    H157416   4.663   5.581   5.311  0.9914  0.7868 -0.5640
11975TIP3    H257417   4.583   5.523   5.197  0.9163  0.2171 -0.2234
11976TIP3   OH257418   2.459   0.087  11.877  0.4615  0.5504  0.1095
11976TIP3    H157419   2.494   0.160  11.825  0.4829  0.9955  0.7511
11976TIP3    H257420   2.511   0.011  11.849  2.0488  1.2298  1.1401
11977TIP3   OH257421   2.675   3.468   5.695 -0.8775 -0.4592  0.9259
11977TIP3    H157422   2.684   3.446   5.788  2.2748  1.1772  1.0935
11977TIP3    H257423   2.635   3.555   5.695  1.1571  0.5192  0.9033
11978TIP3   OH257424   3.287   3.147  12.912  0.2196 -0.3250  0.2816
11978TIP3    H157425   3.199   3.184  12.922  0.0591 -0.6420  0.0406
11978TIP3    H257426   3.275   3.054  12.930 -0.0972 -0.9674 -2.9218
11979TIP3   OH257427   1.632   2.806  13.777 -0.0495  0.0647  0.2303
11979TIP3    H157428   1.666   2.716  13.775  0.6561  0.3362 -0.0731
11979TIP3    H257429   1.563   2.804  13.843  0.0944 -0.6562  0.3631
11980TIP3   OH257430   0.812   4.003   1.318  0.3721  0.3879  0.5501
11980TIP3    H157431   0.760   3.924   1.306 -0.8152  1.4157 -1.4621
11980TIP3    H257432   0.900   3.971   1.337  0.1682 -1.4644 -1.3819
11981TIP3   OH257433   2.423   0.087   5.889  0.5836  0.1680 -0.0975
11981TIP3    H157434   2.424   0.016   5.953  1.2120 -0.2879 -0.6176
11981TIP3    H257435   2.512   0.123   5.892 -0.0036  1.6070  0.9155
11982TIP3   OH257436   2.368   0.377  13.000  0.0193 -0.1420  0.9064
11982TIP3    H157437   2.357   0.402  13.092  0.4326  2.1039  0.3822
11982TIP3    H257438   2.337   0.453  12.951 -0.3171 -1.3714 -0.8237
11983TIP3   OH257439   1.380   3.483   5.029  0.0630  0.1008 -0.1067
11983TIP3    H157440   1.305   3.443   5.073  1.8771 -1.1032  2.0369
11983TIP3    H257441   1.402   3.422   4.958  0.2625 -0.6271  0.5664
11984TIP3   OH257442   3.905   6.596  17.054 -0.3310 -0.1739 -0.2459
11984TIP3    H157443   3.954   6.609  16.973 -1.0301  2.3751 -0.3109
11984TIP3    H257444   3.826   6.549  17.027 -1.5059  2.3691 -1.4432
11985TIP3   OH257445   4.747   0.860   2.362  0.0227 -0.3681 -0.0516
11985TIP3    H157446   4.833   0.843   2.324 -0.4726 -2.5951 -0.2409
11985TIP3    H257447   4.757   0.839   2.455 -0.7317 -2.2787 -0.3812
11986TIP3   OH257448   0.072   4.365   0.702  0.2538  0.0388  0.9209
11986TIP3    H157449   0.126   4.362   0.623  0.1283 -0.3871  0.8525
11986TIP3    H257450   0.029   4.280   0.705  1.4130 -0.4995  2.2801
11987TIP3   OH257451   1.405   3.435  15.994 -0.1168 -0.0836 -0.0299
11987TIP3    H157452   1.348   3.421  15.918 -0.9751 -1.5358  0.8437
11987TIP3    H257453   1.345   3.444  16.068  0.7550 -1.1063  0.8251
11988TIP3   OH257454   6.334   5.433   2.631 -0.8263  0.6486  0.1760
11988TIP3    H157455   6.369   5.507   2.680 -0.1244  1.7662 -1.9493
11988TIP3    H257456   6.375   5.356   2.671  2.2271  1.7474 -0.6972
11989TIP3   OH257457   4.140   5.183   5.572  0.1622 -0.4930  0.2468
11989TIP3    H157458   4.118   5.105   5.622 -0.5498 -1.0357 -0.8745
11989TIP3    H257459   4.224   5.163   5.531  0.8131  0.0065  1.3226
11990TIP3   OH257460   0.526   1.090   0.733  0.0057  0.5118  0.4738
11990TIP3    H157461   0.601   1.066   0.678 -1.5241 -2.3616 -0.4878
11990TIP3    H257462   0.500   1.177   0.702  1.8751  0.8084 -0.3255
11991TIP3   OH257463   3.558   5.942   5.402 -0.4870  0.1055 -0.5410
11991TIP3    H157464   3.631   5.885   5.375 -0.3161  0.5129 -0.9510
11991TIP3    H257465   3.600   6.026   5.421 -1.0572  0.8577 -2.4706
11992TIP3   OH257466   3.510   0.966  11.497 -0.2738 -0.1147  0.3021
11992TIP3    H157467   3.414   0.966  11.495 -0.2915  1.9108 -1.6633
11992TIP3    H257468   3.533   1.008  11.580 -1.0387 -1.7802  1.3878
11993TIP3   OH257469   4.744   3.435   1.108  0.4023  0.2310  0.0881
11993TIP3    H157470   4.653   3.436   1.138  0.4553 -0.5235  0.2897
11993TIP3    H257471   4.787   3.502   1.160 -0.2171  1.1537 -0.5837
11994TIP3   OH257472   2.075   0.209  15.409 -0.0545  0.4316  0.7209
11994TIP3    H157473   1.996   0.260  15.425 -1.0281 -0.5371 -0.8660
11994TIP3    H257474   2.121   0.257  15.340  0.1539  0.3443  0.7986
11995TIP3   OH257475   4.443   2.642  14.515  0.1544  0.7548  0.9768
11995TIP3    H157476   4.484   2.641  14.601  0.7863  0.3103  0.6794
11995TIP3    H257477   4.509   2.605  14.456 -0.9117 -0.5717  0.5850
11996TIP3   OH257478   1.042   4.648  15.917 -0.3582  0.0624 -0.2984
11996TIP3    H157479   1.005   4.619  16.000  1.7756 -1.7674  0.0773
11996TIP3    H257480   0.979   4.619  15.851 -1.7562  0.9808  0.6063
11997TIP3   OH257481   5.728   2.212   6.221  0.2907 -0.1322 -0.2713
11997TIP3    H157482   5.714   2.174   6.308  1.8127 -0.1092  0.0111
11997TIP3    H257483   5.681   2.295   6.224 -1.2870 -1.0230 -0.1516
11998TIP3   OH257484   1.292   1.667  13.426  0.0445 -0.0558 -0.0067
11998TIP3    H157485   1.292   1.571  13.422  1.0832 -0.2235  2.7822
11998TIP3    H257486   1.308   1.694  13.335  0.3898 -2.5175 -0.7403
11999TIP3   OH257487   4.140   4.590   0.849  0.6106 -0.4786  0.0382
11999TIP3    H157488   4.076   4.659   0.865  1.8794  0.1496  2.6231
11999TIP3    H257489   4.097   4.510   0.881  0.4888 -0.3209  0.2679
12000TIP3   OH257490   5.942   3.298  14.705 -0.2023  0.2180 -0.3461
12000TIP3    H157491   6.036   3.283  14.703 -0.0831  1.0668 -1.5060
12000TIP3    H257492   5.932   3.389  14.677 -1.2970  0.4568  0.7795
12001TIP3   OH257493   5.522   2.361   2.630 -0.2532 -0.5719  0.4650
12001TIP3    H157494   5.508   2.438   2.685  0.5717  0.7496 -1.1121
12001TIP3    H257495   5.614   2.338   2.645  0.2418  0.3683 -1.0408
12002TIP3   OH257496   4.639   2.459  12.505  0.6674  0.4667  1.2706
12002TIP3    H157497   4.571   2.398  12.475  1.9345 -1.9892  3.1718
12002TIP3    H257498   4.670   2.502  12.426 -0.3306 -1.3229 -0.1330
12003TIP3   OH257499   0.110   2.764  12.894  0.3051 -0.0919 -0.1581
12003TIP3    H157500   0.032   2.720  12.860  0.4113 -0.6124  0.2679
12003TIP3    H257501   0.076   2.825  12.960  0.2048  0.1213 -0.4044
12004TIP3   OH257502   6.356   6.381   5.501  1.0059 -0.7275 -0.1302
12004TIP3    H157503   6.309   6.399   5.581  2.2098  0.4414  0.3296
12004TIP3    H257504   6.428   6.323   5.528  0.8216 -1.1489 -0.5344
12005TIP3   OH257505   5.289   0.575  14.121  0.4029 -0.0313 -0.2470
12005TIP3    H157506   5.233   0.502  14.147 -0.6166  0.0496 -2.1251
12005TIP3    H257507   5.334   0.544  14.042  1.2339  0.7595 -0.0921
12006TIP3   OH257508   4.579   5.388   5.066 -0.5694  0.1179 -0.0786
12006TIP3    H157509   4.571   5.396   4.971 -0.5088  0.0443 -0.0898
12006TIP3    H257510   4.659   5.336   5.078 -0.1264  0.8166  0.0322
12007TIP3   OH257511   3.703   6.524  16.582  0.7740  0.3997  0.7782
12007TIP3    H157512   3.624   6.533  16.529  0.6473  0.1777  0.9284
12007TIP3    H257513   3.722   6.430  16.581  0.2679  0.2831  1.8538
12008TIP3   OH257514   5.337   4.406   5.414  0.0703 -0.0787 -1.0018
12008TIP3    H157515   5.274   4.477   5.421 -0.8551 -1.0467  0.9733
12008TIP3    H257516   5.419   4.443   5.446  0.0789  0.6379 -1.8212
12009TIP3   OH257517   3.496   5.195  13.924 -0.2445 -0.1315  0.0204
12009TIP3    H157518   3.494   5.289  13.904 -2.1257 -0.4447 -1.4336
12009TIP3    H257519   3.414   5.161  13.888  0.7313 -2.4602 -0.1057
12010TIP3   OH257520   3.678   2.485  14.775 -0.4939 -0.4008  0.3370
12010TIP3    H157521   3.688   2.506  14.868  1.8410 -1.1047  0.2888
12010TIP3    H257522   3.765   2.501  14.738 -0.9855 -1.6794 -1.4044
12011TIP3   OH257523   3.533   2.383  15.331  0.0378  0.0727 -0.5982
12011TIP3    H157524   3.448   2.426  15.318  0.0107  0.1606 -0.1423
12011TIP3    H257525   3.514   2.312  15.392  0.6695  1.3789  1.1799
12012TIP3   OH257526   5.588   5.166   3.496 -0.3218  0.1399  0.5850
12012TIP3    H157527   5.594   5.071   3.482 -0.0952  0.3500 -0.8668
12012TIP3    H257528   5.495   5.183   3.507 -0.3515 -0.2695  1.0114
12013TIP3   OH257529   4.580   0.787  11.738 -0.1687  0.4993 -0.2928
12013TIP3    H157530   4.649   0.849  11.716  0.2460 -0.2429 -1.1215
12013TIP3    H257531   4.626   0.704  11.750 -0.8707  0.0854 -0.4348
12014TIP3   OH257532   1.701   2.319   5.817 -0.5578  0.5188  0.2800
12014TIP3    H157533   1.624   2.364   5.854 -0.2534  0.7934  0.5816
12014TIP3    H257534   1.745   2.385   5.764  0.1656  0.7233  1.1267
12015TIP3   OH257535   2.400   6.153  13.636 -0.4359  0.1319 -0.2580
12015TIP3    H157536   2.362   6.228  13.590  0.9726  0.6612 -0.5611
12015TIP3    H257537   2.337   6.134  13.706 -1.0671  1.2397 -0.5082
12016TIP3   OH257538   1.496   2.867   3.873  0.5136 -0.0163 -0.4780
12016TIP3    H157539   1.586   2.895   3.856  0.5237  0.2513  0.0056
12016TIP3    H257540   1.453   2.945   3.909  0.3474 -0.4075  0.1872
12017TIP3   OH257541   1.451   2.872   2.579 -0.2903 -0.0406  0.0892
12017TIP3    H157542   1.461   2.781   2.549  0.3961 -0.2524  0.9272
12017TIP3    H257543   1.421   2.864   2.669 -1.2971  0.5810 -0.1882
12018TIP3   OH257544   6.797   1.262  12.481  0.1409  0.2272 -0.4496
12018TIP3    H157545   6.834   1.257  12.393  0.3918 -0.1203 -0.3264
12018TIP3    H257546   6.709   1.295  12.468 -0.3658 -1.2755 -0.9904
12019TIP3   OH257547   0.511   0.181   5.135 -0.3793 -0.0766  0.3917
12019TIP3    H157548   0.446   0.247   5.158  0.0595  0.4547  0.1192
12019TIP3    H257549   0.554   0.216   5.057  1.1524  0.2383  1.3336
12020TIP3   OH257550   2.662   6.708   4.411  0.0980 -0.4772 -0.1802
12020TIP3    H157551   2.643   6.670   4.497 -1.1442 -1.5841 -0.9227
12020TIP3    H257552   2.633   6.641   4.349 -0.9704  1.1796 -1.4989
12021TIP3   OH257553   6.438   5.213   2.797  0.3908  0.1473  0.2900
12021TIP3    H157554   6.498   5.235   2.868  2.1011 -2.1992 -0.3669
12021TIP3    H257555   6.490   5.160   2.737 -1.1620  1.6655 -2.4971
12022TIP3   OH257556   3.655   5.955  12.720  0.1468 -0.1391 -0.0680
12022TIP3    H157557   3.666   6.047  12.742 -1.0103  0.1345 -0.5919
12022TIP3    H257558   3.744   5.920  12.715  0.5348  0.5513  1.7823
12023TIP3   OH257559   1.911   2.914   0.449  0.6810 -0.1017 -0.0019
12023TIP3    H157560   1.918   2.998   0.495 -2.5579  0.2344 -0.0198
12023TIP3    H257561   1.923   2.936   0.357  0.6801  0.2141  0.0734
12024TIP3   OH257562   6.767   1.264   1.016 -0.1778  0.1120  0.2115
12024TIP3    H157563   6.676   1.257   0.985  0.4230  1.2330 -1.9625
12024TIP3    H257564   6.792   1.354   0.994  2.1235 -0.8337 -1.1626
12025TIP3   OH257565   0.678   4.560   4.299 -0.2744  0.1888 -0.0274
12025TIP3    H157566   0.662   4.641   4.347  2.3284  1.0038 -0.4255
12025TIP3    H257567   0.617   4.497   4.336 -2.1229  2.2478  0.5009
12026TIP3   OH257568   1.565   3.103  11.937 -0.1534  0.2541  0.5733
12026TIP3    H157569   1.583   3.187  11.896 -0.2969 -0.0037 -0.0240
12026TIP3    H257570   1.529   3.125  12.023 -0.8512  0.8155  0.1453
12027TIP3   OH257571   3.423   6.460  12.542  0.6539  0.4597 -0.1303
12027TIP3    H157572   3.482   6.386  12.559 -2.6630 -2.5009 -0.9969
12027TIP3    H257573   3.366   6.463  12.619 -0.5447  0.8209 -1.0345
12028TIP3   OH257574   2.689   6.093  15.543  0.8127  0.0998  0.3494
12028TIP3    H157575   2.600   6.102  15.508  0.6841 -0.3277  0.5618
12028TIP3    H257576   2.740   6.160  15.497  0.2576  0.7329  0.6493
12029TIP3   OH257577   3.923   2.419  12.638  0.1066 -0.1944  0.4274
12029TIP3    H157578   3.858   2.352  12.659  0.9779 -1.4276 -0.6969
12029TIP3    H257579   4.007   2.373  12.639  1.0198  1.4501  2.1999
12030TIP3   OH257580   4.006   5.754   2.585  0.5310 -0.2932  0.8967
12030TIP3    H157581   3.920   5.755   2.542  1.4605 -1.4739 -1.0824
12030TIP3    H257582   3.986   5.751   2.678 -1.5762  0.3639  0.5087
12031TIP3   OH257583   3.377   2.197  14.544  0.2763 -0.1829  0.2582
12031TIP3    H157584   3.452   2.212  14.602  0.9781 -0.8956 -0.4554
12031TIP3    H257585   3.307   2.170  14.603  0.5167  0.6491  0.9517
12032TIP3   OH257586   6.444   4.913  15.628 -0.1786 -0.3532 -0.1302
12032TIP3    H157587   6.351   4.926  15.648 -0.1372 -0.9186  0.4601
12032TIP3    H257588   6.468   4.990  15.576 -0.8748  0.0045  0.0606
12033TIP3   OH257589   3.389   3.667  14.240 -0.0826 -0.5135 -0.4815
12033TIP3    H157590   3.443   3.619  14.178  0.6968 -0.6839  0.3095
12033TIP3    H257591   3.325   3.713  14.186 -0.9141 -2.5260 -1.2366
12034TIP3   OH257592   4.887   5.908  14.981  0.1425 -0.4557 -0.0679
12034TIP3    H157593   4.927   5.991  15.009  0.5852 -1.1987  1.5073
12034TIP3    H257594   4.794   5.919  14.998  0.5380 -1.3742  3.0038
12035TIP3   OH257595   6.349   2.074   1.554  0.2812  0.2991  0.2724
12035TIP3    H157596   6.273   2.022   1.532  0.3069 -0.6969  2.3940
12035TIP3    H257597   6.313   2.159   1.582 -0.0339 -0.0513  0.9381
12036TIP3   OH257598   2.091   1.727  11.730  0.2553 -0.0202  0.0751
12036TIP3    H157599   2.082   1.664  11.659  2.1416 -0.2482  0.0191
12036TIP3    H257600   2.003   1.735  11.766 -0.2153 -1.8555 -0.6095
12037TIP3   OH257601   6.537   3.219   2.491  0.6416 -0.0689  0.0892
12037TIP3    H157602   6.622   3.217   2.536  0.7423  1.2262 -0.0132
12037TIP3    H257603   6.557   3.255   2.405 -0.1018  0.8818  0.2990
12038TIP3   OH257604   4.989   4.336   5.310  0.2214 -0.4067  0.4869
12038TIP3    H157605   4.904   4.369   5.342 -0.9739 -3.3817  0.5779
12038TIP3    H257606   5.052   4.366   5.375 -1.3014 -1.1613  2.3742
12039TIP3   OH257607   4.470   4.113  16.178 -0.1451 -0.4979  0.6296
12039TIP3    H157608   4.416   4.075  16.247  2.5150 -2.0339  1.9237
12039TIP3    H257609   4.455   4.057  16.102 -1.5643  0.0423  0.4866
12040TIP3   OH257610   0.032   0.283  14.446  0.4289  0.1199  0.7278
12040TIP3    H157611  -0.056   0.254  14.425  1.4401 -1.2396 -1.8850
12040TIP3    H257612   0.044   0.363  14.394  1.0780 -0.2707  0.2634
12041TIP3   OH257613   5.360   0.744  14.327  1.0293 -0.3428  0.1288
12041TIP3    H157614   5.338   0.695  14.248  1.0841  2.0907 -1.4070
12041TIP3    H257615   5.308   0.824  14.321  1.3907  0.0901  2.3397
12042TIP3   OH257616   6.004   6.727   5.427  0.5260 -0.4623 -0.0011
12042TIP3    H157617   6.089   6.707   5.389  0.5902  1.1180 -0.7420
12042TIP3    H257618   6.023   6.789   5.497  0.1720 -1.5885  1.0978
12043TIP3   OH257619   2.227   3.206   0.645  0.4529  0.1438  0.0016
12043TIP3    H157620   2.194   3.135   0.701 -0.5239  1.5797  1.2983
12043TIP3    H257621   2.253   3.163   0.564 -1.2377 -1.5410  0.3187
12044TIP3   OH257622   5.521   3.625  15.743 -0.4284 -0.0490  0.2209
12044TIP3    H157623   5.614   3.604  15.754 -0.3318  0.6881  0.8017
12044TIP3    H257624   5.481   3.604  15.827 -0.3335  2.0397  0.8170
12045TIP3   OH257625   5.050   6.039  11.860 -0.2204  0.4136 -0.2671
12045TIP3    H157626   4.964   6.029  11.820 -0.4453  2.1279 -0.2705
12045TIP3    H257627   5.032   6.084  11.943  0.4873 -0.9525  0.6541
12046TIP3   OH257628   1.543   6.067  16.262 -0.6728 -0.1650 -0.6290
12046TIP3    H157629   1.590   6.130  16.207 -0.3702 -0.4845 -0.7394
12046TIP3    H257630   1.490   6.121  16.321  0.7352  0.2380  0.2987
12047TIP3   OH257631   2.482   0.717   5.183  0.5078 -0.7010 -0.1528
12047TIP3    H157632   2.478   0.693   5.090  2.7944 -0.0636 -0.4464
12047TIP3    H257633   2.430   0.650   5.227 -1.4080 -0.4736 -1.9739
12048TIP3   OH257634   3.610   5.918  13.016  0.2567 -0.2864 -0.2517
12048TIP3    H157635   3.704   5.917  13.033  0.1942  0.5800  0.1782
12048TIP3    H257636   3.572   5.859  13.081  0.2404  1.3780  1.2879
12049TIP3   OH257637   5.289   6.081   2.714  0.0314 -0.6933  0.0556
12049TIP3    H157638   5.250   6.090   2.802  1.0321 -1.9460  0.6413
12049TIP3    H257639   5.322   5.991   2.712  1.1340 -0.2630 -1.1642
12050TIP3   OH257640   1.986   0.373  12.632 -0.5603  0.2402  0.3839
12050TIP3    H157641   2.002   0.467  12.637  0.1771  0.3028 -2.5990
12050TIP3    H257642   1.894   0.363  12.658 -0.2304  1.5943  2.1450
12051TIP3   OH257643   5.335   1.882   0.307 -0.5796 -0.3975  0.2116
12051TIP3    H157644   5.342   1.950   0.241 -0.8818  0.3686  0.9512
12051TIP3    H257645   5.398   1.815   0.280 -0.0548  0.3160 -0.3531
12052TIP3   OH257646   0.946   0.282  15.558 -0.4274 -0.0759 -0.1994
12052TIP3    H157647   0.979   0.351  15.500  0.1067  1.8268  2.3029
12052TIP3    H257648   0.853   0.302  15.567 -0.2795  0.2902  0.4999
12053TIP3   OH257649   5.943   4.785   2.815 -0.0396  0.3832 -0.2836
12053TIP3    H157650   5.862   4.821   2.777 -0.0028  2.3440  1.4288
12053TIP3    H257651   6.003   4.780   2.741 -1.5317 -0.6168 -1.4830
12054TIP3   OH257652   2.614   3.379   5.981 -0.2556 -0.1921  0.1419
12054TIP3    H157653   2.552   3.415   6.045 -0.0172 -0.6660  0.6493
12054TIP3    H257654   2.627   3.288   6.009  0.9338 -0.0036  0.2531
12055TIP3   OH257655   0.576   2.121  11.055  0.5218  0.7526 -0.6994
12055TIP3    H157656   0.633   2.045  11.066 -1.8947 -0.8267  1.4737
12055TIP3    H257657   0.614   2.168  10.981  3.1040 -1.6123 -0.9842
12056TIP3   OH257658   5.295   3.834  16.030  0.6518  0.3317 -0.3423
12056TIP3    H157659   5.383   3.864  16.053  0.7252  0.5022 -0.8292
12056TIP3    H257660   5.240   3.912  16.040  0.6614  0.3729 -0.6148
12057TIP3   OH257661   0.523   3.638  14.085  0.1918 -0.9684 -0.4494
12057TIP3    H157662   0.511   3.703  14.016 -1.6178  0.1511  0.8632
12057TIP3    H257663   0.476   3.561  14.054  1.0212 -1.1289 -1.3190
12058TIP3   OH257664   4.384   5.380   2.008  0.2940 -0.6390 -0.0804
12058TIP3    H157665   4.296   5.405   2.036 -0.2259  0.5279 -2.6926
12058TIP3    H257666   4.442   5.430   2.066 -0.7122 -1.1106  1.3871
12059TIP3   OH257667   6.581   4.718  11.690 -0.3654 -0.2915 -0.4542
12059TIP3    H157668   6.659   4.695  11.741  0.8549  2.2937 -1.0709
12059TIP3    H257669   6.592   4.672  11.607  0.4827  0.0059 -0.5139
12060TIP3   OH257670   0.811   2.425   3.162  0.0589  0.0853 -0.1029
12060TIP3    H157671   0.852   2.359   3.106 -1.5385  0.4769 -1.7916
12060TIP3    H257672   0.787   2.496   3.102  0.1602  1.4322  1.4111
12061TIP3   OH257673   5.868   4.665   5.221 -0.4902 -0.2772 -0.3756
12061TIP3    H157674   5.818   4.703   5.149 -0.3423  0.0522 -0.3042
12061TIP3    H257675   5.868   4.571   5.203 -2.2233 -0.4331  0.3207
12062TIP3   OH257676   4.358   6.505   6.691 -0.0792 -0.0363 -0.0700
12062TIP3    H157677   4.274   6.469   6.716 -0.6557  0.8746 -0.6349
12062TIP3    H257678   4.394   6.542   6.771  0.1724 -1.1689  0.3480
12063TIP3   OH257679   1.367   0.397  17.252  0.9820  0.3097  0.1177
12063TIP3    H157680   1.404   0.313  17.227  4.3424  0.9667  2.5158
12063TIP3    H257681   1.309   0.377  17.325 -0.4350 -0.2204 -1.1187
12064TIP3   OH257682   3.104   1.543   1.458  0.1050 -0.4254  0.0883
12064TIP3    H157683   3.085   1.459   1.416 -0.5184 -0.8331  1.1705
12064TIP3    H257684   3.018   1.582   1.473  0.4043  0.6367 -0.8301
12065TIP3   OH257685   4.130   4.886  11.711 -0.1326 -0.7626 -0.8496
12065TIP3    H157686   4.067   4.941  11.758  1.1783  0.7070 -0.7883
12065TIP3    H257687   4.080   4.808  11.688 -1.5355 -0.3468  0.6468
12066TIP3   OH257688   0.034   6.281   2.706 -0.0647  0.2477  0.2507
12066TIP3    H157689  -0.001   6.195   2.731 -0.4731  0.4761  0.4695
12066TIP3    H257690   0.083   6.264   2.626  2.3653 -0.7268  1.9028
12067TIP3   OH257691   4.624   4.914  15.120  0.5290 -0.3427 -0.2942
12067TIP3    H157692   4.599   4.885  15.208 -1.3400  2.3845  0.1494
12067TIP3    H257693   4.719   4.922  15.123  0.6710 -2.1073  0.8642
12068TIP3   OH257694   2.158   4.365  15.142  0.1508 -0.8065 -0.5107
12068TIP3    H157695   2.130   4.454  15.121 -1.2754 -1.0511  0.3171
12068TIP3    H257696   2.174   4.324  15.056 -2.4528 -0.7866 -1.0428
12069TIP3   OH257697   0.992   1.893  13.734  0.1532  0.1230  0.2880
12069TIP3    H157698   1.083   1.914  13.714  0.2250 -0.6917 -0.2295
12069TIP3    H257699   0.953   1.869  13.650 -0.5660  0.5505  0.4905
12070TIP3   OH257700   0.575   4.393  15.481  0.0920  0.2489 -0.6364
12070TIP3    H157701   0.570   4.444  15.400 -0.4856  0.3054 -0.5645
12070TIP3    H257702   0.485   4.373  15.503  0.2642 -0.0276 -0.1656
12071TIP3   OH257703   4.339   5.520   2.782  0.1074 -0.0448  0.1663
12071TIP3    H157704   4.382   5.533   2.698 -0.1945  1.6106  0.2511
12071TIP3    H257705   4.402   5.472   2.835  0.3972 -0.8686 -0.9132
12072TIP3   OH257706   5.065   4.805  14.948 -0.1207 -0.3771  0.4751
12072TIP3    H157707   5.127   4.733  14.940 -0.7702 -0.8412 -0.5832
12072TIP3    H257708   5.053   4.836  14.858  0.3072  1.1919  0.9411
12073TIP3   OH257709   1.331   5.579   0.705  0.3287  0.0960 -0.3219
12073TIP3    H157710   1.382   5.646   0.750 -0.0981  0.3451 -0.2032
12073TIP3    H257711   1.390   5.504   0.698  0.0482 -0.3294  1.6148
12074TIP3   OH257712   0.902   4.476  14.170  0.2977  0.3770 -0.0958
12074TIP3    H157713   0.835   4.542  14.160 -2.1629 -1.7324  1.6957
12074TIP3    H257714   0.903   4.428  14.087 -1.8636 -0.8108  0.5188
12075TIP3   OH257715   6.009   2.345  12.828 -0.3489  0.2846 -0.6676
12075TIP3    H157716   5.957   2.271  12.860 -0.2285 -0.6241 -2.4992
12075TIP3    H257717   6.094   2.336  12.872 -0.5962 -0.2283 -0.2935
12076TIP3   OH257718   3.094   6.331  11.672 -0.3453  0.2805 -0.2051
12076TIP3    H157719   3.080   6.371  11.586  0.5437 -0.2547 -0.6078
12076TIP3    H257720   3.097   6.405  11.733 -2.4884  0.5747 -0.4122
12077TIP3   OH257721   5.909   0.521  16.544 -0.3049 -0.2531 -0.8722
12077TIP3    H157722   5.849   0.489  16.477  0.5228 -1.6049 -1.0047
12077TIP3    H257723   5.996   0.509  16.505  0.0627  1.7084 -0.6998
12078TIP3   OH257724   0.295   4.551   2.448  0.0585  0.2619  0.0658
12078TIP3    H157725   0.334   4.622   2.396 -0.6155  0.5428 -0.0582
12078TIP3    H257726   0.213   4.531   2.403 -0.6368  0.6549  1.1359
12079TIP3   OH257727   1.160   0.353  10.826 -0.1181 -0.0023  0.0017
12079TIP3    H157728   1.215   0.367  10.749  2.4265 -0.4450  1.6574
12079TIP3    H257729   1.074   0.387  10.802  1.0867  1.4120 -2.4213
12080TIP3   OH257730   6.604   4.312  15.376  0.0666 -0.0499 -0.5673
12080TIP3    H157731   6.574   4.392  15.418 -0.1899  0.7177 -2.1593
12080TIP3    H257732   6.699   4.312  15.387 -0.1744 -0.9732  1.8776
12081TIP3   OH257733   4.651   4.482  13.659 -0.1620 -0.0985 -0.1039
12081TIP3    H157734   4.692   4.395  13.656 -1.1773 -0.5481 -2.0229
12081TIP3    H257735   4.721   4.540  13.688  1.0498 -1.2908 -0.5738
12082TIP3   OH257736   1.988   3.005   5.046 -0.2094 -0.1461  0.1297
12082TIP3    H157737   1.966   3.050   5.128 -1.1548 -0.1883 -0.0949
12082TIP3    H257738   1.914   3.022   4.988  0.1649 -0.6428 -0.5095
12083TIP3   OH257739   0.953   1.322   4.290 -0.4421 -0.1819 -0.1452
12083TIP3    H157740   0.908   1.342   4.372  0.7492  0.7588  0.2841
12083TIP3    H257741   0.934   1.397   4.234 -0.8291 -0.5875 -0.5643
12084TIP3   OH257742   1.207   3.026   2.580  0.1571  0.2664 -0.0429
12084TIP3    H157743   1.144   3.006   2.649  0.4868  0.2132  0.2459
12084TIP3    H257744   1.276   2.961   2.591  0.6527  0.8182  0.1558
12085TIP3   OH257745   3.417   5.620  12.833 -0.8018 -0.5218 -0.2158
12085TIP3    H157746   3.456   5.631  12.920 -0.0334 -1.5915 -0.4108
12085TIP3    H257747   3.428   5.706  12.791  0.0313 -0.3791  0.2725
12086TIP3   OH257748   5.563   5.732  14.582 -0.1533 -0.3502  0.3838
12086TIP3    H157749   5.606   5.757  14.663  1.6762  0.3738 -0.7740
12086TIP3    H257750   5.628   5.749  14.514 -2.2220  0.6673 -1.4166
12087TIP3   OH257751   1.302   2.283   4.890  0.4618 -0.1068  0.4662
12087TIP3    H157752   1.265   2.214   4.946  0.7235 -0.4854  0.1782
12087TIP3    H257753   1.236   2.296   4.821 -0.1461  0.8031  1.2082
12088TIP3   OH257754   2.871   0.165   2.459 -0.3071 -0.1787  0.3963
12088TIP3    H157755   2.881   0.197   2.369 -0.7290 -0.9452  0.0663
12088TIP3    H257756   2.951   0.115   2.475 -0.1019  0.2036  0.5454
12089TIP3   OH257757   3.907   4.139  11.875  0.5429  0.6757 -0.3972
12089TIP3    H157758   3.839   4.075  11.852  0.1763  0.8730  0.1262
12089TIP3    H257759   3.989   4.096  11.854  0.2111  1.0250 -2.5477
12090TIP3   OH257760   0.461   4.139   0.453 -0.6552 -0.2361 -0.0954
12090TIP3    H157761   0.483   4.051   0.482 -1.8227 -0.3072  0.6372
12090TIP3    H257762   0.526   4.160   0.386  1.4643 -0.4887  1.8320
12091TIP3   OH257763   0.493   6.576   5.091  0.3067 -0.4183 -0.1373
12091TIP3    H157764   0.431   6.527   5.037 -0.0438 -1.3055  1.0386
12091TIP3    H257765   0.483   6.538   5.178  2.9097 -0.9669 -0.0493
12092TIP3   OH257766   4.675   6.773   2.660  0.1482 -0.0645 -0.0996
12092TIP3    H157767   4.642   6.728   2.583 -2.6367  1.1660  0.3085
12092TIP3    H257768   4.756   6.816   2.631 -0.7564  0.1966 -2.2631
12093TIP3   OH257769   6.519   3.365   4.458 -0.3682 -0.4123  0.3502
12093TIP3    H157770   6.579   3.296   4.431 -1.6048 -1.8053  1.0876
12093TIP3    H257771   6.448   3.319   4.503 -1.0461  1.3740  1.1511
12094TIP3   OH257772   2.871   1.711  13.954  0.3913 -0.6806  0.5678
12094TIP3    H157773   2.864   1.672  14.041  0.1132 -0.6736  0.5493
12094TIP3    H257774   2.911   1.797  13.969  1.8666 -1.3379  0.5080
12095TIP3   OH257775   5.610   3.472   1.775 -0.2481 -0.6626 -0.1913
12095TIP3    H157776   5.563   3.466   1.692 -0.9596  0.5334  0.1249
12095TIP3    H257777   5.700   3.496   1.750 -0.6826  0.5862 -0.5453
12096TIP3   OH257778   5.747   2.620  14.666  0.3125  0.9382 -0.6164
12096TIP3    H157779   5.824   2.669  14.636  0.2126  0.8268 -1.0663
12096TIP3    H257780   5.673   2.671  14.633  0.2065  0.5013 -1.0663
12097TIP3   OH257781   1.980   6.223   5.644  0.0265 -0.1878  0.4534
12097TIP3    H157782   2.061   6.209   5.595 -1.5945  0.4987 -2.5735
12097TIP3    H257783   2.001   6.196   5.733  3.4074 -0.5510 -0.3675
12098TIP3   OH257784   0.241   4.598   3.899  0.7043 -0.2027 -0.1881
12098TIP3    H157785   0.197   4.597   3.984 -3.0879  2.8589 -1.9530
12098TIP3    H257786   0.211   4.518   3.856 -0.9826  0.4899 -0.3224
12099TIP3   OH257787   6.356   6.797   0.708 -0.1534 -0.3808 -0.3603
12099TIP3    H157788   6.328   6.824   0.620  0.7660 -0.5879 -0.7144
12099TIP3    H257789   6.394   6.710   0.696  3.4164  1.0959 -0.4069
12100TIP3   OH257790   4.945   3.765   1.701 -0.5714  0.5174  0.3621
12100TIP3    H157791   5.000   3.687   1.695 -1.0726  0.2252 -0.5150
12100TIP3    H257792   4.939   3.783   1.795  2.1284  1.3541  0.4124
12101TIP3   OH257793   0.244   3.385  11.658  0.1828  0.1604 -0.1125
12101TIP3    H157794   0.191   3.313  11.624 -1.3134  0.3033  1.8407
12101TIP3    H257795   0.322   3.342  11.694 -0.6988 -0.4976  1.0430
12102TIP3   OH257796   0.160   4.490   3.302 -0.3332  0.0045 -0.5447
12102TIP3    H157797   0.125   4.479   3.391 -2.1909  2.1280 -0.9736
12102TIP3    H257798   0.091   4.536   3.255  1.0486 -0.2214 -2.8469
12103TIP3   OH257799   1.494   0.872   1.045 -0.0751 -0.5244  0.0613
12103TIP3    H157800   1.586   0.848   1.057  0.5692  1.3778 -0.8501
12103TIP3    H257801   1.468   0.912   1.128  0.3643  0.2424 -0.1609
12104TIP3   OH257802   4.307   0.959   1.503  0.8245 -0.2987  0.0260
12104TIP3    H157803   4.402   0.947   1.511  0.6858 -0.9105  0.8205
12104TIP3    H257804   4.287   1.026   1.569  0.2789 -2.3390  1.9910
12105TIP3   OH257805   3.731   4.886   5.486 -0.0266  0.2286  0.1798
12105TIP3    H157806   3.808   4.929   5.448 -0.7962  0.4319 -1.1807
12105TIP3    H257807   3.734   4.797   5.451 -0.8055  0.4508 -0.4562
12106TIP3   OH257808   2.496   6.785  10.663  0.3992 -0.3029 -0.4179
12106TIP3    H157809   2.523   6.828  10.582  2.7886 -2.4370 -0.8184
12106TIP3    H257810   2.433   6.719  10.636  2.2091 -1.9369 -0.7697
12107TIP3   OH257811   5.976   4.995  10.989  0.1054 -0.2956  0.3153
12107TIP3    H157812   5.927   4.953  11.060  0.0931 -0.2480  0.3347
12107TIP3    H257813   5.911   5.051  10.946  0.6588  1.4740  1.7171
12108TIP3   OH257814   1.433   4.827  13.457  0.6723  0.2899 -0.7847
12108TIP3    H157815   1.378   4.779  13.518  1.0775 -0.1202 -0.7372
12108TIP3    H257816   1.429   4.918  13.487  0.5464  0.1536 -0.3920
12109TIP3   OH257817   5.930   6.736  14.501 -0.3571 -0.8054 -0.3154
12109TIP3    H157818   5.997   6.783  14.551 -0.4186 -0.5504 -0.4737
12109TIP3    H257819   5.979   6.681  14.440 -0.2875 -0.7759 -0.2872
12110TIP3   OH257820   4.328   5.236  17.252  0.3205 -0.5494  0.1579
12110TIP3    H157821   4.289   5.323  17.246 -1.8254 -1.3953  1.2122
12110TIP3    H257822   4.420   5.252  17.272  0.3324  1.4912 -1.3864
12111TIP3   OH257823   6.428   0.884   5.238  0.2962  0.3632 -0.0779
12111TIP3    H157824   6.354   0.838   5.198  0.7927 -2.1816  1.8209
12111TIP3    H257825   6.489   0.898   5.165 -0.6384 -0.3971 -1.0310
12112TIP3   OH257826   5.584   5.159  11.863 -0.0263  0.9042 -0.0365
12112TIP3    H157827   5.491   5.162  11.843 -0.5273 -3.3593  1.1487
12112TIP3    H257828   5.593   5.087  11.926  3.9997  1.4102  0.1156
12113TIP3   OH257829   0.865   6.451  12.226 -0.2627  0.3933 -0.5466
12113TIP3    H157830   0.861   6.456  12.322  0.3638  2.2166 -0.6115
12113TIP3    H257831   0.789   6.500  12.196  1.0385  2.1539 -1.0212
12114TIP3   OH257832   1.569   0.567   3.088 -0.0786 -0.4104  0.0113
12114TIP3    H157833   1.640   0.508   3.115  2.3162  2.3871  0.1640
12114TIP3    H257834   1.536   0.603   3.171  1.0014  1.1937 -0.2213
12115TIP3   OH257835   1.692   6.556   2.297  0.2316 -0.1519 -0.1917
12115TIP3    H157836   1.636   6.558   2.374 -0.5171 -0.6895 -0.7236
12115TIP3    H257837   1.730   6.644   2.293  0.9515 -0.3755  1.2746
12116TIP3   OH257838   3.656   0.586   0.281 -0.0180 -0.1478  0.0758
12116TIP3    H157839   3.611   0.567   0.199 -0.4810 -0.3742  0.3815
12116TIP3    H257840   3.683   0.678   0.272 -2.1872  0.5804  0.6440
12117TIP3   OH257841   0.525   5.180  15.713 -0.4167 -0.1426  0.3141
12117TIP3    H157842   0.431   5.183  15.731 -0.2448  3.9948  0.9911
12117TIP3    H257843   0.565   5.191  15.799  0.5699  2.8643 -0.4587
12118TIP3   OH257844   5.223   2.586  12.032 -0.3206  0.0760 -0.0198
12118TIP3    H157845   5.297   2.643  12.054  0.2853 -1.3915  1.9116
12118TIP3    H257846   5.197   2.547  12.116 -2.3356 -0.5673 -0.9043
12119TIP3   OH257847   2.828   5.093  14.737  0.6895  0.2469 -0.1889
12119TIP3    H157848   2.886   5.157  14.697  3.5723 -1.2092  1.5267
12119TIP3    H257849   2.833   5.017  14.679  0.2630  0.2049 -0.1743
12120TIP3   OH257850   1.779   6.251   0.737 -0.4566  0.4956 -0.3447
12120TIP3    H157851   1.778   6.326   0.677  0.1232  0.2327 -0.6917
12120TIP3    H257852   1.860   6.263   0.788 -0.1093 -0.1652 -0.7471
12121TIP3   OH257853   5.819   3.598   4.432  0.3407  0.1134  0.1636
12121TIP3    H157854   5.724   3.607   4.425  0.2800 -1.3174 -1.2653
12121TIP3    H257855   5.833   3.556   4.518 -0.3781 -0.3466  0.0599
12122TIP3   OH257856   0.751   1.628  14.028 -0.5349 -0.2661  0.4227
12122TIP3    H157857   0.761   1.615  13.934  0.9669  3.6591 -0.0605
12122TIP3    H257858   0.840   1.619  14.063 -1.1248 -1.9924  1.5608
12123TIP3   OH257859   5.858   2.525  16.218 -0.0442 -0.1118  0.6744
12123TIP3    H157860   5.938   2.530  16.270 -0.8538 -0.0337  1.9363
12123TIP3    H257861   5.820   2.613  16.224 -1.1707 -0.6508  1.6362
12124TIP3   OH257862   3.583   0.407   5.281 -0.0711  0.4444  0.5009
12124TIP3    H157863   3.648   0.416   5.212 -1.1214  1.8313 -0.3222
12124TIP3    H257864   3.500   0.432   5.240 -1.1958 -1.6434  1.4378
12125TIP3   OH257865   5.409   2.140  14.339  0.0759  0.3179 -0.2090
12125TIP3    H157866   5.423   2.128  14.245 -0.8708  1.0060 -0.4393
12125TIP3    H257867   5.410   2.052  14.374  0.6130  0.0634 -0.8348
12126TIP3   OH257868   4.516   2.091  17.127  0.0222  0.1951  0.3653
12126TIP3    H157869   4.526   2.082  17.033 -0.3206  0.7093  0.2789
12126TIP3    H257870   4.422   2.101  17.141 -0.0539 -1.1305  0.8811
12127TIP3   OH257871   5.432   2.127   0.177  0.0383  0.0103 -0.0177
12127TIP3    H157872   5.450   2.103   0.267  0.4830 -2.0779 -0.6365
12127TIP3    H257873   5.515   2.160   0.143  0.6135 -1.8475 -0.4622
12128TIP3   OH257874   4.302   2.041  14.783 -0.4218  0.6556  0.1040
12128TIP3    H157875   4.372   2.080  14.836  0.8157  0.4527 -1.3347
12128TIP3    H257876   4.332   2.053  14.693 -0.9118 -1.9938 -0.4330
12129TIP3   OH257877   6.578   1.739  16.587 -0.7356  0.6948 -0.1303
12129TIP3    H157878   6.501   1.699  16.628  0.5712  0.6186  2.3376
12129TIP3    H257879   6.600   1.813  16.644  1.0616  0.6759 -0.7715
12130TIP3   OH257880   3.109   6.006  17.195 -0.3510 -0.0488 -0.1634
12130TIP3    H157881   3.113   5.926  17.144  0.1434 -0.8444  1.1179
12130TIP3    H257882   3.023   6.044  17.173 -0.3253 -0.5870 -1.2407
12131TIP3   OH257883   5.354   6.424   2.649 -0.5333 -0.1747  0.0259
12131TIP3    H157884   5.395   6.368   2.715 -0.5605 -2.9236 -2.1559
12131TIP3    H257885   5.427   6.458   2.597 -0.6823 -0.7089 -0.5433
12132TIP3   OH257886   1.001   3.430  14.696  0.5340 -0.4376  0.1389
12132TIP3    H157887   0.971   3.514  14.731 -1.6438 -0.4468 -1.6052
12132TIP3    H257888   1.053   3.392  14.766  1.8197  2.4895  0.8591
12133TIP3   OH257889   2.348   1.161   1.618  0.6825 -0.7247  0.5573
12133TIP3    H157890   2.259   1.130   1.633  0.5202 -0.2010  0.6950
12133TIP3    H257891   2.363   1.151   1.524  0.6798 -1.3445  0.6236
12134TIP3   OH257892   1.631   2.336   3.759  0.0279 -0.3516 -0.2778
12134TIP3    H157893   1.678   2.403   3.808  0.9134 -2.1799  1.4303
12134TIP3    H257894   1.542   2.370   3.751  0.5569  1.1815  0.2323
12135TIP3   OH257895   6.515   4.557  13.993 -0.2150  0.1032  0.0765
12135TIP3    H157896   6.539   4.515  13.910 -0.5223 -0.4281  0.2563
12135TIP3    H257897   6.531   4.491  14.059 -0.3628  0.3887  0.4004
12136TIP3   OH257898   1.081   0.592  11.286  0.2587  0.1956  0.3842
12136TIP3    H157899   0.994   0.573  11.320  0.1169  0.9864  0.4826
12136TIP3    H257900   1.074   0.681  11.251  0.5624 -0.3761 -1.1839
12137TIP3   OH257901   2.553   2.005   4.860 -0.2663 -0.0103 -0.1314
12137TIP3    H157902   2.495   1.928   4.859 -1.1321  0.6315  0.2259
12137TIP3    H257903   2.507   2.069   4.913 -0.5776  1.5631 -2.2264
12138TIP3   OH257904   6.164   1.020  14.477 -0.9650 -0.7420 -0.1663
12138TIP3    H157905   6.077   0.980  14.470 -1.1234 -0.7068  1.4159
12138TIP3    H257906   6.183   1.019  14.571  0.3873  0.0161 -0.4241
12139TIP3   OH257907   2.400   2.488   3.979 -0.0469 -0.9822 -0.2310
12139TIP3    H157908   2.418   2.548   4.051 -1.7285 -0.1489 -0.4588
12139TIP3    H257909   2.441   2.529   3.903 -0.6751 -0.4134 -0.2698
12140TIP3   OH257910   0.384   6.088   2.075  0.1328 -0.5051 -0.8796
12140TIP3    H157911   0.343   6.030   2.010 -0.8636  0.9388 -1.5734
12140TIP3    H257912   0.355   6.176   2.050  0.6426  0.1809  0.8762
12141TIP3   OH257913   4.986   6.067  16.063 -0.1460 -0.3071  0.7197
12141TIP3    H157914   5.031   6.017  15.995  0.1165  2.0753 -0.9058
12141TIP3    H257915   5.051   6.129  16.094 -1.0332  0.3041  1.3621
12142TIP3   OH257916   0.848   2.935  13.306 -0.4248  0.6320 -0.1385
12142TIP3    H157917   0.886   2.904  13.224 -0.6018  1.1395 -0.4195
12142TIP3    H257918   0.915   2.917  13.372  0.5012  1.8956 -0.6957
12143TIP3   OH257919   4.661   6.203   5.965  0.1114  0.2852  0.3412
12143TIP3    H157920   4.686   6.217   6.056 -0.8780  1.2227  0.4749
12143TIP3    H257921   4.585   6.145   5.970 -0.2273  0.7113  0.1374
12144TIP3   OH257922   5.553   6.563  13.820  0.2035  0.8529 -0.1941
12144TIP3    H157923   5.495   6.570  13.896  0.1944 -0.4444 -0.0686
12144TIP3    H257924   5.502   6.511  13.757  0.8470  0.5565 -0.4678
12145TIP3   OH257925   2.024   3.017   1.370  0.4111 -0.1726 -0.3038
12145TIP3    H157926   1.943   2.970   1.353 -0.1961  0.4757  0.7364
12145TIP3    H257927   2.044   3.062   1.287 -1.2054  1.0174 -0.0727
12146TIP3   OH257928   0.586   0.120  11.515 -0.5107  0.1365 -0.2950
12146TIP3    H157929   0.647   0.168  11.570 -0.6158 -0.9051  0.7422
12146TIP3    H257930   0.639   0.088  11.442 -0.1230  0.4467 -0.1519
12147TIP3   OH257931   3.139   2.994  14.475  0.4700 -0.4369 -0.1173
12147TIP3    H157932   3.077   3.062  14.450  0.2575 -0.9937 -1.1537
12147TIP3    H257933   3.201   3.038  14.534  0.1922  0.5915 -0.5829
12148TIP3   OH257934   2.977   1.291  15.468  0.5580  0.4159 -0.6574
12148TIP3    H157935   2.917   1.353  15.427  0.3395 -0.2791 -1.4081
12148TIP3    H257936   3.011   1.239  15.396  2.1354  0.8536 -0.2479
12149TIP3   OH257937   4.642   5.486  15.294 -0.7226 -0.1353  0.2103
12149TIP3    H157938   4.630   5.504  15.201  0.7963 -2.6877 -0.5416
12149TIP3    H257939   4.723   5.532  15.316 -1.2433  0.7197  0.3573
12150TIP3   OH257940   0.418   3.593   2.878  0.0969  0.2354 -0.1382
12150TIP3    H157941   0.461   3.626   2.957  0.8912  0.6024 -0.7146
12150TIP3    H257942   0.460   3.509   2.860 -1.4025 -0.7460  0.9009
12151TIP3   OH257943   6.679   0.551  13.362  0.4307 -0.5548 -0.3469
12151TIP3    H157944   6.601   0.507  13.328 -0.2973  0.7632 -0.4099
12151TIP3    H257945   6.747   0.484  13.359 -0.5484 -1.5499 -0.8495
12152TIP3   OH257946   6.646   5.224  10.772  0.0067  0.2581 -0.1702
12152TIP3    H157947   6.572   5.169  10.797  0.0549  1.1945  2.1637
12152TIP3    H257948   6.631   5.243  10.679 -1.6495 -1.1219 -0.2179
12153TIP3   OH257949   2.286   0.997  15.258  0.3715  0.3656  0.0361
12153TIP3    H157950   2.250   0.922  15.305  1.2097  0.1709  0.3731
12153TIP3    H257951   2.210   1.054  15.243 -0.2647 -0.5233 -0.1915
12154TIP3   OH257952   3.882   5.720   3.320  0.0342 -0.2120  0.1398
12154TIP3    H157953   3.841   5.719   3.407 -0.8792 -0.0558 -0.2832
12154TIP3    H257954   3.971   5.688   3.335  0.6513  1.9893  1.5155
12155TIP3   OH257955   2.849   5.935   5.325  0.3414  0.0365 -0.3380
12155TIP3    H157956   2.849   5.981   5.408  2.6538 -0.0523 -0.2632
12155TIP3    H257957   2.940   5.937   5.295 -0.1315 -1.4177 -2.0295
12156TIP3   OH257958   5.216   0.017  15.529  0.2997  0.1268 -0.3694
12156TIP3    H157959   5.207   0.056  15.616  1.5281  0.4120 -0.3666
12156TIP3    H257960   5.144   0.055  15.479 -0.7232 -0.4335  0.6672
12157TIP3   OH257961   1.117   5.892  12.555 -0.4178  0.0610  1.1962
12157TIP3    H157962   1.102   5.877  12.648 -0.2683  0.8013  1.3409
12157TIP3    H257963   1.139   5.805  12.520  0.0585 -0.1307  1.9483
12158TIP3   OH257964   4.348   6.495   1.707 -0.3154  0.2110 -0.6230
12158TIP3    H157965   4.422   6.440   1.681 -0.1745  0.2255 -0.2599
12158TIP3    H257966   4.386   6.582   1.717 -0.6306  0.4659 -1.6500
12159TIP3   OH257967   2.666   4.984  14.412 -0.3860 -0.1020  0.1057
12159TIP3    H157968   2.675   5.037  14.333 -1.1812  0.9115  0.6974
12159TIP3    H257969   2.614   5.037  14.472 -1.8516 -1.8406  0.4276
12160TIP3   OH257970   1.263   3.762   1.146 -0.0598 -0.4521  0.0212
12160TIP3    H157971   1.283   3.670   1.128  1.9108  0.1229 -0.8611
12160TIP3    H257972   1.345   3.808   1.130 -1.3786  1.6566 -0.8614
12161TIP3   OH257973   1.906   5.621   5.736  0.0293 -0.4782 -0.1170
12161TIP3    H157974   1.887   5.713   5.713 -1.1321 -0.6837 -0.0307
12161TIP3    H257975   1.862   5.609   5.820  0.9205 -0.8698  0.2906
12162TIP3   OH257976   2.191   5.113  15.891 -0.3072  0.1974 -0.0816
12162TIP3    H157977   2.169   5.020  15.897 -0.4058  0.0833 -2.0732
12162TIP3    H257978   2.267   5.116  15.833 -2.9491  1.6907 -3.6258
12163TIP3   OH257979   6.436   5.275  11.878  0.2742  0.2482  0.3251
12163TIP3    H157980   6.462   5.325  11.800 -1.2093  0.9502  0.2586
12163TIP3    H257981   6.346   5.248  11.860  0.4070 -0.8059  1.2005
12164TIP3   OH257982   1.484   6.476  11.893 -0.0271 -0.1292  0.0648
12164TIP3    H157983   1.487   6.569  11.872  0.3583  0.2298  1.6729
12164TIP3    H257984   1.559   6.438  11.847  0.9969  0.7048  1.0252
12165TIP3   OH257985   6.480   4.173  14.436  0.3992  0.7976  0.6490
12165TIP3    H157986   6.457   4.165  14.344  1.0186  0.8851  0.4802
12165TIP3    H257987   6.433   4.250  14.466  2.5421  2.5661 -0.3772
12166TIP3   OH257988   4.480   4.869   0.984  0.6748 -0.3881  0.0785
12166TIP3    H157989   4.540   4.828   1.046  0.1650  1.0220  1.5207
12166TIP3    H257990   4.519   4.955   0.966 -0.0646 -0.1170 -0.2517
12167TIP3   OH257991   6.438   4.889  12.998 -0.4251 -0.4382  0.4087
12167TIP3    H157992   6.414   4.797  12.989  0.7970 -0.5380 -2.7584
12167TIP3    H257993   6.357   4.937  12.980 -0.5521 -0.8853 -0.2345
12168TIP3   OH257994   4.731   0.827   0.541  0.3852 -0.4258  0.0967
12168TIP3    H157995   4.800   0.827   0.607  0.3538 -0.8629  0.1348
12168TIP3    H257996   4.654   0.794   0.588 -0.2495  1.4974  0.4556
12169TIP3   OH257997   2.603   3.659   3.302 -0.9053 -0.0768  0.2098
12169TIP3    H157998   2.661   3.583   3.304 -0.2371  0.4436  1.1178
12169TIP3    H257999   2.661   3.734   3.286 -1.6970  0.1357 -1.8816
12170TIP3   OH258000   1.705   4.589   4.804  0.1466  0.1700 -0.3809
12170TIP3    H158001   1.777   4.590   4.740  1.0351  0.3696  0.6137
12170TIP3    H258002   1.734   4.528   4.871  0.7050  2.4638  1.5225
12171TIP3   OH258003   6.574   5.140   3.768 -0.0399 -0.7930 -0.3184
12171TIP3    H158004   6.588   5.046   3.761  0.4001 -0.6983 -0.6662
12171TIP3    H258005   6.546   5.153   3.859 -3.6280 -1.7014 -1.2173
12172TIP3   OH258006   5.788   5.684  12.542  0.0724 -0.0064 -0.3773
12172TIP3    H158007   5.876   5.717  12.522  0.3602  0.4917  1.6553
12172TIP3    H258008   5.801   5.621  12.613 -1.1799 -0.2272 -0.3260
12173TIP3   OH258009   2.669   6.372   5.018 -0.2128  0.6565 -0.2336
12173TIP3    H158010   2.733   6.326   5.073 -0.4670 -0.5490 -0.9192
12173TIP3    H258011   2.658   6.457   5.060  1.3946  0.6590  0.2264
12174TIP3   OH258012   3.668   0.834  14.968  0.2043  0.1172  0.0003
12174TIP3    H158013   3.668   0.738  14.971 -0.4397  0.1051 -0.2680
12174TIP3    H258014   3.613   0.860  15.042  0.2952  0.2772  0.0118
12175TIP3   OH258015   2.579   2.471   2.422 -0.1168  0.1902 -0.0545
12175TIP3    H158016   2.632   2.519   2.359 -1.0241 -0.4467 -1.3282
12175TIP3    H258017   2.493   2.464   2.381 -0.8774  0.2171  1.4829
12176TIP3   OH258018   0.024   1.198  14.422  0.3819  0.0834 -0.4014
12176TIP3    H158019  -0.054   1.158  14.462 -0.7651  3.0865  0.5574
12176TIP3    H258020   0.002   1.203  14.329 -0.4524  0.5531 -0.1942
12177TIP3   OH258021   3.135   6.588   0.897  0.0650  0.0252 -0.2816
12177TIP3    H158022   3.175   6.509   0.934 -1.2360 -0.5537 -0.0849
12177TIP3    H258023   3.173   6.660   0.947 -1.4766 -0.7201  2.0873
12178TIP3   OH258024   3.012   2.306   3.446  0.2616  0.2781 -0.9058
12178TIP3    H158025   3.007   2.368   3.374 -2.6253  3.3381  1.7558
12178TIP3    H258026   3.092   2.330   3.493  0.2407  0.6533 -1.0599
12179TIP3   OH258027   1.042   1.424  13.875 -0.0653 -0.0331 -0.1287
12179TIP3    H158028   1.115   1.440  13.815  1.1497  1.9203  1.8116
12179TIP3    H258029   0.981   1.496  13.857  1.6254  2.2586  2.8931
12180TIP3   OH258030   4.169   2.302  12.644 -0.2416 -0.5239  0.0825
12180TIP3    H158031   4.251   2.278  12.687  0.1491 -0.4402 -0.6147
12180TIP3    H258032   4.191   2.310  12.551 -1.2699 -1.5915 -0.2665
12181TIP3   OH258033   5.210   4.321   3.640  0.2678 -0.0385 -0.0259
12181TIP3    H158034   5.204   4.273   3.557  1.5017  0.5789 -0.4830
12181TIP3    H258035   5.294   4.295   3.677  0.9506  1.7289 -0.2716
12182TIP3   OH258036   6.685   0.223  16.657  0.2381  0.3250  0.1689
12182TIP3    H158037   6.669   0.177  16.574  1.2436 -0.0723  0.1910
12182TIP3    H258038   6.598   0.246  16.689 -0.1666  0.3285 -0.9146
12183TIP3   OH258039   0.964   1.622   4.368  0.2205  0.4389  0.3719
12183TIP3    H158040   0.954   1.615   4.273 -0.8223  2.1079  0.3338
12183TIP3    H258041   1.058   1.612   4.383  0.8009  3.1307 -1.1297
12184TIP3   OH258042   2.009   4.289   2.557  0.0782 -0.3558  0.8143
12184TIP3    H158043   2.054   4.205   2.569  1.0344 -0.0190 -0.3114
12184TIP3    H258044   2.072   4.343   2.508 -1.6652  0.0283 -1.0592
12185TIP3   OH258045   3.630   3.307   2.537  0.5502 -0.0150 -0.2565
12185TIP3    H158046   3.714   3.341   2.567  0.6894 -0.8810  0.3450
12185TIP3    H258047   3.637   3.212   2.547 -0.8220 -0.0338  0.6955
12186TIP3   OH258048   1.799   4.863  17.164 -0.3010 -0.2845  0.2612
12186TIP3    H158049   1.723   4.854  17.220  0.1975 -2.7657  0.6105
12186TIP3    H258050   1.790   4.793  17.100  0.6247  0.7103 -0.9958
12187TIP3   OH258051   1.754   6.545  16.284  0.6561  0.5473 -1.2090
12187TIP3    H158052   1.820   6.482  16.315  1.4905  0.5829 -2.8960
12187TIP3    H258053   1.687   6.491  16.243  0.5949  0.6599 -1.2569
12188TIP3   OH258054   3.796   2.991  11.254  0.4039 -0.3618 -0.3170
12188TIP3    H158055   3.772   3.067  11.201 -0.4211 -0.3963 -0.0084
12188TIP3    H258056   3.869   3.022  11.308 -0.3194  0.4057  0.2447
12189TIP3   OH258057   5.789   1.334  13.920  0.3397 -0.1186  0.5231
12189TIP3    H158058   5.823   1.280  13.848  0.9835 -1.5233  1.8508
12189TIP3    H258059   5.702   1.298  13.937  0.3512 -0.0507  0.7234
12190TIP3   OH258060   1.082   5.128  13.964  0.5019  0.1763  0.0827
12190TIP3    H158061   0.999   5.158  13.926  0.3414  0.2062  0.4593
12190TIP3    H258062   1.131   5.208  13.982  0.2236  0.1996  0.7452
12191TIP3   OH258063   5.485   2.422  17.209  0.3583 -0.3174 -0.0902
12191TIP3    H158064   5.512   2.332  17.190 -0.9059 -0.4840 -1.1390
12191TIP3    H258065   5.547   2.477  17.159 -1.5960 -0.7122 -3.0976
12192TIP3   OH258066   4.528   5.672   0.821 -0.6559  0.0656 -0.3876
12192TIP3    H158067   4.486   5.756   0.838  0.5983  0.6271 -0.0236
12192TIP3    H258068   4.590   5.662   0.893 -1.6410 -1.7427  0.2507
12193TIP3   OH258069   4.751   1.567   6.209  0.1074 -0.0051 -0.2006
12193TIP3    H158070   4.771   1.634   6.274  0.1673  1.4266 -1.6375
12193TIP3    H258071   4.675   1.601   6.162  0.7882 -0.4093 -1.6543
12194TIP3   OH258072   2.149   5.457   3.275 -0.5160  0.1507 -0.0438
12194TIP3    H158073   2.149   5.552   3.270 -1.8285  0.3058  2.4058
12194TIP3    H258074   2.100   5.428   3.198 -0.8742  1.4637 -0.3059
12195TIP3   OH258075   1.878   1.546  12.972 -0.2102  0.1780  1.1364
12195TIP3    H158076   1.783   1.544  12.975 -0.2051  1.2472  2.4724
12195TIP3    H258077   1.898   1.612  12.905 -0.3729 -2.0247 -1.1649
12196TIP3   OH258078   6.615   6.340  14.900 -0.0873  0.1424 -0.3693
12196TIP3    H158079   6.519   6.336  14.905 -0.1098  2.1347  2.4605
12196TIP3    H258080   6.645   6.258  14.937 -0.7015 -0.1440 -0.5024
12197TIP3   OH258081   6.118   4.353  17.144  0.5709  0.3838  0.0607
12197TIP3    H158082   6.060   4.306  17.204  0.6867  0.4489  0.2257
12197TIP3    H258083   6.062   4.380  17.072  0.6487 -0.6538 -0.4011
12198TIP3   OH258084   4.361   6.641   2.333 -0.0767 -0.3926 -0.1968
12198TIP3    H158085   4.349   6.629   2.427 -1.5204  0.3422 -0.2782
12198TIP3    H258086   4.324   6.562   2.294  0.8905 -0.8856 -0.1457
12199TIP3   OH258087   5.211   0.565  15.938  0.0886  0.4681 -0.6444
12199TIP3    H158088   5.162   0.630  15.989 -1.7892 -2.0066  0.8592
12199TIP3    H258089   5.151   0.540  15.868  0.1603 -0.7375 -0.2879
12200TIP3   OH258090   3.790   5.586   1.947 -0.5542  0.0651  0.4020
12200TIP3    H158091   3.741   5.535   2.011  0.5289 -0.9359  0.4594
12200TIP3    H258092   3.739   5.581   1.867 -0.5252 -0.9916  0.4524
12201TIP3   OH258093   2.809   6.718  16.158  0.1592 -0.6604  0.0238
12201TIP3    H158094   2.895   6.721  16.116  0.3809 -1.5905  0.4127
12201TIP3    H258095   2.762   6.649  16.112 -0.3959 -0.1284 -0.2128
12202TIP3   OH258096   6.677   0.436  11.318 -0.1189  0.4625  0.1354
12202TIP3    H158097   6.749   0.386  11.279 -0.7806 -0.5497  0.1984
12202TIP3    H258098   6.698   0.527  11.298  0.5841  0.0912 -0.8593
12203TIP3   OH258099   2.481   3.986   3.879  0.2437  0.0318  0.2478
12203TIP3    H158100   2.474   3.971   3.785 -2.5095  0.4345  0.3501
12203TIP3    H258101   2.393   3.971   3.912  0.9475  0.9336  2.6207
12204TIP3   OH258102   5.872   0.612   5.444 -0.0846  0.3205 -0.2692
12204TIP3    H158103   5.830   0.650   5.368 -1.1082 -0.5528 -0.1446
12204TIP3    H258104   5.925   0.683   5.480 -0.5300  1.0769 -1.0960
12205TIP3   OH258105   4.700   1.205  12.205 -0.1617 -0.0478 -0.0351
12205TIP3    H158106   4.783   1.238  12.172 -0.3515 -0.0203 -0.4870
12205TIP3    H258107   4.702   1.111  12.189 -0.8501  0.1669 -1.4395
12206TIP3   OH258108   3.682   5.085  16.080  0.2748 -0.0425  0.0217
12206TIP3    H158109   3.604   5.092  16.134  0.6370 -1.6287  0.7818
12206TIP3    H258110   3.657   5.123  15.996 -1.3444 -0.5980  0.2311
12207TIP3   OH258111   4.956   3.091  14.440  0.6477  0.1567  0.5865
12207TIP3    H158112   4.959   3.160  14.374  0.1391 -0.1030  0.2880
12207TIP3    H258113   4.868   3.098  14.478  0.2176 -1.0164 -0.1855
12208TIP3   OH258114   5.527   0.832  13.961 -0.4267  0.6428  0.0953
12208TIP3    H158115   5.446   0.872  13.931 -0.9967 -0.6666 -0.1486
12208TIP3    H258116   5.546   0.875  14.045 -0.8995  1.5599 -0.2641
12209TIP3   OH258117   6.759   3.299  13.895  0.1217  0.2441 -0.1595
12209TIP3    H158118   6.748   3.237  13.823  0.0146 -0.4089  0.4195
12209TIP3    H258119   6.832   3.264  13.946 -0.0460  0.5073  0.2577
12210TIP3   OH258120   2.401   0.656   4.870 -0.1227  0.1251  0.3428
12210TIP3    H158121   2.399   0.594   4.797  0.6916  0.6333 -0.1163
12210TIP3    H258122   2.405   0.742   4.828 -0.7812  0.4748  0.9809
12211TIP3   OH258123   3.328   5.011   3.103 -0.2876 -0.3716 -0.3297
12211TIP3    H158124   3.341   5.064   3.183  3.6452 -0.4282 -0.8018
12211TIP3    H258125   3.399   5.040   3.045 -2.7383 -0.7680 -3.5951
12212TIP3   OH258126   5.338   0.274  17.185  0.9805  0.5968  0.0747
12212TIP3    H158127   5.372   0.207  17.126 -0.3750  0.0781 -0.1389
12212TIP3    H258128   5.379   0.355  17.156  2.7309 -0.1505  0.4113
12213TIP3   OH258129   1.469   6.080  12.762 -0.3237  0.1708  0.6250
12213TIP3    H158130   1.411   6.154  12.747 -1.6337 -0.5082  2.1034
12213TIP3    H258131   1.502   6.092  12.851  2.0408  0.6815 -0.2912
12214TIP3   OH258132   1.875   0.138  12.942  0.6835 -0.8612  0.0823
12214TIP3    H158133   1.834   0.119  12.858  3.6119  0.3252 -1.6923
12214TIP3    H258134   1.805   0.173  12.996 -0.5564  1.6871 -3.0476
12215TIP3   OH258135   0.659   3.565   1.181 -0.4217  0.2072  0.5914
12215TIP3    H158136   0.639   3.658   1.190  1.4994  0.4669  2.6557
12215TIP3    H258137   0.664   3.532   1.271  2.5448 -1.0519  0.0575
12216TIP3   OH258138   1.808   1.099   0.057  0.3034 -0.1124 -0.0253
12216TIP3    H158139   1.873   1.068   0.120 -1.4223 -0.6428  1.5468
12216TIP3    H258140   1.819   1.043  -0.019  0.9264 -0.9560  0.6798
12217TIP3   OH258141   2.052   3.812   6.143 -0.0045 -0.1795  0.0905
12217TIP3    H158142   2.107   3.744   6.180 -0.0267 -0.1102  0.2517
12217TIP3    H258143   1.993   3.837   6.214  0.2709  0.2904  0.1554
12218TIP3   OH258144   2.618   0.265  13.493 -0.0755  0.3461 -0.0572
12218TIP3    H158145   2.645   0.256  13.584  1.6532 -1.6203 -0.7390
12218TIP3    H258146   2.541   0.209  13.485 -0.8241  1.2811  0.4004
12219TIP3   OH258147   6.743   0.268  12.671 -0.2160 -0.3658 -0.3443
12219TIP3    H158148   6.789   0.221  12.741  1.2712 -0.8201 -1.5962
12219TIP3    H258149   6.788   0.353  12.665 -2.3605  0.9286  1.3507
12220TIP3   OH258150   4.581   5.388  17.285  0.6738  0.3755  0.3659
12220TIP3    H158151   4.617   5.383  17.373  0.2547  2.5587  0.7060
12220TIP3    H258152   4.651   5.356  17.228  1.0178 -0.8516  1.4545
12221TIP3   OH258153   1.518   2.289  11.578  0.4127  0.4307  0.1721
12221TIP3    H158154   1.537   2.232  11.652  0.1449  1.8776  1.3787
12221TIP3    H258155   1.565   2.250  11.504 -0.3217 -1.7061  0.8192
12222TIP3   OH258156   2.139   1.456  11.250  0.5561 -0.3337  0.0184
12222TIP3    H158157   2.054   1.476  11.211  0.5815  0.0070  0.1368
12222TIP3    H258158   2.148   1.361  11.240 -0.0541 -0.4385  0.4475
12223TIP3   OH258159   0.688   3.152  11.743  0.0101 -0.2292  0.0353
12223TIP3    H158160   0.672   3.112  11.829  0.2126 -0.0538  0.1549
12223TIP3    H258161   0.777   3.187  11.749  1.1288 -2.7039 -1.2015
12224TIP3   OH258162   0.834   4.426   1.547 -0.2163 -0.4134  0.6103
12224TIP3    H158163   0.814   4.486   1.620 -0.3625 -1.5378  1.5010
12224TIP3    H258164   0.775   4.453   1.477 -1.2265 -0.3652  1.4648
12225TIP3   OH258165   6.020   1.675  16.695 -1.0537  0.6354  0.5424
12225TIP3    H158166   5.962   1.746  16.722 -1.0064  1.1371 -0.6380
12225TIP3    H258167   6.095   1.720  16.655 -0.5585 -0.0546  0.6797
12226TIP3   OH258168   6.707   5.370   5.890  0.1077  0.2143 -0.6776
12226TIP3    H158169   6.732   5.282   5.918 -1.3246  0.2358  0.7136
12226TIP3    H258170   6.691   5.362   5.796  0.3000 -0.9287 -0.6193
12227TIP3   OH258171   3.490   3.285  12.064 -0.6389  0.1153  0.0306
12227TIP3    H158172   3.476   3.227  11.990 -1.7585  0.4567 -0.0388
12227TIP3    H258173   3.585   3.288  12.075 -0.5265 -0.9403 -0.5805
12228TIP3   OH258174   1.426   4.258   4.823 -0.1364 -0.1027 -0.0470
12228TIP3    H158175   1.355   4.316   4.849 -1.8317 -2.0042 -0.3413
12228TIP3    H258176   1.426   4.261   4.727 -0.0998 -0.4280 -0.0581
12229TIP3   OH258177   1.837   5.901   5.736 -0.0468 -0.5633 -0.2089
12229TIP3    H158178   1.808   5.975   5.682 -1.3726  0.1440  1.4515
12229TIP3    H258179   1.917   5.933   5.778 -0.2733 -0.2932  0.0194
12230TIP3   OH258180   0.670   6.169  12.261  0.8702 -0.0303  0.0655
12230TIP3    H158181   0.758   6.148  12.230  1.0279  0.8297 -0.0764
12230TIP3    H258182   0.632   6.225  12.193  0.4947  0.2243  0.4776
12231TIP3   OH258183   1.687   2.067   4.569 -0.3820  0.1694 -0.1324
12231TIP3    H158184   1.751   2.120   4.521  2.4589 -3.1789 -0.1701
12231TIP3    H258185   1.714   2.073   4.660  0.1687 -1.4703 -0.1774
12232TIP3   OH258186   5.475   4.899   4.363  0.3520  0.0685  0.8083
12232TIP3    H158187   5.416   4.967   4.393 -0.3589 -0.2681  0.2051
12232TIP3    H258188   5.458   4.892   4.269 -0.0525 -1.3705  0.9660
12233TIP3   OH258189   1.381   3.232   1.717  0.1381  0.2143 -0.5564
12233TIP3    H158190   1.349   3.271   1.636  0.3047  0.5910 -0.4468
12233TIP3    H258191   1.456   3.287   1.741  0.0204  0.1737 -0.0899
12234TIP3   OH258192   4.424   0.960  14.576  0.0815  0.3590  0.2671
12234TIP3    H158193   4.482   0.884  14.578  1.7811  1.6097  0.1001
12234TIP3    H258194   4.479   1.031  14.542 -1.8864  1.3106 -1.0629
12235TIP3   OH258195   0.586   2.686  16.127  0.3868 -0.9283 -0.4556
12235TIP3    H158196   0.637   2.620  16.173  0.8338 -0.1607  0.1541
12235TIP3    H258197   0.640   2.711  16.052  1.1983  0.3210  0.5177
12236TIP3   OH258198   2.200   6.187  10.851  0.2682 -0.2450  0.1461
12236TIP3    H158199   2.110   6.159  10.835 -0.2570  1.2886  0.4108
12236TIP3    H258200   2.209   6.183  10.947 -0.4444  2.3688  0.3569
12237TIP3   OH258201   4.286   6.788  11.681  0.9320 -0.3016  0.7578
12237TIP3    H158202   4.233   6.742  11.745  2.2448  1.3274  3.0707
12237TIP3    H258203   4.240   6.872  11.669  1.0759 -0.3167  0.0861
12238TIP3   OH258204   6.161   6.617  16.473 -0.1626  0.0682  0.0051
12238TIP3    H158205   6.239   6.672  16.474 -1.0873  1.3903  0.3696
12238TIP3    H258206   6.147   6.597  16.381  1.0245 -0.7977 -0.0042
12239TIP3   OH258207   1.824   6.048   3.447 -0.0701  0.2247  0.2966
12239TIP3    H158208   1.901   6.052   3.391 -0.5986  2.0201 -0.3344
12239TIP3    H258209   1.766   6.117   3.414 -1.1540  0.1219  1.9180
12240TIP3   OH258210   4.238   3.301   1.850 -0.0332  0.6541  0.1214
12240TIP3    H158211   4.172   3.270   1.913  0.6399 -0.6971  0.1981
12240TIP3    H258212   4.292   3.362   1.900  0.8921 -0.8999  1.0862
12241TIP3   OH258213   1.181   0.977   4.307 -0.5359 -0.1078 -0.2904
12241TIP3    H158214   1.276   0.988   4.307 -0.8982  3.4416 -0.1449
12241TIP3    H258215   1.151   1.026   4.231 -2.2503 -1.3388 -0.4299
12242TIP3   OH258216   0.949   0.060  16.163  0.3515 -0.5044  0.3436
12242TIP3    H158217   0.905  -0.012  16.208  1.2865  0.2447  2.5447
12242TIP3    H258218   1.037   0.028  16.146  0.7038  0.0408  1.1342
12243TIP3   OH258219   5.205   2.919  15.547  0.5359  0.9076  0.6648
12243TIP3    H158220   5.263   2.937  15.621  0.0190  0.8865  1.0789
12243TIP3    H258221   5.169   3.005  15.524 -0.4511  0.6987  1.4031
12244TIP3   OH258222   1.222   4.518   4.461  0.2178 -0.3888  0.1481
12244TIP3    H158223   1.278   4.515   4.539 -0.3503 -0.9230  0.5397
12244TIP3    H258224   1.280   4.545   4.390  1.0420 -1.2742  0.4876
12245TIP3   OH258225   1.796   4.121   3.548 -0.4609  0.5745 -0.2899
12245TIP3    H158226   1.765   4.178   3.619  0.3047  1.3476 -0.5596
12245TIP3    H258227   1.890   4.134   3.547 -0.5790  1.5670 -2.2694
12246TIP3   OH258228   5.613   5.924   3.460  0.6867  0.2024 -0.3231
12246TIP3    H158229   5.573   5.875   3.531  0.2253  1.5198  0.3442
12246TIP3    H258230   5.546   5.987   3.434  0.9916 -0.0144 -1.6699
12247TIP3   OH258231   5.899   6.401  11.261 -0.2389 -0.4476 -0.4783
12247TIP3    H158232   5.859   6.479  11.298  0.6582 -0.5830  0.8085
12247TIP3    H258233   5.836   6.331  11.277  0.0395 -0.4605  0.6162
12248TIP3   OH258234   2.678   0.099   3.365 -0.0642 -0.2450  0.5383
12248TIP3    H158235   2.628   0.056   3.435 -0.1998  0.6825  1.0131
12248TIP3    H258236   2.715   0.177   3.406  1.4072 -0.6855  0.0608
12249TIP3   OH258237   6.772   6.443  13.095  0.9229 -0.4874  0.2717
12249TIP3    H158238   6.691   6.419  13.140  0.8663 -0.6362  0.0878
12249TIP3    H258239   6.753   6.528  13.055  1.5011  0.4198  1.8960
12250TIP3   OH258240   0.979   0.486   4.364  0.4464 -0.7543  0.1952
12250TIP3    H158241   1.052   0.539   4.333  0.2330 -0.4330  0.2362
12250TIP3    H258242   0.964   0.515   4.454 -0.9768  0.5509 -0.4521
12251TIP3   OH258243   6.540   5.082   2.252 -0.0532 -0.3325 -0.2594
12251TIP3    H158244   6.634   5.094   2.258  0.1794 -1.4857 -1.4035
12251TIP3    H258245   6.514   5.049   2.338  0.0340  3.2716  1.2664
12252TIP3   OH258246   0.980   0.676   2.879 -0.2705 -0.6456 -0.5286
12252TIP3    H158247   1.050   0.626   2.838 -0.2811 -2.0930  1.1360
12252TIP3    H258248   0.965   0.750   2.821  4.5398  1.2430  0.4442
12253TIP3   OH258249   2.720   5.919  16.694  0.3547  0.5584  0.0667
12253TIP3    H158250   2.705   5.998  16.641 -0.8585  1.0520  1.1169
12253TIP3    H258251   2.634   5.898  16.730  0.4178 -1.9467 -1.1298
12254TIP3   OH258252   1.591   1.724   2.511  0.1340  0.1204  0.7714
12254TIP3    H158253   1.564   1.816   2.513 -0.8237 -0.1248 -0.3177
12254TIP3    H258254   1.600   1.704   2.418 -1.5739 -1.4350  0.9068
12255TIP3   OH258255   3.401   5.068   3.975  0.1887 -0.2968  0.3871
12255TIP3    H158256   3.319   5.028   4.002 -0.3789 -1.2552 -2.5967
12255TIP3    H258257   3.423   5.128   4.047 -3.1856  0.1374  1.1461
12256TIP3   OH258258   5.986   0.095   4.796  0.7837  0.6371 -0.4921
12256TIP3    H158259   5.954   0.151   4.867 -1.2363 -0.5002 -0.4726
12256TIP3    H258260   6.040   0.029   4.841 -1.6292 -0.9212  0.1970
12257TIP3   OH258261   0.891   2.125   4.180  0.2322 -0.3363 -0.1991
12257TIP3    H158262   0.852   2.186   4.117 -0.0988 -1.1376 -0.7736
12257TIP3    H258263   0.869   2.038   4.146 -0.7820 -0.7802  1.5464
12258TIP3   OH258264   5.600   4.017   3.540 -0.3057  0.5478  0.1270
12258TIP3    H158265   5.680   4.036   3.589  0.8885  0.3012 -1.7124
12258TIP3    H258266   5.578   3.927   3.565  0.7949  0.1089 -0.4713
12259TIP3   OH258267   1.815   6.229  14.902 -0.7268 -0.1001  0.6352
12259TIP3    H158268   1.827   6.269  14.988  0.2755 -2.8852  1.8392
12259TIP3    H258269   1.890   6.171  14.892 -0.6764  0.4074 -2.2759
12260TIP3   OH258270   1.573   6.261   0.313 -0.2758  0.1658 -0.2164
12260TIP3    H158271   1.562   6.248   0.218  1.3040 -1.1676 -0.2515
12260TIP3    H258272   1.551   6.352   0.327  0.3927  0.6450 -2.0470
12261TIP3   OH258273   5.184   4.712  15.858  0.3879 -0.5123 -0.2534
12261TIP3    H158274   5.167   4.650  15.929 -1.4010 -1.1504 -1.2069
12261TIP3    H258275   5.213   4.658  15.785 -0.0908 -0.1189 -0.7413
12262TIP3   OH258276   5.185   6.542  15.131  0.5084 -0.4190 -0.5004
12262TIP3    H158277   5.235   6.460  15.135 -0.2721 -0.8714  0.2686
12262TIP3    H258278   5.093   6.514  15.136  0.2499  0.5238  0.1021
12263TIP3   OH258279   0.024   3.199   0.999 -0.6858 -0.1124 -0.1717
12263TIP3    H158280   0.017   3.154   1.083 -1.1897  2.0343  0.9798
12263TIP3    H258281   0.062   3.284   1.021 -1.2194  0.6328 -2.0501
12264TIP3   OH258282   4.878   4.060   3.612 -0.4561 -0.7843  0.2884
12264TIP3    H158283   4.872   4.155   3.621  0.1226 -0.8972  1.8908
12264TIP3    H258284   4.963   4.044   3.572 -0.0435 -0.6986  1.1312
12265TIP3   OH258285   0.125   1.926   2.089  0.1479 -0.5555 -0.5469
12265TIP3    H158286   0.084   1.909   2.174 -0.7510  0.0739 -0.8413
12265TIP3    H258287   0.063   1.890   2.026 -0.9418  2.1789 -1.1003
12266TIP3   OH258288   2.036   6.374   1.699 -0.3004  0.6450  0.2295
12266TIP3    H158289   2.063   6.412   1.615 -0.9051  0.7095  0.0612
12266TIP3    H258290   2.063   6.282   1.693 -0.9923  0.4668 -0.3428
12267TIP3   OH258291   1.854   3.181  14.920 -0.1798  0.0939  0.4871
12267TIP3    H158292   1.823   3.255  14.972  0.6037  1.9425 -1.5881
12267TIP3    H258293   1.775   3.133  14.898 -0.9808  1.6427 -0.1004
12268TIP3   OH258294   3.571   1.344   2.926 -0.1715 -0.0143  0.5783
12268TIP3    H158295   3.584   1.430   2.885 -2.5742  1.1200  2.1232
12268TIP3    H258296   3.574   1.283   2.852  1.2494  1.4073 -0.5892
12269TIP3   OH258297   2.293   0.966  11.417  0.1942 -0.1507 -0.1704
12269TIP3    H158298   2.267   1.028  11.485 -0.4943 -0.0390 -0.5296
12269TIP3    H258299   2.304   1.019  11.339  1.7656 -0.1565  0.0191
12270TIP3   OH258300   5.118   3.455  11.521 -0.2986 -0.1656  0.0237
12270TIP3    H158301   5.198   3.505  11.509 -0.7866  0.5614 -0.2376
12270TIP3    H258302   5.117   3.431  11.613 -0.2547  0.6388  0.2353
12271TIP3   OH258303   4.836   5.293   5.103  0.2529  0.0529  0.0688
12271TIP3    H158304   4.896   5.240   5.050 -1.2027 -1.6587  0.0677
12271TIP3    H258305   4.893   5.354   5.149  1.9113 -0.8847 -0.6722
12272TIP3   OH258306   1.494   1.880   0.836 -0.0849  0.5448  0.0350
12272TIP3    H158307   1.477   1.866   0.929 -2.8181 -0.2529 -0.5199
12272TIP3    H258308   1.487   1.793   0.797  0.9692  0.8773 -0.9361
12273TIP3   OH258309   5.106   6.471   2.498 -0.4696  0.1919  0.2972
12273TIP3    H158310   5.154   6.528   2.437 -1.9247 -0.6167 -1.6401
12273TIP3    H258311   5.175   6.429   2.550  0.7702  1.1841 -0.5139
12274TIP3   OH258312   5.319   5.340  16.355 -0.1041 -0.3066  0.1935
12274TIP3    H158313   5.332   5.377  16.268  1.1785  0.1140  0.5562
12274TIP3    H258314   5.296   5.248  16.339  0.9218 -0.4353 -0.5653
12275TIP3   OH258315   3.001   1.910   3.076 -0.7757  0.4601  0.7235
12275TIP3    H158316   3.089   1.947   3.079 -0.0516 -1.1710  0.2760
12275TIP3    H258317   2.944   1.985   3.057  0.7322  1.2201 -1.0016
12276TIP3   OH258318   3.846   1.848  12.920  0.0457 -0.4552  0.6399
12276TIP3    H158319   3.933   1.888  12.929  0.6000 -1.8785  1.8238
12276TIP3    H258320   3.859   1.777  12.858 -0.6876  0.4492 -0.5692
12277TIP3   OH258321   4.026   6.475  12.754 -0.6403  0.3755 -0.6526
12277TIP3    H158322   4.084   6.542  12.790 -0.4039  0.1451 -0.5964
12277TIP3    H258323   3.959   6.523  12.707 -1.4731  0.7374  0.8671
12278TIP3   OH258324   2.389   3.855  11.897 -0.2723 -0.6619  0.6149
12278TIP3    H158325   2.371   3.913  11.823 -0.9486 -0.2180  1.1253
12278TIP3    H258326   2.414   3.913  11.968  3.8994 -1.2726 -0.2210
12279TIP3   OH258327   4.243   6.493   5.392 -0.2936 -0.4217 -0.4340
12279TIP3    H158328   4.161   6.452   5.416 -0.5877 -0.4524 -1.4903
12279TIP3    H258329   4.307   6.459   5.455 -1.0607 -0.4820  0.3072
12280TIP3   OH258330   2.322   6.074  14.930  0.3840  0.3440  0.3366
12280TIP3    H158331   2.351   6.049  14.843  0.3250  0.2895  0.3332
12280TIP3    H258332   2.289   5.992  14.969  0.4457  0.3604  0.4236
12281TIP3   OH258333   4.958   1.931   4.494  0.2766 -1.1038 -0.3096
12281TIP3    H158334   4.923   1.999   4.552  1.9276 -0.9336  0.5022
12281TIP3    H258335   4.978   1.977   4.413 -1.1431 -1.1654 -0.7239
12282TIP3   OH258336   3.184   6.292   0.972 -0.5018  0.5043 -0.0428
12282TIP3    H158337   3.162   6.248   0.890 -0.6647  1.1436 -0.3430
12282TIP3    H258338   3.279   6.285   0.979 -0.7711 -3.0848  1.7049
12283TIP3   OH258339   4.312   1.322   2.609  0.2647  0.1849  0.4207
12283TIP3    H158340   4.355   1.266   2.545  0.3430  1.1686 -0.4086
12283TIP3    H258341   4.382   1.349   2.668  0.0684 -1.2787  1.3589
12284TIP3   OH258342   6.077   1.508   3.848  0.3932 -0.1246  0.8755
12284TIP3    H158343   6.146   1.572   3.863  0.7730 -0.9504  2.7927
12284TIP3    H258344   6.073   1.499   3.752  1.0101  1.9842  0.6335
12285TIP3   OH258345   5.333   5.096   5.489 -0.6437  0.5256  0.8525
12285TIP3    H158346   5.381   5.028   5.538  0.7909  1.4178  0.7146
12285TIP3    H258347   5.340   5.174   5.544 -0.6983  1.0321  0.1414
12286TIP3   OH258348   2.422   4.618   0.686  0.2364  0.2103 -0.0905
12286TIP3    H158349   2.443   4.653   0.600 -0.8533 -1.4592 -1.0677
12286TIP3    H258350   2.332   4.646   0.702  0.8358  1.5558  1.0740
12287TIP3   OH258351   3.040   3.088  14.935 -0.7111 -0.1068  0.5020
12287TIP3    H158352   3.119   3.140  14.953 -0.9845  0.1132  1.0824
12287TIP3    H258353   2.979   3.149  14.894 -0.6317 -0.2453  0.1731
12288TIP3   OH258354   5.426   4.448  10.522  0.0692 -0.4550 -0.1279
12288TIP3    H158355   5.430   4.392  10.444  0.0861  0.4758 -0.8110
12288TIP3    H258356   5.377   4.397  10.586 -0.1608 -1.1374 -0.8356
12289TIP3   OH258357   4.813   3.269   3.806  0.0354 -0.3018  0.0435
12289TIP3    H158358   4.762   3.335   3.853 -0.2474 -0.4893  0.0001
12289TIP3    H258359   4.834   3.310   3.722 -0.0270 -0.2184  0.0691
12290TIP3   OH258360   5.795   5.785   4.057 -0.0080 -0.2129  0.6356
12290TIP3    H158361   5.762   5.852   3.998 -0.4703 -1.7387 -0.8559
12290TIP3    H258362   5.741   5.708   4.040 -1.0706 -0.2906  4.0465
12291TIP3   OH258363   0.353   2.342  11.551  0.2287 -0.8318 -0.2358
12291TIP3    H158364   0.298   2.310  11.623 -0.1883 -0.0720 -0.2086
12291TIP3    H258365   0.293   2.348  11.476 -0.0055  1.1091  0.0897
12292TIP3   OH258366   4.821   3.077  13.274 -0.1780 -0.4530 -0.5601
12292TIP3    H158367   4.754   3.048  13.336  0.3902 -2.3550 -0.7959
12292TIP3    H258368   4.772   3.113  13.200 -0.8553  1.7309  0.9111
12293TIP3   OH258369   5.267   2.608   4.229  0.1384 -0.5039  0.4981
12293TIP3    H158370   5.309   2.524   4.211  1.7767  0.4369 -0.2428
12293TIP3    H258371   5.283   2.623   4.323  1.4575 -0.1853  0.2364
12294TIP3   OH258372   6.624   5.198  10.502 -0.4094  0.5472  0.6035
12294TIP3    H158373   6.560   5.165  10.439 -0.8692  0.5254  1.0794
12294TIP3    H258374   6.663   5.274  10.459 -0.2796  0.1620  0.0383
12295TIP3   OH258375   4.616   2.934  12.634 -0.1083 -0.4711 -0.8594
12295TIP3    H158376   4.542   2.925  12.694 -0.2176  1.5057 -0.6808
12295TIP3    H258377   4.583   2.986  12.561  0.9742  0.0702 -0.9812
12296TIP3   OH258378   3.677   4.759  11.942 -0.4467 -0.3489  0.1651
12296TIP3    H158379   3.703   4.668  11.931 -1.1774 -0.8190  2.1506
12296TIP3    H258380   3.710   4.803  11.864  0.5402 -2.1712 -0.4646
12297TIP3   OH258381   2.358   0.808  12.979  0.3809 -0.5521  0.0461
12297TIP3    H158382   2.308   0.817  13.060 -0.1642  1.6045 -0.5078
12297TIP3    H258383   2.318   0.734  12.934 -0.1359 -0.9598  1.1674
12298TIP3   OH258384   6.369   6.564   1.575 -0.4387  0.3886 -0.4132
12298TIP3    H158385   6.443   6.513   1.544 -0.9144 -0.8669  0.4808
12298TIP3    H258386   6.347   6.621   1.501  0.1950 -0.5798 -1.3727
12299TIP3   OH258387   3.662   6.196   2.116 -0.2750 -0.6975  0.7366
12299TIP3    H158388   3.718   6.212   2.039 -0.6375 -1.4905  0.3058
12299TIP3    H258389   3.593   6.262   2.109  0.3387 -0.0064  1.0260
12300TIP3   OH258390   5.374   6.455  16.218 -0.1144 -0.1314  0.0442
12300TIP3    H158391   5.425   6.376  16.201 -0.4255 -0.7417  1.8936
12300TIP3    H258392   5.288   6.423  16.246 -0.4274  0.8616  0.2295
12301TIP3   OH258393   4.536   4.923  16.049  0.4851 -0.0886 -0.0317
12301TIP3    H158394   4.484   4.858  16.003  1.9562 -0.9688 -0.5058
12301TIP3    H258395   4.604   4.948  15.987 -0.0528  1.9094  0.1510
12302TIP3   OH258396   0.158   2.830   1.436 -0.4363  0.2322 -0.0787
12302TIP3    H158397   0.113   2.914   1.427 -0.5614  0.1847  0.0866
12302TIP3    H258398   0.087   2.767   1.456 -0.1839  0.3255  1.1550
12303TIP3   OH258399   0.250   6.132  13.917  0.0051  0.2978 -0.4697
12303TIP3    H158400   0.334   6.123  13.872  0.6768  1.2145  0.5672
12303TIP3    H258401   0.199   6.055  13.890  1.1434 -0.2149 -1.1662
12304TIP3   OH258402   2.131   1.906   4.789  0.1971 -0.2736 -0.3332
12304TIP3    H158403   2.051   1.886   4.837 -0.6216  0.3679 -1.4074
12304TIP3    H258404   2.191   1.834   4.812 -0.5995 -0.6433  0.6453
12305TIP3   OH258405   6.410   5.238  14.316  0.0266  0.0663  0.4522
12305TIP3    H158406   6.452   5.324  14.319 -0.9824  0.5818  0.2024
12305TIP3    H258407   6.444   5.192  14.393 -1.0522  1.4741  1.8088
12306TIP3   OH258408   4.839   3.616   4.408  0.3444 -0.3616  0.1662
12306TIP3    H158409   4.895   3.571   4.472 -0.6146 -0.6956  0.7804
12306TIP3    H258410   4.842   3.708   4.435 -0.1950 -0.5254  0.8103
12307TIP3   OH258411   5.652   2.475   3.832  0.3754  0.2580  0.1718
12307TIP3    H158412   5.741   2.504   3.850  0.4190  0.0313  0.3169
12307TIP3    H258413   5.597   2.546   3.864  0.4422 -0.2230  1.3681
12308TIP3   OH258414   1.845   1.834   5.343  0.4173  0.5696 -0.1468
12308TIP3    H158415   1.916   1.778   5.374  0.0873  0.7667  0.9873
12308TIP3    H258416   1.770   1.774   5.335  0.0877  0.8358  0.9790
12309TIP3   OH258417   2.271   3.291  15.267  0.0059  0.7991 -0.6684
12309TIP3    H158418   2.265   3.234  15.191  0.6797 -1.3497  0.8547
12309TIP3    H258419   2.255   3.379  15.232 -2.4482 -0.4343 -2.8278
12310TIP3   OH258420   0.989   1.644  13.303  0.1057  0.3085 -0.0604
12310TIP3    H158421   1.066   1.633  13.248 -0.3640  0.3788 -0.7342
12310TIP3    H258422   0.915   1.643  13.242 -0.3390  1.5462  0.4413
12311TIP3   OH258423   2.404   3.766  15.798 -0.1211  0.0405  0.2621
12311TIP3    H158424   2.359   3.780  15.881 -0.3697 -0.3622  0.1938
12311TIP3    H258425   2.384   3.845  15.747 -0.5670 -0.0401  0.3142
12312TIP3   OH258426   1.867   0.937  13.557  0.4086 -0.1954 -0.5288
12312TIP3    H158427   1.885   0.977  13.642  0.1734  0.4280 -0.7720
12312TIP3    H258428   1.836   0.849  13.578  0.5367 -0.1113  0.0228
12313TIP3   OH258429   4.489   6.046  10.765 -0.0533  0.3191 -0.7624
12313TIP3    H158430   4.411   6.070  10.716 -0.0491 -1.0357 -1.4684
12313TIP3    H258431   4.513   5.959  10.731  2.4612  1.2287 -1.3906
12314TIP3   OH258432   0.885   1.360   5.153  0.1442  0.3389 -0.3128
12314TIP3    H158433   0.943   1.403   5.216 -0.4661 -0.6139  0.9157
12314TIP3    H258434   0.935   1.284   5.123 -0.6511 -0.7724  1.1341
12315TIP3   OH258435   2.356   3.896   1.730  0.0253 -0.2283  0.1677
12315TIP3    H158436   2.432   3.840   1.746  1.3107  0.9173 -1.6867
12315TIP3    H258437   2.349   3.951   1.808  1.2300 -0.2184  0.2810
12316TIP3   OH258438   5.267   2.878  14.020 -0.0269 -0.1308 -0.3779
12316TIP3    H158439   5.287   2.889  14.113  0.6575 -2.0911 -0.2719
12316TIP3    H258440   5.284   2.964  13.981 -2.6793  1.4108  1.7016
12317TIP3   OH258441   1.940   4.989  16.704 -0.5197  0.3689 -0.3151
12317TIP3    H158442   1.947   4.998  16.609  0.8633  0.6620 -0.1985
12317TIP3    H258443   1.965   4.899  16.721  1.4932  0.9476 -0.0428
12318TIP3   OH258444   3.017   3.121   3.768  0.1369  0.2070 -0.5560
12318TIP3    H158445   3.011   3.166   3.684 -0.5786 -1.6562 -1.5321
12318TIP3    H258446   3.100   3.073   3.765 -0.6527 -1.1784 -0.8994
12319TIP3   OH258447   6.574   1.790  13.049  0.3229 -0.0219 -0.1706
12319TIP3    H158448   6.513   1.716  13.047  0.5696 -0.2099 -1.8423
12319TIP3    H258449   6.643   1.762  13.109  0.2004 -0.9716 -0.4568
12320TIP3   OH258450   4.801   1.429  11.203 -0.4771 -0.1003  0.0694
12320TIP3    H158451   4.849   1.348  11.191 -1.8089 -1.1576  1.5709
12320TIP3    H258452   4.824   1.458  11.291 -1.1832  0.3337  0.1182
12321TIP3   OH258453   2.280   4.806   1.286 -0.1379  0.7434 -0.4801
12321TIP3    H158454   2.294   4.758   1.204  1.1879 -0.9561  0.7257
12321TIP3    H258455   2.198   4.854   1.271 -0.0210  0.3251 -2.7282
12322TIP3   OH258456   1.443   6.016  11.941 -0.1964 -0.0917  0.1307
12322TIP3    H158457   1.471   6.049  11.855 -0.6923 -1.7847 -0.6994
12322TIP3    H258458   1.519   5.967  11.974 -0.4227 -0.4422  0.1309
12323TIP3   OH258459   5.286   0.248   2.408  0.4199  0.0903  0.0322
12323TIP3    H158460   5.310   0.283   2.322  1.9182  0.3249  0.5246
12323TIP3    H258461   5.240   0.166   2.388  1.1334 -0.0774 -0.9800
12324TIP3   OH258462   1.875   5.077   6.512  0.2007 -0.0877  0.1892
12324TIP3    H158463   1.812   5.083   6.584  0.2758 -1.3159  0.3692
12324TIP3    H258464   1.950   5.128   6.541  1.2280 -2.5854  2.0634
12325TIP3   OH258465   2.074   6.476   1.432 -0.1405 -0.5198  0.3514
12325TIP3    H158466   2.133   6.457   1.359  2.8895 -3.4865  3.3352
12325TIP3    H258467   2.002   6.415   1.422  0.4984 -1.2353  0.0431
12326TIP3   OH258468   3.728   0.865   1.171  0.0177 -0.0971 -0.1447
12326TIP3    H158469   3.686   0.879   1.086 -0.2823  0.4632  0.0932
12326TIP3    H258470   3.661   0.823   1.225 -0.3597  1.1189  0.3433
12327TIP3   OH258471   2.434   2.610  12.674  0.7329  0.1546  0.3898
12327TIP3    H158472   2.506   2.672  12.683 -1.3826  2.7975 -0.1989
12327TIP3    H258473   2.427   2.595  12.580  0.3129  0.1480  0.4214
12328TIP3   OH258474   1.667   3.701  13.945  0.0084  0.3673 -0.3342
12328TIP3    H158475   1.623   3.732  13.865  0.9249  1.3187 -0.4756
12328TIP3    H258476   1.740   3.761  13.957  2.3248 -2.2229 -1.0624
12329TIP3   OH258477   0.661   3.714  15.665 -0.2420 -0.0078 -0.1113
12329TIP3    H158478   0.597   3.718  15.594 -1.7356 -2.8372  0.9902
12329TIP3    H258479   0.730   3.658  15.631  0.0453  0.3181 -0.0663
12330TIP3   OH258480   6.243   0.089   2.271  0.1398 -0.0857  0.1542
12330TIP3    H158481   6.148   0.096   2.276  0.1482 -0.1846  0.4208
12330TIP3    H258482   6.275   0.110   2.359  0.5133  2.2853 -0.5126
12331TIP3   OH258483   2.394   2.119   1.936  0.3971  0.1538 -0.2040
12331TIP3    H158484   2.446   2.039   1.949 -0.4679 -0.4585 -0.4853
12331TIP3    H258485   2.389   2.159   2.023 -0.7600 -1.0903  0.3161
12332TIP3   OH258486   0.073   0.589  14.723  0.0869  0.1077  0.4124
12332TIP3    H158487   0.049   0.514  14.669  0.4558  1.2437 -1.3691
12332TIP3    H258488   0.165   0.575  14.743  0.6090  0.9132 -1.3342
12333TIP3   OH258489   1.825   1.109   0.481 -0.4682  0.1818  0.4096
12333TIP3    H158490   1.887   1.037   0.492 -2.7881 -1.7431  1.4285
12333TIP3    H258491   1.879   1.187   0.477  2.0756 -1.5397  0.1777
12334TIP3   OH258492   2.818   3.895  13.171  0.0954 -0.6307  0.0461
12334TIP3    H158493   2.772   3.812  13.162 -1.1430  0.0813 -0.4348
12334TIP3    H258494   2.774   3.953  13.109  0.2372  0.6703  1.1264
12335TIP3   OH258495   3.180   2.984   1.889 -0.3379 -0.2399 -0.3964
12335TIP3    H158496   3.252   3.045   1.874 -0.9717  0.3953 -0.9231
12335TIP3    H258497   3.101   3.034   1.865 -0.9831 -0.7896  0.5427
12336TIP3   OH258498   0.724   1.666  12.318 -0.1049 -0.2279  0.5647
12336TIP3    H158499   0.781   1.736  12.285  0.0204 -0.9936 -0.8644
12336TIP3    H258500   0.707   1.611  12.242 -1.4917 -0.8798  1.3359
12337TIP3   OH258501   1.366   1.808  14.779  0.1896  0.0590 -0.4024
12337TIP3    H158502   1.353   1.882  14.719  0.5382  0.0590 -0.4814
12337TIP3    H258503   1.394   1.849  14.861  0.3495  0.0178 -0.4364
12338TIP3   OH258504   6.182   0.502  16.977 -0.4706 -0.1540 -0.2209
12338TIP3    H158505   6.202   0.484  16.885 -0.1046  0.1665 -0.2040
12338TIP3    H258506   6.222   0.587  16.994 -0.4359 -0.2639  0.2660
12339TIP3   OH258507   4.125   0.087   1.185 -0.0245 -0.5547 -0.6082
12339TIP3    H158508   4.040   0.114   1.151 -0.4416 -0.9984  0.0654
12339TIP3    H258509   4.172   0.054   1.109 -0.3372 -0.0056 -1.0402
12340TIP3   OH258510   1.017   4.116   2.015  1.2985 -0.2188  0.6423
12340TIP3    H158511   0.996   4.027   2.043 -0.8025 -0.2968 -1.0910
12340TIP3    H258512   1.109   4.112   1.990  1.4551 -1.6807  1.3597
12341TIP3   OH258513   5.523   0.510  17.068 -0.1982 -0.0008  0.0421
12341TIP3    H158514   5.455   0.573  17.043  1.8051  2.4595  0.6486
12341TIP3    H258515   5.581   0.506  16.992  0.0768 -0.6049  0.2810
12342TIP3   OH258516   4.435   2.292   3.088  0.5339  0.4966 -0.3083
12342TIP3    H158517   4.456   2.330   3.003  0.2596 -0.2562 -0.7137
12342TIP3    H258518   4.503   2.226   3.102  2.0980  2.3411  1.2200
12343TIP3   OH258519   1.884   3.635  13.039  0.0111  0.2472 -0.0860
12343TIP3    H158520   1.870   3.730  13.045 -1.0426  0.1862 -1.3984
12343TIP3    H258521   1.806   3.602  12.995  0.6771 -1.1548 -0.2409
12344TIP3   OH258522   3.468   3.986   3.923 -0.1455  0.0499 -0.6656
12344TIP3    H158523   3.397   3.923   3.930  0.1023  0.0153  1.6384
12344TIP3    H258524   3.434   4.053   3.863 -1.9468 -0.1817  0.0721
12345TIP3   OH258525   2.026   3.400   0.995 -0.5042 -0.7196 -0.2406
12345TIP3    H158526   2.100   3.460   1.007 -2.2418  1.6771 -0.9894
12345TIP3    H258527   1.996   3.381   1.083 -0.8556  0.7744 -0.0145
12346TIP3   OH258528   0.573   1.265  15.171  0.0811 -0.1171  0.2497
12346TIP3    H158529   0.636   1.204  15.209 -0.2022 -0.0355  0.8731
12346TIP3    H258530   0.616   1.300  15.093  0.0915 -1.3885 -0.3142
12347TIP3   OH258531   6.528   1.796  12.550 -0.1906 -0.6855 -0.0948
12347TIP3    H158532   6.596   1.756  12.604 -0.9832 -0.9950  0.6901
12347TIP3    H258533   6.573   1.821  12.469  1.1593  0.4214  0.9788
12348TIP3   OH258534   5.423   2.622  11.410 -0.0376  0.1428 -0.4390
12348TIP3    H158535   5.484   2.685  11.447  0.0343 -0.1782 -0.0197
12348TIP3    H258536   5.374   2.673  11.345 -0.2154  0.7201  0.1376
12349TIP3   OH258537   3.991   4.128   1.616 -0.2756 -0.2617  0.3198
12349TIP3    H158538   4.061   4.077   1.655  0.5313  0.0556 -0.6935
12349TIP3    H258539   3.972   4.084   1.533 -1.1996 -0.2902  0.5417
12350TIP3   OH258540   2.961   4.086  11.570 -0.4414  0.3420  0.2985
12350TIP3    H158541   2.946   4.061  11.661 -0.3630 -0.0564  0.2065
12350TIP3    H258542   2.902   4.029  11.520 -0.2058  0.2904  0.0768
12351TIP3   OH258543   1.448   0.561   4.385  0.1732 -0.0664  0.5282
12351TIP3    H158544   1.499   0.608   4.319 -1.8076 -0.5362 -1.4185
12351TIP3    H258545   1.513   0.517   4.439  1.8463  0.0813 -1.3164
12352TIP3   OH258546   3.306   1.728  11.863 -0.4677  0.0749  0.0529
12352TIP3    H158547   3.374   1.662  11.859  0.9353  1.3818  1.8250
12352TIP3    H258548   3.337   1.792  11.926 -2.0413  2.1665 -1.2020
12353TIP3   OH258549   5.029   0.937  14.993  0.4014  0.2694 -0.1939
12353TIP3    H158550   5.004   0.996  15.065  1.2235  1.0258 -0.5278
12353TIP3    H258551   4.991   0.976  14.915 -1.1127 -0.9425 -0.0878
12354TIP3   OH258552   0.070   2.612   4.242  0.9270  0.4629 -0.5057
12354TIP3    H158553   0.152   2.564   4.249  0.6584  0.2802  1.9384
12354TIP3    H258554   0.011   2.552   4.197  1.4272 -0.3663 -0.0749
12355TIP3   OH258555   5.377   1.709  17.245  0.7680 -0.2587  0.0922
12355TIP3    H158556   5.334   1.789  17.274 -1.2282 -1.2359 -0.0898
12355TIP3    H258557   5.352   1.644  17.311  0.2215 -1.3355 -1.1626
12356TIP3   OH258558   4.345   2.270  13.685 -0.3543  0.1112  0.0551
12356TIP3    H158559   4.396   2.325  13.625 -1.6475 -0.5479 -1.6850
12356TIP3    H258560   4.410   2.237  13.747  1.2970 -0.3545 -1.8418
12357TIP3   OH258561   0.315   5.981   4.262  0.2542  0.2192  0.1307
12357TIP3    H158562   0.265   6.027   4.329 -2.0540 -0.6726 -0.8798
12357TIP3    H258563   0.324   6.044   4.190  1.6556  0.7751  0.7900
12358TIP3   OH258564   4.447   1.696  16.841 -0.0640  0.6285 -0.7674
12358TIP3    H158565   4.426   1.604  16.821 -2.9140  0.9941  0.3223
12358TIP3    H258566   4.472   1.695  16.933 -0.5972  0.9970 -0.6156
12359TIP3   OH258567   5.696   4.941   6.183 -0.2157  0.1491  0.0238
12359TIP3    H158568   5.742   4.980   6.258  0.2605 -1.1409  0.4308
12359TIP3    H258569   5.611   4.915   6.218 -0.6158  1.0443 -0.3025
12360TIP3   OH258570   0.900   2.401   3.519 -0.8421 -0.1694  0.6862
12360TIP3    H158571   0.869   2.347   3.446 -1.2591  0.4519  0.3960
12360TIP3    H258572   0.838   2.386   3.589  0.1209 -1.5403  1.2619
12361TIP3   OH258573   5.915   3.240   4.549  0.4823  0.5613  0.0764
12361TIP3    H158574   5.879   3.324   4.581  1.1201  0.0986  2.0871
12361TIP3    H258575   6.008   3.257   4.539  0.8335 -0.2373  1.7395
12362TIP3   OH258576   6.335   2.903  12.323  0.5656 -0.5313 -0.1544
12362TIP3    H158577   6.346   2.872  12.233  0.8498 -1.9082  0.3388
12362TIP3    H258578   6.404   2.969  12.334  0.8787 -0.7455 -0.7731
12363TIP3   OH258579   3.661   1.978  13.838  0.0053 -0.3027 -0.0966
12363TIP3    H158580   3.572   1.982  13.803  0.0131  0.6344 -0.0263
12363TIP3    H258581   3.717   1.974  13.761 -0.0255  0.6801 -0.1682
12364TIP3   OH258582   6.334   6.346  14.948 -0.2626 -0.2915  0.1322
12364TIP3    H158583   6.330   6.439  14.972 -0.3267 -0.4579  0.7705
12364TIP3    H258584   6.256   6.307  14.988 -0.0225 -0.6952  0.2158
12365TIP3   OH258585   0.086   1.927  12.567 -0.4179  0.3752 -0.9810
12365TIP3    H158586   0.182   1.924  12.573 -0.4785 -1.1921 -0.6088
12365TIP3    H258587   0.066   1.879  12.486 -0.9367 -0.2646 -0.4837
12366TIP3   OH258588   4.198   5.452  13.113  0.3036 -0.2258 -0.7130
12366TIP3    H158589   4.269   5.423  13.171 -0.1726  0.9839  0.5145
12366TIP3    H258590   4.143   5.508  13.169 -0.0766  1.1075 -2.3884
12367TIP3   OH258591   0.934   2.562  13.737  0.4680 -0.1430  0.4319
12367TIP3    H158592   1.021   2.600  13.721  0.4239 -0.3465 -0.2883
12367TIP3    H258593   0.949   2.497  13.806  1.3314 -1.8707 -1.3465
12368TIP3   OH258594   4.442   3.595   3.400  0.1885 -0.2104  0.5816
12368TIP3    H158595   4.361   3.568   3.445  0.3135  0.0792  0.9785
12368TIP3    H258596   4.494   3.639   3.468  0.4427  0.0938  0.1891
12369TIP3   OH258597   4.062   2.836   4.974 -0.2651  0.2095  0.4016
12369TIP3    H158598   4.046   2.925   4.945  1.6652  0.2687 -0.5583
12369TIP3    H258599   4.020   2.831   5.060 -1.5715  1.5989 -0.1191
12370TIP3   OH258600   2.333   1.426   4.969  0.1390 -0.2563  0.2666
12370TIP3    H158601   2.384   1.442   5.048  1.7216  0.3312 -0.8767
12370TIP3    H258602   2.266   1.363   4.997  0.8002 -0.1950  2.0289
12371TIP3   OH258603   6.306   4.187  15.082  0.4789 -0.0336 -0.3475
12371TIP3    H158604   6.299   4.281  15.096  0.4865 -0.0015 -0.5518
12371TIP3    H258605   6.230   4.150  15.127 -1.1625  0.3309 -2.6909
12372TIP3   OH258606   3.612   2.895   4.805  0.7547 -0.2332  0.0351
12372TIP3    H158607   3.660   2.893   4.887  1.1799 -0.2509 -0.2149
12372TIP3    H258608   3.677   2.918   4.739  0.0357  1.6949 -0.0369
12373TIP3   OH258609   2.554   4.535  11.750 -0.2851  0.0262  0.0632
12373TIP3    H158610   2.460   4.544  11.735 -0.2809  0.1442  0.1057
12373TIP3    H258611   2.562   4.527  11.845 -0.3182 -0.7931 -0.0009
12374TIP3   OH258612   4.023   6.147   1.270  0.1699  0.2885  0.2908
12374TIP3    H158613   4.075   6.069   1.287 -0.1601 -0.6475 -2.6659
12374TIP3    H258614   3.940   6.131   1.316  0.8192 -0.2494  1.2751
12375TIP3   OH258615   2.380   5.964  13.121 -0.3022 -0.2830 -0.2643
12375TIP3    H158616   2.321   6.024  13.167  0.4237  0.2525 -0.0135
12375TIP3    H258617   2.347   5.877  13.142  0.0408 -0.0492  1.3400
12376TIP3   OH258618   0.139   5.228   5.439 -0.1364  0.1239 -0.6881
12376TIP3    H158619   0.077   5.169   5.397  0.3415  0.5553 -2.0345
12376TIP3    H258620   0.103   5.315   5.424  0.5293  0.3420 -1.0557
12377TIP3   OH258621   6.449   6.172  16.223 -0.0548 -0.6704 -0.2257
12377TIP3    H158622   6.357   6.151  16.207 -0.4458  1.6245 -1.2509
12377TIP3    H258623   6.484   6.096  16.270 -2.3492 -1.7567 -0.2269
12378TIP3   OH258624   2.984   4.025   2.373 -0.0992  0.0271  0.6245
12378TIP3    H158625   3.051   4.072   2.324 -0.1436 -0.2211  0.3239
12378TIP3    H258626   2.911   4.087   2.380  0.1109  0.2520  0.8442
12379TIP3   OH258627   2.391   3.353   0.848  0.0641 -0.1132  0.1335
12379TIP3    H158628   2.434   3.432   0.817 -0.0057  0.6353  1.8828
12379TIP3    H258629   2.360   3.309   0.769 -0.0727  1.7132 -0.8415
12380TIP3   OH258630   0.762   1.939  13.155 -0.4437  0.0983  0.3359
12380TIP3    H158631   0.849   1.977  13.164 -0.3346 -0.1724  0.4409
12380TIP3    H258632   0.730   1.970  13.070 -0.2972  0.3040  0.3569
12381TIP3   OH258633   5.258   3.218   2.181 -0.9634  0.0215  0.7697
12381TIP3    H158634   5.223   3.129   2.177 -2.1502  0.5125 -0.2431
12381TIP3    H258635   5.318   3.217   2.255 -0.9390 -1.6307  0.7432
12382TIP3   OH258636   5.105   0.503   4.595  1.0686  0.3898 -0.3531
12382TIP3    H158637   5.096   0.501   4.500  0.8199  0.0473 -0.3250
12382TIP3    H258638   5.066   0.420   4.624 -0.6135  1.3434  0.1823
12383TIP3   OH258639   2.750   5.110  13.726 -0.2790 -0.1276 -0.4775
12383TIP3    H158640   2.765   5.175  13.657 -0.9753 -0.3608 -0.8608
12383TIP3    H258641   2.837   5.089  13.760  0.0324  0.2716 -1.0346
12384TIP3   OH258642   1.978   5.294  14.550  0.0692  0.1500 -0.7962
12384TIP3    H158643   2.031   5.228  14.505  0.0269 -0.8881  0.6481
12384TIP3    H258644   1.889   5.259  14.547  0.0425  0.1588 -0.0495
12385TIP3   OH258645   1.862   0.612   4.359  0.7535  1.4523 -0.2041
12385TIP3    H158646   1.903   0.685   4.312  0.5732  1.7448  0.0935
12385TIP3    H258647   1.771   0.638   4.371  0.5224  0.8800 -0.7006
12386TIP3   OH258648   5.828   6.618   4.638  0.4547  0.1574  0.3026
12386TIP3    H158649   5.889   6.594   4.707 -0.7768  1.0562  1.7429
12386TIP3    H258650   5.832   6.545   4.575  0.3855 -1.4532  2.1348
12387TIP3   OH258651   0.751   4.080   4.455  0.1502 -0.3355  0.6689
12387TIP3    H158652   0.687   4.094   4.385 -0.5981 -0.4354  1.3269
12387TIP3    H258653   0.762   4.166   4.496 -1.7916 -0.8993  2.4428
12388TIP3   OH258654   3.723   5.279  17.127  0.6094 -0.4280  0.0367
12388TIP3    H158655   3.695   5.203  17.179  0.4018 -0.2959  0.1172
12388TIP3    H258656   3.800   5.312  17.173 -1.1503  1.3489  1.8339
12389TIP3   OH258657   0.593   6.477   6.420  0.1404  0.1106 -0.4775
12389TIP3    H158658   0.539   6.552   6.396  1.8899  1.0633 -1.5464
12389TIP3    H258659   0.570   6.409   6.356  1.2980  1.0401 -1.9306
12390TIP3   OH258660   1.522   4.453   6.242  0.0146  0.4258 -0.2431
12390TIP3    H158661   1.570   4.535   6.230  3.3831 -1.3868  0.0792
12390TIP3    H258662   1.532   4.433   6.335 -3.0462  0.9325  0.2458
12391TIP3   OH258663   4.475   4.730   6.125 -0.3515  0.1047 -0.3955
12391TIP3    H158664   4.417   4.798   6.159  1.0177  0.6515  0.9255
12391TIP3    H258665   4.450   4.651   6.172  0.2745  0.4507  0.5524
12392TIP3   OH258666   4.391   5.305  16.698  0.0044  0.2426 -0.0572
12392TIP3    H158667   4.473   5.338  16.661  0.6652 -1.8233 -0.5308
12392TIP3    H258668   4.418   5.235  16.758 -1.3662  0.1647  0.4971
12393TIP3   OH258669   5.232   4.026  12.418  0.0804  0.1735 -0.1672
12393TIP3    H158670   5.194   4.095  12.472  0.2306 -0.3000  0.5592
12393TIP3    H258671   5.234   3.949  12.476 -2.5973 -1.1775 -1.7848
12394TIP3   OH258672   5.128   2.957   4.277 -0.3304 -0.3776 -0.5964
12394TIP3    H158673   5.125   2.974   4.183 -1.1444  0.1486 -0.4842
12394TIP3    H258674   5.036   2.959   4.305 -0.0666 -0.1126  0.2838
12395TIP3   OH258675   5.632   2.072   0.369  0.7436  0.0650 -0.2377
12395TIP3    H158676   5.623   2.010   0.442 -0.3331  0.2207 -0.2310
12395TIP3    H258677   5.656   2.155   0.411 -0.4192  0.2923  0.0091
12396TIP3   OH258678   1.790   2.585   3.596  0.8368  0.7627  0.4826
12396TIP3    H158679   1.879   2.594   3.562  0.4552 -3.1690 -1.8713
12396TIP3    H258680   1.801   2.570   3.690  2.6854  0.2920  0.2123
12397TIP3   OH258681   2.678   0.785   0.493 -0.5699  0.4559  0.0955
12397TIP3    H158682   2.760   0.763   0.449  0.2567  0.0517  1.8192
12397TIP3    H258683   2.668   0.879   0.479 -0.2696  0.3549 -0.8631
12398TIP3   OH258684   6.616   5.384  13.540  0.4250  0.0528  0.5064
12398TIP3    H158685   6.680   5.390  13.610  0.0172  0.7759  0.8185
12398TIP3    H258686   6.542   5.337  13.579  2.3956 -4.7026 -1.0512
12399TIP3   OH258687   6.785   2.605  12.057 -0.3461  0.9301 -0.2917
12399TIP3    H158688   6.767   2.683  12.109  0.1962  1.2601 -0.5924
12399TIP3    H258689   6.754   2.533  12.111 -0.5894  1.3353  0.1140
12400TIP3   OH258690   0.066   3.968   2.998 -0.8701  0.3200  0.1504
12400TIP3    H158691   0.150   4.010   2.980 -0.2843 -1.6385 -1.9837
12400TIP3    H258692   0.065   3.955   3.093  1.7547 -0.6400  0.0812
12401TIP3   OH258693   1.061   5.986   0.246  0.0689  0.0041 -0.7621
12401TIP3    H158694   1.037   6.078   0.256  0.7176  0.3313 -2.0423
12401TIP3    H258695   0.977   5.939   0.245 -0.1518  0.1278  3.5677
12402TIP3   OH258696   4.596   5.014  12.361 -0.3589  0.3808 -0.0674
12402TIP3    H158697   4.610   4.970  12.277  0.2970  0.3083  0.0744
12402TIP3    H258698   4.503   5.002  12.379 -0.3909 -0.0774 -0.5167
12403TIP3   OH258699   3.927   1.055   5.528  0.2564 -0.4056 -0.0281
12403TIP3    H158700   3.908   1.148   5.532  0.4463 -0.3061 -1.3373
12403TIP3    H258701   4.013   1.045   5.569  1.1146  0.2620 -1.6337
12404TIP3   OH258702   3.688   5.390   4.546  0.1320 -0.4969 -0.5568
12404TIP3    H158703   3.743   5.463   4.576  0.6464 -1.3223  0.5294
12404TIP3    H258704   3.599   5.418   4.565  0.3012  0.0412 -0.5520
12405TIP3   OH258705   5.809   5.204   4.370  0.2897 -0.2340  0.3971
12405TIP3    H158706   5.903   5.195   4.354  0.3846  0.9265  0.2751
12405TIP3    H258707   5.769   5.137   4.315  0.8846  1.0560 -1.6499
12406TIP3   OH258708   1.130   0.151   2.977  0.3659 -0.2122  0.0361
12406TIP3    H158709   1.140   0.064   2.938 -0.3807  0.2540 -1.2384
12406TIP3    H258710   1.072   0.136   3.052 -1.2882 -0.5424 -1.2678
12407TIP3   OH258711   6.486   6.718   4.162  0.8266  0.1155  0.0527
12407TIP3    H158712   6.548   6.688   4.228  0.0057 -0.3147  0.6343
12407TIP3    H258713   6.411   6.750   4.212  0.4000  0.2448 -0.6554
12408TIP3   OH258714   4.118   1.307   0.466 -0.1452 -0.2175 -0.2559
12408TIP3    H158715   4.036   1.263   0.487  0.8238 -1.6754  0.5881
12408TIP3    H258716   4.148   1.344   0.549  0.5722 -0.6266 -0.3201
12409TIP3   OH258717   1.354   1.374  14.404  0.3022 -0.0697  0.5139
12409TIP3    H158718   1.393   1.373  14.492  2.0364  0.2541 -0.2317
12409TIP3    H258719   1.319   1.463  14.395  0.1094 -0.1064  0.8830
12410TIP3   OH258720   5.896   3.897   3.111 -0.1745 -0.0492 -0.4151
12410TIP3    H158721   5.922   3.872   3.022  0.5365  0.3916 -0.3347
12410TIP3    H258722   5.804   3.871   3.117  0.0245 -0.9049 -0.9733
12411TIP3   OH258723   5.550   0.056  15.659  0.4510  0.2298 -0.0858
12411TIP3    H158724   5.509   0.019  15.737 -1.0244  1.0714 -0.4380
12411TIP3    H258725   5.517   0.146  15.656  0.2527  0.1096 -1.8383
12412TIP3   OH258726   4.972   0.650  13.720 -0.0917  0.1730  0.0826
12412TIP3    H158727   4.942   0.636  13.810  1.3525 -0.9894  0.3989
12412TIP3    H258728   5.007   0.739  13.719 -1.9097  0.9003  0.1567
12413TIP3   OH258729   1.403   4.384  12.330 -0.8970 -0.0038  0.3925
12413TIP3    H158730   1.350   4.364  12.407  0.5644 -0.3889  1.3173
12413TIP3    H258731   1.478   4.432  12.364  0.0206 -0.6222 -0.7257
12414TIP3   OH258732   2.162   1.461  11.614 -0.0784 -0.0798  0.2503
12414TIP3    H158733   2.256   1.476  11.602 -0.1836  0.6880  0.3826
12414TIP3    H258734   2.157   1.385  11.672  0.4592  0.0005  0.4003
12415TIP3   OH258735   4.544   3.551   1.613  0.5914  0.1381 -0.0362
12415TIP3    H158736   4.497   3.594   1.540  0.9343  2.2175  0.9320
12415TIP3    H258737   4.485   3.481   1.641 -0.8154  1.1293 -0.4640
12416TIP3   OH258738   1.269   3.237  17.039 -0.8230 -0.1185  0.4338
12416TIP3    H158739   1.256   3.196  17.124  1.5846 -1.8273  0.0437
12416TIP3    H258740   1.307   3.168  16.985  1.8058  2.1404 -0.7339
12417TIP3   OH258741   5.378   4.075  14.108 -0.8240 -0.1843 -0.2162
12417TIP3    H158742   5.318   4.074  14.034 -0.5288 -0.4357 -0.4557
12417TIP3    H258743   5.450   4.133  14.080 -1.2926  0.6869  0.3449
12418TIP3   OH258744   4.567   4.008   4.637  0.3057  0.0888  0.1456
12418TIP3    H158745   4.631   3.974   4.700  0.4685  0.7193  0.3247
12418TIP3    H258746   4.610   4.084   4.598  0.2611 -0.3836 -0.8393
12419TIP3   OH258747   3.427   6.370   5.283 -0.1139 -0.3415 -0.1669
12419TIP3    H158748   3.421   6.416   5.366  0.1335 -1.7824  0.6658
12419TIP3    H258749   3.483   6.425   5.228  0.5655  0.1013  0.9735
12420TIP3   OH258750   6.482   3.330  12.352 -0.3586  0.5672  0.2030
12420TIP3    H158751   6.544   3.297  12.417  0.0416 -1.0934 -0.9692
12420TIP3    H258752   6.495   3.425  12.351 -0.7325  0.6811  2.8780
12421TIP3   OH258753   4.589   5.297   3.430 -0.8093  0.5502  0.1887
12421TIP3    H158754   4.656   5.351   3.471  2.0884 -0.9054 -2.4697
12421TIP3    H258755   4.555   5.243   3.502  1.5134  0.6567  1.4099
12422TIP3   OH258756   6.279   2.203  11.525  0.4903  0.5102 -0.6328
12422TIP3    H158757   6.336   2.134  11.560  0.1158  0.6102  0.1832
12422TIP3    H258758   6.225   2.159  11.459  1.3571  0.3685 -1.2625
12423TIP3   OH258759   0.358   4.890   2.473 -0.3140 -0.1631  0.1179
12423TIP3    H158760   0.341   4.842   2.392  0.9163  0.3938 -0.4880
12423TIP3    H258761   0.332   4.980   2.455 -0.4234 -0.1164  0.4879
12424TIP3   OH258762   0.048   1.101  14.839  0.3531 -0.2266  0.0597
12424TIP3    H158763  -0.033   1.150  14.827  0.7066  0.1586 -0.8164
12424TIP3    H258764   0.117   1.167  14.833  0.9627 -1.1009 -3.3060
12425TIP3   OH258765   6.622   0.925   2.737  0.0156 -0.0971  0.8512
12425TIP3    H158766   6.679   1.001   2.730  0.9645 -0.7611  1.2610
12425TIP3    H258767   6.669   0.856   2.689 -0.9012 -0.3871  0.3548
12426TIP3   OH258768   6.696   1.315  13.507  0.3042  0.2481 -0.1931
12426TIP3    H158769   6.647   1.346  13.583  0.9591  2.6522 -0.7293
12426TIP3    H258770   6.695   1.219  13.516 -0.8498  0.4362  2.0513
12427TIP3   OH258771   2.999   4.022   0.403  0.1001  0.3848 -0.1451
12427TIP3    H158772   2.935   4.030   0.474 -0.4864 -0.7063 -0.5272
12427TIP3    H258773   3.026   3.930   0.406  2.3926  1.0543  0.6346
12428TIP3   OH258774   2.517   6.113  12.064  0.2349 -0.7033 -0.3868
12428TIP3    H158775   2.573   6.045  12.102 -2.0570 -2.8638 -0.7870
12428TIP3    H258776   2.493   6.079  11.978 -3.2676 -0.7426  0.5474
12429TIP3   OH258777   4.616   3.513   5.679 -0.4470 -0.0374 -0.2505
12429TIP3    H158778   4.600   3.572   5.606  1.2803 -0.0633 -0.6565
12429TIP3    H258779   4.685   3.556   5.730 -1.4313 -0.1596  1.2049
12430TIP3   OH258780   5.099   2.344  13.104  0.4810 -0.2838 -0.2093
12430TIP3    H158781   5.162   2.280  13.136  1.0190  0.0390 -0.6061
12430TIP3    H258782   5.135   2.429  13.130 -0.5769 -0.1633  0.9255
12431TIP3   OH258783   4.454   0.429  11.271  0.0549  0.1517 -0.2317
12431TIP3    H158784   4.540   0.468  11.260  0.7862 -1.1866  0.6018
12431TIP3    H258785   4.433   0.442  11.364 -1.3398  1.8621 -0.7625
12432TIP3   OH258786   3.479   4.404  16.454 -0.0838 -0.8986 -0.3142
12432TIP3    H158787   3.545   4.390  16.386  0.5562  3.0970 -0.6211
12432TIP3    H258788   3.415   4.462  16.413 -3.5894 -4.2189  0.1690
12433TIP3   OH258789   2.482   2.863   5.006 -0.4583 -0.0639 -0.1010
12433TIP3    H158790   2.396   2.822   5.008 -0.6015  0.2593  1.0030
12433TIP3    H258791   2.492   2.893   4.916 -1.5918  0.0792 -0.1929
12434TIP3   OH258792   6.505   2.851   0.266  0.2630  0.3323 -0.1324
12434TIP3    H158793   6.474   2.792   0.198 -0.5195  0.6142 -0.0332
12434TIP3    H258794   6.435   2.917   0.273 -0.8979 -1.1275  2.7275
12435TIP3   OH258795   3.265   1.084   5.023 -0.1424 -0.2195 -0.0668
12435TIP3    H158796   3.326   1.047   5.086  0.3716  1.2801  0.3447
12435TIP3    H258797   3.240   1.010   4.967  0.1691 -1.3453  1.2555
12436TIP3   OH258798   4.945   1.428  14.956 -0.6940  0.7139 -0.5800
12436TIP3    H158799   4.935   1.514  14.916 -1.4235  0.1472 -1.6431
12436TIP3    H258800   5.038   1.408  14.947 -0.5506  1.3393 -0.4555
12437TIP3   OH258801   5.902   4.489   3.526  0.3876  0.1198 -0.1352
12437TIP3    H158802   5.885   4.401   3.492 -0.2747  0.6186 -1.1241
12437TIP3    H258803   5.880   4.547   3.453  0.0846  1.1465  0.7648
12438TIP3   OH258804   0.261   6.669  15.148 -0.3577  0.0003 -0.0284
12438TIP3    H158805   0.295   6.755  15.122 -1.2683  0.1804 -0.6244
12438TIP3    H258806   0.339   6.613  15.150  0.2748  0.8779  0.5549
12439TIP3   OH258807   0.499   2.436  15.151  0.9223  0.4791  0.0686
12439TIP3    H158808   0.507   2.446  15.246  2.0261  2.7231 -0.2536
12439TIP3    H258809   0.426   2.493  15.127  1.2306  0.6151 -0.5520
12440TIP3   OH258810   1.685   0.007  17.193  0.7393  0.1449  0.0421
12440TIP3    H158811   1.762   0.039  17.148  0.4659 -0.2698 -0.7378
12440TIP3    H258812   1.687  -0.088  17.178 -0.8573  0.3281 -1.4891
12441TIP3   OH258813   3.976   4.237   3.901 -0.1585  0.1488  0.0034
12441TIP3    H158814   4.041   4.305   3.881  0.0099  0.5782  1.9197
12441TIP3    H258815   4.006   4.199   3.984 -1.7090 -0.4685  0.3023
12442TIP3   OH258816   6.178   2.662   3.616 -0.0611 -0.5541  0.4410
12442TIP3    H158817   6.119   2.587   3.611  0.4141 -0.8833 -0.1898
12442TIP3    H258818   6.156   2.703   3.700  1.0554 -2.5653  1.7754
12443TIP3   OH258819   3.424   1.459   3.582 -0.1020  0.5886  0.1272
12443TIP3    H158820   3.507   1.463   3.534  0.2699  1.6141  0.8236
12443TIP3    H258821   3.444   1.500   3.666 -1.3615  1.0214  0.2234
12444TIP3   OH258822   0.781   5.931   3.184  0.0960  0.1547 -0.4919
12444TIP3    H158823   0.863   5.888   3.211 -0.3438  1.0007  2.4277
12444TIP3    H258824   0.803   6.024   3.184 -0.8152  0.3730  0.1939
12445TIP3   OH258825   6.465   2.446   0.558  0.2000 -0.6104  0.0095
12445TIP3    H158826   6.506   2.364   0.528  1.6519  0.1367 -0.0855
12445TIP3    H258827   6.538   2.502   0.581 -0.5553  2.1500 -3.7302
12446TIP3   OH258828   4.464   5.980  16.941  0.5499  0.2458 -0.8109
12446TIP3    H158829   4.417   5.912  16.892  0.5925 -0.3821  0.0135
12446TIP3    H258830   4.549   5.985  16.898  0.7553 -0.6381 -0.5110
12447TIP3   OH258831   2.525   3.890  16.679  0.3270 -0.1415  0.1887
12447TIP3    H158832   2.617   3.917  16.675  0.5743 -0.9025  0.8006
12447TIP3    H258833   2.528   3.796  16.693 -0.5561 -0.2943 -0.6052
12448TIP3   OH258834   3.016   4.529  16.475 -0.2050  0.4078  0.1684
12448TIP3    H158835   2.940   4.500  16.425 -0.5532  0.5728  0.6015
12448TIP3    H258836   2.990   4.613  16.513  0.1690  0.4380  0.3672
12449TIP3   OH258837   4.551   0.166  14.243 -0.1104  0.4407 -0.0178
12449TIP3    H158838   4.569   0.242  14.187 -1.1297  1.8928  1.5483
12449TIP3    H258839   4.552   0.202  14.332 -0.9346 -1.3205  0.7186
12450TIP3   OH258840   3.950   2.407   1.148  0.4560 -0.1370 -0.0222
12450TIP3    H158841   4.005   2.448   1.215  0.7246 -0.6877  0.0936
12450TIP3    H258842   3.885   2.474   1.127 -0.4284 -0.4319  1.7293
12451TIP3   OH258843   4.290   0.443   1.610  0.9038 -0.0151  0.1401
12451TIP3    H158844   4.283   0.348   1.622  1.1971  0.1288  1.5241
12451TIP3    H258845   4.299   0.455   1.516 -2.8099 -1.1571 -0.4462
12452TIP3   OH258846   3.696   4.494  15.419  0.7714 -0.7550 -0.3900
12452TIP3    H158847   3.640   4.439  15.364  0.8380  0.2117 -1.4269
12452TIP3    H258848   3.781   4.450  15.416  0.3040 -1.7733  0.5351
12453TIP3   OH258849   5.089   5.634   2.419  0.7077 -0.7923 -0.2059
12453TIP3    H158850   5.094   5.629   2.514  0.3092 -1.5588 -0.2240
12453TIP3    H258851   4.996   5.642   2.400  0.8095 -0.2680 -0.5235
12454TIP3   OH258852   0.394   4.372  13.957 -0.2364  0.4414 -0.0580
12454TIP3    H158853   0.465   4.370  14.021  0.1833 -2.7702 -0.5289
12454TIP3    H258854   0.353   4.457  13.970  2.2816  1.4597  1.7679
12455TIP3   OH258855   1.840   4.598  17.067 -0.2186 -0.5461 -0.0677
12455TIP3    H158856   1.798   4.514  17.051 -0.6728 -0.5503  1.0633
12455TIP3    H258857   1.913   4.578  17.126  0.8515 -0.4174 -1.3383
12456TIP3   OH258858   0.737   0.786  12.729  0.8106 -0.0604 -0.3418
12456TIP3    H158859   0.808   0.769  12.667 -0.1521  0.6788 -1.6672
12456TIP3    H258860   0.741   0.880  12.745 -0.3134  0.0939 -0.9666
12457TIP3   OH258861   6.491   4.138   1.110  0.7028  0.2358 -0.0838
12457TIP3    H158862   6.516   4.122   1.019 -1.4261 -1.4448 -0.4034
12457TIP3    H258863   6.482   4.050   1.148 -1.0092  0.8805  1.0222
12458TIP3   OH258864   2.186   4.472  14.549  0.0973 -0.3250  0.8179
12458TIP3    H158865   2.214   4.403  14.488 -0.0759 -0.4534  0.8862
12458TIP3    H258866   2.158   4.543  14.492 -2.8998 -1.5367  0.7065
12459TIP3   OH258867   1.925   4.594  15.764  0.2564  0.3718 -0.1022
12459TIP3    H158868   1.856   4.551  15.815  1.3125  0.4410  1.3909
12459TIP3    H258869   1.927   4.684  15.797  1.2169  0.3077  0.0265
12460TIP3   OH258870   3.299   2.457  13.473 -0.1573  0.0740 -0.3058
12460TIP3    H158871   3.223   2.459  13.414 -0.2798 -1.1900 -0.1907
12460TIP3    H258872   3.263   2.433  13.558  0.5405 -1.7922 -0.5223
12461TIP3   OH258873   1.280   4.099   2.705 -0.6040  0.1599 -0.3045
12461TIP3    H158874   1.304   4.128   2.793 -0.1922 -0.4912 -0.2009
12461TIP3    H258875   1.215   4.163   2.676  1.3429  2.0452 -0.6568
12462TIP3   OH258876   6.762   5.017  12.096 -0.0976 -0.6416  0.7606
12462TIP3    H158877   6.693   5.008  12.031  0.6543 -0.3982 -0.0820
12462TIP3    H258878   6.740   4.953  12.164 -0.2957 -1.6766 -0.2612
12463TIP3   OH258879   1.979   4.129   0.509 -0.7670 -0.1313 -0.4255
12463TIP3    H158880   1.947   4.163   0.426  0.9152  1.0019 -0.6285
12463TIP3    H258881   1.964   4.200   0.571  1.5526  0.5355 -0.5808
12464TIP3   OH258882   6.045   2.652   0.467  0.1222 -0.1434 -0.1773
12464TIP3    H158883   6.036   2.583   0.532 -1.3937 -0.0588 -0.2762
12464TIP3    H258884   6.053   2.733   0.518  1.7025 -0.3542 -0.0654
12465TIP3   OH258885   5.824   1.165  11.936 -0.3083  0.0006  0.1872
12465TIP3    H158886   5.899   1.156  11.876  0.0162 -0.2354  0.6241
12465TIP3    H258887   5.783   1.079  11.936  0.2359 -0.2606  1.0119
12466TIP3   OH258888   1.331   2.896  12.836  0.2770 -0.1185  0.1047
12466TIP3    H158889   1.420   2.886  12.870  0.1190  1.5789  1.0506
12466TIP3    H258890   1.279   2.922  12.912 -0.9898 -0.8341 -0.4948
12467TIP3   OH258891   4.591   0.702   3.954 -0.2543 -0.5488  0.3014
12467TIP3    H158892   4.585   0.609   3.931 -0.6010  0.1110 -2.4669
12467TIP3    H258893   4.646   0.740   3.885 -1.2009  1.5318  0.6615
12468TIP3   OH258894   1.079   4.280   0.552  0.4227 -0.0035 -0.1293
12468TIP3    H158895   1.037   4.318   0.630  0.4661 -0.0239 -0.0958
12468TIP3    H258896   1.098   4.190   0.577 -2.1619 -0.8919 -1.1409
12469TIP3   OH258897   2.417   0.083   0.606 -0.4918 -0.2192  0.2699
12469TIP3    H158898   2.487   0.111   0.666 -1.9189 -0.2484  1.9789
12469TIP3    H258899   2.353   0.040   0.663 -1.9140 -0.1719 -1.2797
12470TIP3   OH258900   0.468   2.859   3.007 -0.1180 -0.2316 -0.7589
12470TIP3    H158901   0.546   2.878   2.955  2.3705 -0.5105  2.6799
12470TIP3    H258902   0.451   2.766   2.992  0.4117 -0.2480 -1.2741
12471TIP3   OH258903   0.763   1.881  10.962 -0.1677  0.4201  0.7571
12471TIP3    H158904   0.781   1.790  10.939 -1.6109  0.2743  0.1348
12471TIP3    H258905   0.782   1.930  10.882  0.3726  0.6520  1.0186
12472TIP3   OH258906   4.729   0.519  11.148 -0.3723 -0.2382  0.7451
12472TIP3    H158907   4.692   0.608  11.146 -1.3828 -0.6347  1.2386
12472TIP3    H258908   4.820   0.530  11.121 -0.4314  0.9840  1.0073
12473TIP3   OH258909   6.698   4.810   3.486  0.4218  0.1317  0.1592
12473TIP3    H158910   6.758   4.787   3.556  0.9485  1.8497  0.3127
12473TIP3    H258911   6.736   4.889   3.447  0.4352 -1.1031 -2.4184
12474TIP3   OH258912   6.095   2.581   1.948 -0.5984  0.8195 -0.3315
12474TIP3    H158913   6.053   2.523   2.010  1.1642 -1.2257 -0.9650
12474TIP3    H258914   6.126   2.523   1.878  2.8325  2.2180 -0.0990
12475TIP3   OH258915   1.864   4.704   2.420  0.3978 -0.0132  0.0382
12475TIP3    H158916   1.860   4.617   2.460  1.8504 -0.0869  0.0182
12475TIP3    H258917   1.843   4.764   2.491 -0.8256 -0.3813  0.0025
12476TIP3   OH258918   5.387   6.393   5.830  0.2481 -0.3582  0.8069
12476TIP3    H158919   5.476   6.407   5.799 -0.0066 -0.5245 -0.0017
12476TIP3    H258920   5.332   6.439   5.768 -0.3245 -1.5095  0.4518
12477TIP3   OH258921   0.525   6.191   5.339  0.3315  0.7939  0.1431
12477TIP3    H158922   0.526   6.276   5.384 -0.4547  0.9133 -0.0627
12477TIP3    H258923   0.529   6.214   5.246  2.2925  0.5413  0.1350
12478TIP3   OH258924   3.493   2.502   2.128 -0.2482 -0.4064  0.3592
12478TIP3    H158925   3.427   2.446   2.086 -0.6304  0.8263 -0.7439
12478TIP3    H258926   3.476   2.494   2.221 -3.2498  1.3946  0.0218
12479TIP3   OH258927   1.447   4.352   0.007  0.9143  0.3038  0.3225
12479TIP3    H158928   1.402   4.381  -0.072 -2.4470  1.3939  2.5348
12479TIP3    H258929   1.464   4.259  -0.008 -0.5864  0.2560 -1.2677
12480TIP3   OH258930   4.106   5.973  12.786 -0.3644 -0.8220 -0.0762
12480TIP3    H158931   4.127   6.047  12.843 -2.0035  0.2430 -0.8295
12480TIP3    H258932   4.149   5.993  12.703 -2.5726  0.3811 -0.9757
12481TIP3   OH258933   5.181   0.054  14.154 -0.6305  0.2654 -0.3923
12481TIP3    H158934   5.196   0.051  14.248  0.9840  2.3490 -0.5456
12481TIP3    H258935   5.121  -0.018  14.137 -1.6289  0.3870  2.3519
12482TIP3   OH258936   4.320   4.251   3.914 -0.5483  0.2109 -0.8879
12482TIP3    H158937   4.396   4.252   3.856 -0.6877  0.8716 -1.0709
12482TIP3    H258938   4.293   4.160   3.917 -1.2639  0.3180 -2.8265
12483TIP3   OH258939   2.027   2.780  13.482  0.0557 -0.1274  0.0026
12483TIP3    H158940   1.996   2.864  13.450  0.8901  0.6180  1.1045
12483TIP3    H258941   1.957   2.748  13.539  1.0152  1.2785  2.0263
12484TIP3   OH258942   5.570   5.033   0.672  0.0805 -0.0187 -0.7025
12484TIP3    H158943   5.636   5.054   0.738  0.4794  0.9358 -1.3964
12484TIP3    H258944   5.618   4.985   0.604  0.2893  1.5443 -1.6881
12485TIP3   OH258945   5.124   0.889   0.437  0.8181  0.1096  0.2121
12485TIP3    H158946   5.214   0.892   0.467  0.2823  1.0523  1.8292
12485TIP3    H258947   5.121   0.952   0.365  1.1606  1.0645  1.0200
12486TIP3   OH258948   5.065   2.699  14.141 -0.1656 -0.6148  0.2379
12486TIP3    H158949   5.116   2.771  14.180 -0.8994 -0.4510  0.9026
12486TIP3    H258950   5.104   2.687  14.055  0.2346  0.3078  0.2767
12487TIP3   OH258951   0.015   0.051  16.790  0.0178  0.7383  0.3788
12487TIP3    H158952   0.092   0.024  16.738 -0.5439  0.2228 -0.1952
12487TIP3    H258953  -0.023   0.123  16.740 -1.3451 -0.6950 -0.6810
12488TIP3   OH258954   0.385   6.107  10.899  0.0866  0.5888  0.2568
12488TIP3    H158955   0.380   6.062  10.815 -1.0019 -1.5366  1.4150
12488TIP3    H258956   0.319   6.176  10.894  0.2458  0.6723 -0.7345
12489TIP3   OH258957   1.313   1.941  14.243 -0.1088 -0.9901 -0.3707
12489TIP3    H158958   1.242   1.894  14.200 -0.5927 -0.9023  0.3214
12489TIP3    H258959   1.334   1.886  14.319  0.9767 -1.3293 -0.9080
12490TIP3   OH258960   1.225   1.513   1.307  0.3162 -0.5842 -0.1129
12490TIP3    H158961   1.190   1.579   1.368  2.1170 -0.3267  0.6740
12490TIP3    H258962   1.247   1.439   1.363 -2.8735 -2.4116 -1.1490
12491TIP3   OH258963   5.103   2.469  11.334  0.4022  0.0727  0.8368
12491TIP3    H158964   5.159   2.544  11.356  0.0475 -0.0353  2.1044
12491TIP3    H258965   5.027   2.477  11.392  0.1610 -1.0436  0.6921
12492TIP3   OH258966   4.866   5.366   2.117 -0.1556 -0.2572  0.6178
12492TIP3    H158967   4.776   5.371   2.149  0.4079  1.3135  1.9803
12492TIP3    H258968   4.908   5.300   2.172  0.0403  0.3934  1.2528
12493TIP3   OH258969   0.190   4.345   0.178  0.4431 -0.0922  0.1022
12493TIP3    H158970   0.128   4.327   0.249 -1.0233  0.7677 -0.9259
12493TIP3    H258971   0.273   4.363   0.222  0.0958 -1.8006  1.4821
12494TIP3   OH258972   2.818   2.775   2.120  0.0462  0.6875  0.3233
12494TIP3    H158973   2.813   2.743   2.030  1.8726  2.9190 -0.5909
12494TIP3    H258974   2.727   2.795   2.143 -0.6899 -1.8005 -0.2784
12495TIP3   OH258975   6.606   3.290   3.261  0.3584 -0.1010  0.2360
12495TIP3    H158976   6.529   3.247   3.299  1.0025  0.1054  1.8307
12495TIP3    H258977   6.673   3.222   3.259  1.0979  0.5607  1.8839
12496TIP3   OH258978   5.959   5.570  12.177 -0.2825 -0.3716  0.4845
12496TIP3    H158979   5.894   5.529  12.121  0.4077  0.6442 -1.0957
12496TIP3    H258980   5.908   5.628  12.234 -0.6319  2.2551 -2.3453
12497TIP3   OH258981   4.362   4.887  13.374 -0.4491  0.0677 -0.4780
12497TIP3    H158982   4.279   4.838  13.368 -1.8769  2.2332  1.0014
12497TIP3    H258983   4.409   4.845  13.446 -0.6983 -0.5322 -0.6591
12498TIP3   OH258984   0.205   1.281  16.069 -0.4950 -0.3722 -0.1968
12498TIP3    H158985   0.211   1.333  16.149 -0.8604 -0.9842  0.2300
12498TIP3    H258986   0.112   1.281  16.047 -0.4443 -0.5312 -0.4113
12499TIP3   OH258987   6.601   3.465   3.045 -0.5765  0.0073  0.0561
12499TIP3    H158988   6.620   3.556   3.068  2.7334 -0.8919  1.1165
12499TIP3    H258989   6.574   3.424   3.127 -2.1100  0.0170 -0.4279
12500TIP3   OH258990   3.911   3.852  16.814  0.0864 -0.1958 -0.0322
12500TIP3    H158991   3.926   3.938  16.855 -0.0606  0.3742 -1.1527
12500TIP3    H258992   3.822   3.828  16.841  1.0199 -1.1806  2.3526
12501TIP3   OH258993   0.233   1.317  14.771 -0.6757  0.2041  0.1701
12501TIP3    H158994   0.326   1.340  14.778 -0.6750  0.5083 -0.7459
12501TIP3    H258995   0.209   1.343  14.682 -1.0489 -2.0142 -0.4168
12502TIP3   OH258996   6.079   5.266  11.652 -0.1222  0.4886  0.0192
12502TIP3    H158997   5.991   5.288  11.682 -0.5449 -2.1681  0.8538
12502TIP3    H258998   6.109   5.199  11.713  1.6385 -0.1412 -1.5039
12503TIP3   OH258999   2.263   6.225  12.924 -0.7588 -0.3504 -0.5709
12503TIP3    H159000   2.282   6.143  12.879  0.1007 -0.4484 -0.0360
12503TIP3    H259001   2.322   6.226  13.000  0.1255  1.2980 -1.2295
12504TIP3   OH259002   4.106   1.351   1.594 -0.1964  0.3654 -0.3553
12504TIP3    H159003   4.173   1.339   1.660 -0.5554  1.8395  0.2929
12504TIP3    H259004   4.023   1.342   1.642 -0.4779 -1.0120 -1.0663
12505TIP3   OH259005   6.672   1.815   5.789  0.3321  0.2421 -0.0242
12505TIP3    H159006   6.664   1.889   5.850 -0.3412 -1.3905  1.9127
12505TIP3    H259007   6.583   1.784   5.777  0.6132 -0.2579 -0.8227
12506TIP3   OH259008   3.551   3.121  11.374 -0.0132 -0.5648  0.2541
12506TIP3    H159009   3.641   3.130  11.343 -0.7790  0.3347 -1.7774
12506TIP3    H259010   3.552   3.163  11.460  1.2938  0.3142 -0.1667
12507TIP3   OH259011   1.893   3.887   1.948 -0.0213 -0.4992  0.6994
12507TIP3    H159012   1.845   3.969   1.950  0.5464 -0.1661  0.7135
12507TIP3    H259013   1.830   3.823   1.915 -0.3262  0.0321  0.2386
12508TIP3   OH259014   5.039   4.621  11.861 -0.3210 -0.4790 -0.3397
12508TIP3    H159015   4.951   4.585  11.876  0.6947 -1.7612  2.9587
12508TIP3    H259016   5.081   4.558  11.803 -0.6117 -1.4939  0.5192
12509TIP3   OH259017   3.771   3.939  14.563  0.1875 -0.1459  0.1457
12509TIP3    H159018   3.712   4.013  14.578 -0.2796 -0.9007  2.3309
12509TIP3    H259019   3.719   3.876  14.514 -0.3069 -0.1589  0.6849
12510TIP3   OH259020   2.463   5.822  16.112 -0.0238 -0.4383  0.2718
12510TIP3    H159021   2.529   5.834  16.181 -1.8830 -1.3552  2.2509
12510TIP3    H259022   2.431   5.733  16.124 -1.3096 -0.1542 -0.9609
12511TIP3   OH259023   4.335   4.727   2.175  0.5612 -0.0600  0.7443
12511TIP3    H159024   4.245   4.754   2.158  0.2695 -2.2918 -1.7308
12511TIP3    H259025   4.381   4.744   2.093  1.6956 -1.5141  1.0478
12512TIP3   OH259026   0.910   6.153   1.346  0.1760 -0.1926  0.1226
12512TIP3    H159027   0.879   6.065   1.323 -1.2737  0.0567  1.0324
12512TIP3    H259028   0.929   6.147   1.440 -1.5635  0.8977  0.5646
12513TIP3   OH259029   4.824   3.103   2.188 -0.0933 -0.0298  0.3530
12513TIP3    H159030   4.910   3.123   2.151  0.0618 -1.3924 -0.0489
12513TIP3    H259031   4.806   3.013   2.161 -2.1512  0.6017 -0.4920
12514TIP3   OH259032   0.168   6.690   2.492 -0.2281  0.4045 -0.4970
12514TIP3    H159033   0.186   6.704   2.399  0.6819  0.1724 -0.3588
12514TIP3    H259034   0.190   6.773   2.534 -1.4404  0.7831 -0.5934
12515TIP3   OH259035   5.231   2.667   3.525 -0.0398  0.3056 -0.2327
12515TIP3    H159036   5.248   2.709   3.441  1.7428  0.1019  0.0136
12515TIP3    H259037   5.316   2.633   3.553 -0.4442  1.0550  2.0228
12516TIP3   OH259038   2.829   5.851  13.351  0.0596 -0.3615  0.4954
12516TIP3    H159039   2.799   5.763  13.330  0.7646 -0.2555 -0.9835
12516TIP3    H259040   2.754   5.907  13.333  0.0481 -0.4971  0.1322
12517TIP3   OH259041   4.705   3.089  14.252  0.9714  0.2970 -0.0662
12517TIP3    H159042   4.643   3.019  14.233  1.2216 -0.0485  0.3929
12517TIP3    H259043   4.788   3.044  14.270  1.5390  0.7902 -1.4066
12518TIP3   OH259044   2.525   6.514  16.892  0.6693 -0.2595  0.5271
12518TIP3    H159045   2.505   6.457  16.966  1.5795  1.3733  2.0671
12518TIP3    H259046   2.617   6.538  16.904  1.3818 -1.4372 -2.1482
12519TIP3   OH259047   6.046   0.204  15.971  0.2992 -0.2288  0.0933
12519TIP3    H159048   6.138   0.228  15.964  0.2832 -0.2595 -0.2171
12519TIP3    H259049   6.048   0.113  16.002  0.3716 -0.2043  0.1623
12520TIP3   OH259050   4.596   1.607  11.673 -0.2035  0.5344  0.1403
12520TIP3    H159051   4.542   1.615  11.595  1.0471  1.0024 -0.6795
12520TIP3    H259052   4.581   1.518  11.703 -1.1262  0.5322 -0.2975
12521TIP3   OH259053   1.068   5.145   2.446 -0.2358 -0.3946 -0.3257
12521TIP3    H159054   1.045   5.117   2.357  2.4924 -1.4128 -0.7579
12521TIP3    H259055   1.050   5.239   2.447 -1.3517 -0.5739 -1.5997
12522TIP3   OH259056   1.350   5.298   1.925  0.3418  0.6591 -0.2243
12522TIP3    H159057   1.388   5.212   1.940  1.8006  1.2017 -0.7581
12522TIP3    H259058   1.321   5.327   2.012 -0.5291 -0.5269 -0.1095
12523TIP3   OH259059   5.005   4.901  13.711 -0.1426  0.1354  0.5329
12523TIP3    H159060   4.952   4.976  13.683 -0.5134 -0.9075 -1.6511
12523TIP3    H259061   5.094   4.936  13.716 -0.3384  0.7722 -0.3315
12524TIP3   OH259062   4.050   3.888   3.324 -0.1481  0.3420  0.1877
12524TIP3    H159063   4.040   3.797   3.296 -2.6378  0.2548  1.1951
12524TIP3    H259064   4.061   3.937   3.243  1.2396 -0.8504 -0.3659
12525TIP3   OH259065   1.132   5.681  16.237  0.2648  0.0670  0.3711
12525TIP3    H159066   1.079   5.756  16.264  0.0329  0.1948 -0.4298
12525TIP3    H259067   1.187   5.714  16.166 -0.4220 -0.7236 -0.5386
12526TIP3   OH259068   2.395   1.665  14.607  0.6231 -0.7087  0.6550
12526TIP3    H159069   2.435   1.586  14.644  0.9623 -0.0392  1.7606
12526TIP3    H259070   2.467   1.710  14.563  0.2672 -1.3876 -0.6498
12527TIP3   OH259071   6.502   5.924  13.431  0.6445  0.7503  0.1170
12527TIP3    H159072   6.518   5.893  13.341  0.2521 -0.1653  0.3602
12527TIP3    H259073   6.408   5.945  13.432  0.7585  1.2755  0.1686
12528TIP3   OH259074   2.007   5.854  10.823  0.2515  0.3392  0.7580
12528TIP3    H159075   2.080   5.831  10.766  0.5411 -0.3595  1.4057
12528TIP3    H259076   1.967   5.930  10.781  1.1491  0.5261  0.2247
12529TIP3   OH259077   3.347   1.202   0.541  0.6508  0.3862  0.0441
12529TIP3    H159078   3.341   1.295   0.563  1.8906  0.4997 -0.0664
12529TIP3    H259079   3.338   1.157   0.625  0.5238  0.6299  0.1607
12530TIP3   OH259080   0.473   2.312   1.935 -0.1465  0.4247  0.1953
12530TIP3    H159081   0.494   2.316   2.028  2.3276 -0.2358 -0.2721
12530TIP3    H259082   0.487   2.401   1.903 -1.1167  0.6784  0.4780
12531TIP3   OH259083   4.628   5.646  16.254 -0.0203 -0.0391  0.6025
12531TIP3    H159084   4.681   5.704  16.309 -1.4059 -0.3208  2.2651
12531TIP3    H259085   4.624   5.691  16.169  0.9483  1.0930  1.1360
12532TIP3   OH259086   4.768   0.759   4.533  0.7282 -0.2615  0.4199
12532TIP3    H159087   4.797   0.850   4.543  0.8181 -0.1725 -0.6348
12532TIP3    H259088   4.793   0.718   4.615  1.0376  0.5745  0.7564
12533TIP3   OH259089   3.071   1.275  11.867  0.4412 -0.0131  0.1946
12533TIP3    H159090   3.077   1.332  11.944  2.0801 -0.7667  0.6456
12533TIP3    H259091   3.024   1.198  11.898  1.6869 -0.6064  0.6278
12534TIP3   OH259092   5.678   1.932   1.142 -0.1086  0.0418  0.3409
12534TIP3    H159093   5.714   1.855   1.098 -1.3990 -0.2485 -0.2355
12534TIP3    H259094   5.658   1.901   1.231  0.4479  0.0308  0.4636
12535TIP3   OH259095   5.822   2.119   1.974  0.0184 -0.3846 -0.0243
12535TIP3    H159096   5.796   2.212   1.973  2.5516  0.3588 -1.2212
12535TIP3    H259097   5.860   2.104   1.888 -2.7987 -3.3350 -0.8305
12536TIP3   OH259098   1.364   3.972  11.247  0.3841  0.3150  0.4001
12536TIP3    H159099   1.290   4.030  11.269  2.2080  2.6880  0.5214
12536TIP3    H259100   1.347   3.944  11.157 -1.5471 -0.6088  1.0247
12537TIP3   OH259101   3.917   4.909  16.050  0.2278 -0.3488  0.4289
12537TIP3    H159102   3.992   4.924  15.993 -0.7478  0.3684 -0.6907
12537TIP3    H259103   3.860   4.984  16.034 -1.3689 -1.5858  0.2504
12538TIP3   OH259104   2.226   1.501   1.446 -0.2627  0.2685 -0.4720
12538TIP3    H159105   2.262   1.422   1.486  0.1260  0.5471 -0.2651
12538TIP3    H259106   2.236   1.569   1.513 -0.0152  0.6380 -0.8769
12539TIP3   OH259107   2.062   2.252  15.078  0.5606  0.0937 -0.3073
12539TIP3    H159108   2.137   2.267  15.021  1.0563 -1.1342 -0.0060
12539TIP3    H259109   2.010   2.333  15.073  1.9962  1.0233 -0.3634
12540TIP3   OH259110   4.765   1.335  16.061  0.1863 -0.0794 -0.1482
12540TIP3    H159111   4.777   1.355  16.154 -0.0082 -0.6834  0.0078
12540TIP3    H259112   4.852   1.343  16.023 -0.5832  6.1183 -1.1165
12541TIP3   OH259113   2.589   0.306  11.772 -0.0014 -0.3133 -0.5918
12541TIP3    H159114   2.626   0.345  11.692 -1.4633  0.5267 -0.8706
12541TIP3    H259115   2.598   0.373  11.838  0.3444 -0.6639 -0.2822
12542TIP3   OH259116   2.129   4.258   1.962 -0.2095 -0.0909  0.7772
12542TIP3    H159117   2.183   4.337   1.955  0.0839 -0.2137  1.6165
12542TIP3    H259118   2.039   4.289   1.950  0.1157 -0.0443 -1.7681
12543TIP3   OH259119   6.198   6.509   4.133 -0.2619  0.0024  0.2812
12543TIP3    H159120   6.265   6.457   4.176 -1.1687 -1.5021 -0.0660
12543TIP3    H259121   6.119   6.456   4.138 -0.3956 -0.2928 -3.2688
12544TIP3   OH259122   1.593   2.889  12.524 -0.1207 -0.2219  0.1242
12544TIP3    H159123   1.618   2.907  12.434  0.2594  1.5648  0.5716
12544TIP3    H259124   1.515   2.943  12.539  1.0186  1.0900  1.4825
12545TIP3   OH259125   5.256   1.132   6.298  0.5188 -0.2656  0.1486
12545TIP3    H159126   5.340   1.090   6.318  1.0776 -0.1518 -1.8477
12545TIP3    H259127   5.222   1.083   6.222 -0.1837  1.0763 -0.4148
12546TIP3   OH259128   2.544   5.046   2.933  0.0485  0.4697  0.3584
12546TIP3    H159129   2.453   5.024   2.955  0.1814 -0.7038 -0.2342
12546TIP3    H259130   2.595   5.014   3.007  0.1259 -0.1554  0.0323
12547TIP3   OH259131   2.281   4.649  15.967  0.0286 -0.2770  0.2511
12547TIP3    H159132   2.244   4.562  15.958  0.2010 -0.2674 -0.6027
12547TIP3    H259133   2.357   4.649  15.909  1.2397 -0.2199  1.8084
12548TIP3   OH259134   6.252   5.871  16.524  0.1078 -0.1279  0.4971
12548TIP3    H159135   6.173   5.822  16.546 -0.7740  0.6626 -0.7838
12548TIP3    H259136   6.229   5.962  16.541  1.9465 -0.1771  3.4599
12549TIP3   OH259137   2.511   4.144   1.629  0.1814 -0.4112 -0.1136
12549TIP3    H159138   2.438   4.199   1.600  0.4831  0.4649  0.7521
12549TIP3    H259139   2.469   4.068   1.669 -0.2464 -0.4181 -0.5682
12550TIP3   OH259140   6.620   1.972   4.864  0.2103  0.0568  0.1219
12550TIP3    H159141   6.580   2.010   4.943 -0.0627 -0.8630  0.4341
12550TIP3    H259142   6.679   1.905   4.897 -0.2544 -0.6571 -0.4685
12551TIP3   OH259143   1.327   0.281   1.558  0.1553 -0.6198  0.2787
12551TIP3    H159144   1.243   0.238   1.545 -0.0290 -0.2878  0.3809
12551TIP3    H259145   1.383   0.247   1.488  0.2667 -1.6919  0.8641
12552TIP3   OH259146   6.712   6.333  15.988 -0.0265 -0.1984 -0.0335
12552TIP3    H159147   6.723   6.240  16.006  0.4874 -0.3971 -1.3569
12552TIP3    H259148   6.795   6.372  16.015  0.0396 -0.2294 -0.1945
12553TIP3   OH259149   1.993   3.079   0.066  0.7018 -0.4902  0.4190
12553TIP3    H159150   2.046   3.059   0.143  0.5040 -0.3637  0.5887
12553TIP3    H259151   2.015   3.010   0.003  1.0556 -0.4476  0.4919
12554TIP3   OH259152   2.931   4.108  14.334  0.4435  0.0490  0.3771
12554TIP3    H159153   2.873   4.081  14.263  1.0077 -0.1270 -0.0163
12554TIP3    H259154   2.994   4.036  14.342 -0.0192 -0.2531  1.4998
12555TIP3   OH259155   0.027   1.048   5.669 -0.4598 -0.1415  0.0328
12555TIP3    H159156   0.120   1.072   5.669 -0.2830 -0.7967  0.5557
12555TIP3    H259157  -0.018   1.128   5.642  0.2679  0.1292 -0.4123
12556TIP3   OH259158   2.012   4.011   4.117 -0.4761  0.1368 -0.5612
12556TIP3    H159159   1.946   3.986   4.053 -1.1245 -1.2799  0.6354
12556TIP3    H259160   2.008   4.107   4.120 -0.6179  0.2059 -2.4254
12557TIP3   OH259161   2.278   0.142  13.707 -0.9909 -0.1115  0.1177
12557TIP3    H159162   2.190   0.108  13.725 -2.0308  2.7016  0.4498
12557TIP3    H259163   2.336   0.081  13.753 -2.7122 -2.1138 -0.2529
12558TIP3   OH259164   6.023   0.307   5.146  0.1900 -0.5001 -0.4265
12558TIP3    H159165   6.044   0.243   5.214 -0.3624 -0.7831 -0.5194
12558TIP3    H259166   5.955   0.265   5.094 -0.3584  0.2687 -0.3353
12559TIP3   OH259167   2.714   0.872   0.791  0.5468 -0.2244  0.4442
12559TIP3    H159168   2.732   0.937   0.723  0.0466  0.7889  1.2752
12559TIP3    H259169   2.716   0.788   0.745  0.5305  0.4324 -0.7623
12560TIP3   OH259170   6.548   4.724   6.158 -0.3410  0.4075 -0.4295
12560TIP3    H159171   6.632   4.699   6.196 -0.5575 -0.5645 -0.5895
12560TIP3    H259172   6.507   4.780   6.224 -0.2165 -0.3297  0.2712
12561TIP3   OH259173   2.426   3.056  13.472 -0.3672 -0.3771  0.7584
12561TIP3    H159174   2.505   3.012  13.505  0.5977  1.3521  0.8184
12561TIP3    H259175   2.354   3.014  13.520  0.5427 -1.6519  1.0575
12562TIP3   OH259176   4.222   0.880   2.177 -0.1121 -0.1039 -0.1906
12562TIP3    H159177   4.198   0.835   2.096  0.0080 -0.3087 -0.1117
12562TIP3    H259178   4.316   0.868   2.184  0.1320  1.2997 -0.8671
12563TIP3   OH259179   2.844   0.391  15.907  0.3428 -0.6912 -0.1484
12563TIP3    H159180   2.753   0.361  15.912  0.1008  0.1540  0.5754
12563TIP3    H259181   2.893   0.312  15.886 -0.4173 -1.3947  0.6754
12564TIP3   OH259182   1.890   6.450  13.202  0.0153 -0.1840 -0.6715
12564TIP3    H159183   1.921   6.360  13.193 -0.0737 -0.0858 -2.0508
12564TIP3    H259184   1.910   6.491  13.118 -3.0338  0.1372 -1.2974
12565TIP3   OH259185   5.670   1.589   0.498  0.0345 -0.6530  0.2183
12565TIP3    H159186   5.616   1.518   0.463 -1.7671  1.0846 -0.6317
12565TIP3    H259187   5.748   1.590   0.441 -1.0973 -0.3658 -1.3717
12566TIP3   OH259188   6.800   2.091   3.784  0.0636  0.1364 -0.4541
12566TIP3    H159189   6.821   2.054   3.698  1.3815 -2.3237  0.8698
12566TIP3    H259190   6.876   2.145   3.806  0.5822 -0.7501 -0.0332
12567TIP3   OH259191   0.107   4.953  11.601  0.2931 -0.5087 -0.0459
12567TIP3    H159192   0.118   4.903  11.521  1.8254  0.2560 -0.3196
12567TIP3    H259193   0.030   5.008  11.585  1.7663  1.0870 -1.7501
12568TIP3   OH259194   3.622   0.312   0.006  0.8401  0.1763  0.1423
12568TIP3    H159195   3.656   0.400  -0.008  0.0350  0.1892 -1.8640
12568TIP3    H259196   3.683   0.255  -0.040  1.3199 -0.3178  1.3754
12569TIP3   OH259197   3.354   2.320  12.227  0.1806 -0.4666 -0.9199
12569TIP3    H159198   3.396   2.234  12.235 -0.0482 -0.7646 -2.7217
12569TIP3    H259199   3.393   2.372  12.297  2.4790 -1.1764 -1.6114
12570TIP3   OH259200   3.306   3.333  14.324 -0.2380 -0.6715  0.0612
12570TIP3    H159201   3.351   3.396  14.268 -3.2098  1.8589  0.3589
12570TIP3    H259202   3.316   3.249  14.279  0.4123  0.7069 -2.4424
12571TIP3   OH259203   5.677   5.253  15.442  0.1164 -0.2799  0.4796
12571TIP3    H159204   5.650   5.272  15.352 -0.1604  1.1504  0.8645
12571TIP3    H259205   5.608   5.195  15.475 -0.5591  0.3823  0.2492
12572TIP3   OH259206   1.069   4.104   3.313  0.3987 -0.0557 -0.0778
12572TIP3    H159207   0.992   4.048   3.315 -0.5471  1.2258  0.9125
12572TIP3    H259208   1.042   4.180   3.260  0.9267  0.4607  0.3821
12573TIP3   OH259209   2.123   2.713   1.366  0.1476  0.1011 -0.1465
12573TIP3    H159210   2.067   2.684   1.295  0.6868 -1.4709  0.0525
12573TIP3    H259211   2.172   2.787   1.330 -1.0768  0.6293 -0.7393
12574TIP3   OH259212   3.264   3.192  12.194 -0.2095 -0.4466  0.4103
12574TIP3    H159213   3.347   3.234  12.169 -1.3062 -0.1243 -3.0393
12574TIP3    H259214   3.284   3.099  12.196  0.5694 -0.2733  0.9925
12575TIP3   OH259215   0.948   5.104   5.472 -0.2964 -0.1583  0.2894
12575TIP3    H159216   0.916   5.177   5.525 -1.0809 -1.5526  1.7936
12575TIP3    H259217   0.870   5.066   5.433  0.0127 -0.7319  0.2211
12576TIP3   OH259218   6.093   5.907  15.190  0.2803 -0.2338 -0.3436
12576TIP3    H159219   6.115   5.920  15.098  0.6215 -2.1975 -0.5679
12576TIP3    H259220   6.149   5.969  15.237  1.0063 -0.0950 -1.3820
12577TIP3   OH259221   0.784   0.441   1.377  0.2534 -0.5718 -0.1861
12577TIP3    H159222   0.689   0.442   1.386  0.1658 -1.5645 -0.8200
12577TIP3    H259223   0.809   0.533   1.370 -0.4370 -0.1912  2.0303
12578TIP3   OH259224   2.769   2.750   3.209 -0.7216  0.2256 -0.5220
12578TIP3    H159225   2.831   2.796   3.153 -0.0053 -0.8376 -0.6126
12578TIP3    H259226   2.687   2.751   3.161 -0.8580  1.8749 -0.2848
12579TIP3   OH259227   3.024   0.508   3.852 -0.0559 -0.3241 -0.0227
12579TIP3    H159228   3.074   0.533   3.930  0.1661 -0.4785 -0.1184
12579TIP3    H259229   3.082   0.525   3.779 -0.9682  1.7049 -0.3102
12580TIP3   OH259230   1.186   6.624   6.608  0.3608 -0.5477  0.7129
12580TIP3    H159231   1.099   6.627   6.647 -0.7648  2.4071 -1.8168
12580TIP3    H259232   1.182   6.550   6.546 -0.6513  0.0806  0.0134
12581TIP3   OH259233   3.942   5.273  16.299 -0.4668  0.2605  0.0550
12581TIP3    H159234   3.856   5.314  16.310 -0.5739  0.1433 -0.3646
12581TIP3    H259235   3.938   5.196  16.356 -1.4562 -1.0060 -1.6792
12582TIP3   OH259236   5.088   3.102  15.792  0.0840  0.4433  0.1568
12582TIP3    H159237   5.052   3.124  15.878  1.0245 -0.8603  0.9002
12582TIP3    H259238   5.017   3.054  15.748  0.3769 -0.8714  1.0753
12583TIP3   OH259239   4.896   5.968  13.538 -0.2394  0.4712  0.0063
12583TIP3    H159240   4.825   5.951  13.600  0.7842  0.1627  1.1107
12583TIP3    H259241   4.956   5.894  13.549  0.4288  0.9035 -0.6649
12584TIP3   OH259242   2.876   3.871   5.411  0.3222 -1.0374 -0.2729
12584TIP3    H159243   2.803   3.931   5.428  1.1372 -0.5448  1.5911
12584TIP3    H259244   2.931   3.918   5.348 -0.2328 -0.8166 -0.5964
12585TIP3   OH259245   4.048   5.300   1.097  0.0582  0.3743 -0.1771
12585TIP3    H159246   4.083   5.255   1.020 -0.0635  0.6464 -0.3947
12585TIP3    H259247   3.977   5.244   1.128  0.3343  0.0894 -0.0568
12586TIP3   OH259248   2.506   4.212   4.203 -0.0418 -0.0993 -0.5985
12586TIP3    H159249   2.435   4.239   4.145 -2.6664 -4.3534  0.3985
12586TIP3    H259250   2.573   4.177   4.145 -1.1913 -1.1721 -1.3187
12587TIP3   OH259251   4.468   1.393  17.056  0.1834 -0.1925  0.1174
12587TIP3    H159252   4.417   1.389  16.974 -0.2813 -0.1598  0.3980
12587TIP3    H259253   4.555   1.420  17.028  0.4550 -1.7140 -0.5570
12588TIP3   OH259254   1.211   3.587  16.799  0.4361 -0.3661  0.3026
12588TIP3    H159255   1.163   3.668  16.815 -0.2402 -0.7968  0.4702
12588TIP3    H259256   1.303   3.613  16.804  0.2266  0.3110  0.7690
12589TIP3   OH259257   3.949   5.560  12.186 -0.6649 -0.2434 -0.3940
12589TIP3    H159258   3.861   5.596  12.181 -0.7581 -0.5155 -0.7001
12589TIP3    H259259   3.938   5.478  12.234 -0.6001 -0.3537 -0.5676
12590TIP3   OH259260   0.784   4.298  12.652  0.4174  0.1184 -0.3297
12590TIP3    H159261   0.784   4.364  12.583  0.3523  0.9238  0.4298
12590TIP3    H259262   0.691   4.281  12.668  0.4383 -0.4632 -0.8061
12591TIP3   OH259263   5.381   3.965   4.785  0.6397  0.1817  0.1314
12591TIP3    H159264   5.369   4.037   4.847 -0.2824  0.4806 -0.3736
12591TIP3    H259265   5.355   4.002   4.700  0.0903 -0.7645 -0.1201
12592TIP3   OH259266   4.259   6.665  14.281  0.3572 -0.1866  0.3519
12592TIP3    H159267   4.325   6.660  14.212  0.4810 -2.1288  0.5632
12592TIP3    H259268   4.201   6.591  14.263 -0.4234  0.1425  1.4980
12593TIP3   OH259269   4.676   4.602   3.967 -0.3351 -0.2015  0.1419
12593TIP3    H159270   4.640   4.582   3.881 -1.3098 -0.0058  0.5068
12593TIP3    H259271   4.607   4.650   4.012  0.1335 -0.3888  1.0735
12594TIP3   OH259272   5.660   2.530   1.817 -0.1219  0.5504 -0.5212
12594TIP3    H159273   5.668   2.497   1.728 -0.7968  0.0132 -0.3864
12594TIP3    H259274   5.582   2.585   1.814 -0.2948  0.3209 -0.1961
12595TIP3   OH259275   3.470   4.988  13.182  0.1409  0.3272 -0.1633
12595TIP3    H159276   3.492   5.066  13.131 -0.6270 -0.3954 -1.6442
12595TIP3    H259277   3.482   4.915  13.121 -2.0883 -0.4554  0.2577
12596TIP3   OH259278   6.265   2.392   4.435  0.0777 -1.0840 -0.2019
12596TIP3    H159279   6.209   2.448   4.380  1.1710 -0.2726 -0.5091
12596TIP3    H259280   6.320   2.344   4.372  1.0941 -0.4093  0.1592
12597TIP3   OH259281   4.151   6.445   3.673 -0.4875 -0.0893  0.1661
12597TIP3    H159282   4.160   6.395   3.592 -0.8952  0.0139  0.0591
12597TIP3    H259283   4.173   6.535   3.648 -1.8521  0.1736 -0.1068
12598TIP3   OH259284   3.076   2.508   4.762  0.2756  0.1531  0.0950
12598TIP3    H159285   3.166   2.482   4.743  0.3167  1.4071 -1.6437
12598TIP3    H259286   3.054   2.570   4.692 -1.0627  1.8495  1.9390
12599TIP3   OH259287   2.508   2.290   4.690 -0.7643  0.3110 -0.4547
12599TIP3    H159288   2.455   2.219   4.652 -0.1047 -0.7393  0.5636
12599TIP3    H259289   2.455   2.323   4.763  0.2174 -1.1638  0.9662
12600TIP3   OH259290   1.674   6.096  15.582 -0.0199  0.3204 -0.7684
12600TIP3    H159291   1.700   6.015  15.538 -1.3628 -0.7972  0.4404
12600TIP3    H259292   1.593   6.122  15.537 -0.6250 -0.0589  0.0925
12601TIP3   OH259293   1.375   4.519   4.224  0.2008  0.1093  0.0673
12601TIP3    H159294   1.360   4.502   4.131 -2.7413 -1.4714  0.7564
12601TIP3    H259295   1.402   4.434   4.260 -0.0071  0.3854  0.8924
12602TIP3   OH259296   6.524   0.828   4.231 -0.1691  0.3015  0.2597
12602TIP3    H159297   6.433   0.834   4.203  0.0057 -1.7334 -0.8345
12602TIP3    H259298   6.557   0.917   4.225 -1.7491  0.8604 -0.4462
12603TIP3   OH259299   1.629   0.987   2.530  0.2777 -0.0837 -0.4281
12603TIP3    H159300   1.660   0.921   2.591 -0.2727  0.5697  0.5668
12603TIP3    H259301   1.555   1.028   2.574  0.5119  1.0819 -1.0965
12604TIP3   OH259302   2.665   3.989  10.498 -0.5633 -0.2953 -0.4084
12604TIP3    H159303   2.635   3.946  10.578  1.9030 -2.6123 -0.6550
12604TIP3    H259304   2.604   3.959  10.430  0.0317 -1.9970 -0.2214
12605TIP3   OH259305   5.251   4.208   4.275  0.0329 -0.0567  0.1770
12605TIP3    H159306   5.166   4.251   4.275  0.1245  0.1590  1.7386
12605TIP3    H259307   5.303   4.257   4.211 -0.6138  0.6201  0.1650
12606TIP3   OH259308   1.010   0.722   3.140 -0.0010 -0.2922  0.2215
12606TIP3    H159309   0.976   0.708   3.051 -1.2021  0.2256  0.5808
12606TIP3    H259310   1.105   0.721   3.130 -0.1191 -1.3501 -0.8941
12607TIP3   OH259311   1.501   5.798  12.754 -0.0536  0.1302  0.1632
12607TIP3    H159312   1.448   5.753  12.821 -0.7724 -0.3581 -0.7134
12607TIP3    H259313   1.486   5.891  12.770 -3.0673 -0.0131 -1.5164
12608TIP3   OH259314   0.197   1.319  11.313 -0.4299 -0.4187  0.2381
12608TIP3    H159315   0.265   1.369  11.359 -0.9736  0.1882  0.3887
12608TIP3    H259316   0.217   1.331  11.220 -1.9397  2.0770  0.1811
12609TIP3   OH259317   4.299   1.858  11.629 -0.2395 -0.1066 -0.1426
12609TIP3    H159318   4.299   1.767  11.599  1.2561 -0.8239  1.8940
12609TIP3    H259319   4.208   1.874  11.656 -0.1838 -1.5468  0.9856
12610TIP3   OH259320   6.645   5.076   0.058 -0.7583 -0.0165  0.0934
12610TIP3    H159321   6.595   5.140   0.108  0.0501  0.5122  0.2456
12610TIP3    H259322   6.701   5.033   0.123 -0.6216 -0.2195 -0.1581
12611TIP3   OH259323   5.628   1.964   2.129 -0.0353 -0.0550  0.4491
12611TIP3    H159324   5.642   1.871   2.109 -0.1922 -0.1351  0.7152
12611TIP3    H259325   5.704   2.008   2.090  0.6675 -0.4297  1.3663
12612TIP3   OH259326   5.390   3.327  13.678  0.1045  0.2672  0.0953
12612TIP3    H159327   5.347   3.294  13.598 -1.3718 -0.7989  1.2890
12612TIP3    H259328   5.354   3.414  13.691 -0.3176  0.0980  0.0700
12613TIP3   OH259329   0.070   3.206   3.211  0.0309  0.0390  0.1304
12613TIP3    H159330   0.107   3.228   3.125 -1.1328  0.0559 -0.3758
12613TIP3    H259331   0.079   3.286   3.262  0.5645  0.0827 -0.0232
12614TIP3   OH259332   6.288   0.413  12.335  0.2627 -0.1266 -0.3148
12614TIP3    H159333   6.246   0.405  12.249 -1.4781  1.2029  0.3679
12614TIP3    H259334   6.346   0.489  12.326 -0.3240  0.3445 -0.1740
12615TIP3   OH259335   0.492   5.647  17.216  0.1904 -0.0866 -0.3049
12615TIP3    H159336   0.469   5.740  17.218 -1.9538 -0.6125 -0.2872
12615TIP3    H259337   0.437   5.608  17.284  0.8746 -1.4281 -0.5208
12616TIP3   OH259338   4.092   2.772  17.252 -0.2169 -0.5013 -0.5719
12616TIP3    H159339   4.179   2.737  17.267 -0.1362 -0.2604 -0.4748
12616TIP3    H259340   4.102   2.831  17.177  0.5998  2.7578  1.9352
12617TIP3   OH259341   1.391   3.265  16.777  0.4007 -0.2985  0.2200
12617TIP3    H159342   1.315   3.316  16.746  0.2572 -0.0778  0.9310
12617TIP3    H259343   1.448   3.329  16.819  0.1342 -0.7443  1.2827
12618TIP3   OH259344   0.158   0.073  16.246  0.1446 -0.0642  0.3286
12618TIP3    H159345   0.182   0.152  16.293 -0.8280 -0.8249  2.1283
12618TIP3    H259346   0.113   0.019  16.310 -0.7691 -1.3393 -1.3428
12619TIP3   OH259347   2.512   3.846  12.591 -0.3399 -0.7441  0.2174
12619TIP3    H159348   2.587   3.855  12.532 -0.5481 -2.6213 -0.3628
12619TIP3    H259349   2.462   3.927  12.578  0.2005 -0.6455 -1.3588
12620TIP3   OH259350   4.453   1.803  15.980 -0.0495 -0.0874  0.2519
12620TIP3    H159351   4.506   1.802  16.060  1.0161 -0.5218 -0.4459
12620TIP3    H259352   4.443   1.711  15.957  1.4075  0.1129 -1.2463
12621TIP3   OH259353   4.477   6.319   0.042  0.0680  0.1912  0.0324
12621TIP3    H159354   4.555   6.343  -0.008  1.2922 -0.3246  1.6778
12621TIP3    H259355   4.406   6.324  -0.022  1.6111 -0.5524 -1.7847
12622TIP3   OH259356   0.256   3.719   3.565 -0.2675 -0.2791 -0.5873
12622TIP3    H159357   0.190   3.677   3.510 -0.9942  1.8713 -1.3996
12622TIP3    H259358   0.243   3.813   3.550  2.4346  0.1932 -0.1199
12623TIP3   OH259359   3.463   4.757  12.934 -0.3868 -0.2661 -0.4273
12623TIP3    H159360   3.463   4.665  12.959 -0.0116 -0.0689  0.2911
12623TIP3    H259361   3.393   4.763  12.868  0.2448 -1.2534 -1.2126
12624TIP3   OH259362   2.961   0.392   0.292  0.0375 -1.0972 -0.6807
12624TIP3    H159363   3.001   0.319   0.245 -0.0679 -0.8133 -1.2096
12624TIP3    H259364   2.869   0.369   0.300  0.1001 -1.2549 -0.4042
12625TIP3   OH259365   4.252   3.274  13.505  0.3999 -0.3604 -0.0694
12625TIP3    H159366   4.320   3.222  13.462 -2.2814 -1.2414 -3.5116
12625TIP3    H259367   4.176   3.215  13.508 -0.7513  1.1762  2.0851
12626TIP3   OH259368   1.408   4.595   2.259 -0.4202  0.0448 -0.0119
12626TIP3    H159369   1.496   4.620   2.231 -0.5513 -0.3199 -0.7649
12626TIP3    H259370   1.368   4.556   2.181 -1.1085 -0.1569  0.4351
12627TIP3   OH259371   3.267   5.019  11.665 -0.0530 -0.3735 -0.0852
12627TIP3    H159372   3.271   5.035  11.571  2.1584 -0.4888 -0.0240
12627TIP3    H259373   3.314   4.937  11.678 -3.4517 -2.3331  0.7263
12628TIP3   OH259374   3.046   3.729  13.185  0.7123  0.2112 -0.5123
12628TIP3    H159375   3.020   3.817  13.212  0.9407  1.1918 -3.3063
12628TIP3    H259376   2.971   3.696  13.135  1.0504 -0.7330 -0.4059
12629TIP3   OH259377   6.348   2.882   3.325 -0.3619  0.3019 -1.3630
12629TIP3    H159378   6.357   2.977   3.338 -0.0854  0.0709  0.2572
12629TIP3    H259379   6.255   2.865   3.341  0.0545 -0.0410  0.8587
12630TIP3   OH259380   1.290   4.289  12.583  0.4204 -0.0360 -0.0857
12630TIP3    H159381   1.305   4.378  12.615 -0.1715 -0.5214  1.5585
12630TIP3    H259382   1.201   4.268  12.610  0.8007 -1.3856  0.1504
12631TIP3   OH259383   0.424   5.494  16.095  0.4336 -0.2271  0.5790
12631TIP3    H159384   0.434   5.518  16.003  0.1290 -0.4497  0.4874
12631TIP3    H259385   0.353   5.431  16.096 -0.2076  0.4927  1.0876
12632TIP3   OH259386   0.165   0.349  15.864 -0.4444  0.1070  0.0843
12632TIP3    H159387   0.137   0.406  15.792  0.4130  0.1954 -0.1828
12632TIP3    H259388   0.152   0.403  15.942 -1.7968 -0.1470  0.0454
12633TIP3   OH259389   1.480   6.457   2.474 -0.4719  0.3746 -0.0773
12633TIP3    H159390   1.538   6.382   2.461 -0.0206  0.5824  0.7159
12633TIP3    H259391   1.405   6.422   2.523 -0.9733  0.1266 -1.0198
12634TIP3   OH259392   2.751   0.707   2.966 -0.7925  0.0295  0.1289
12634TIP3    H159393   2.709   0.788   2.995  1.4520  1.8243 -1.5330
12634TIP3    H259394   2.719   0.693   2.877 -3.4111 -2.5462  1.3620
12635TIP3   OH259395   4.091   6.188   0.776 -0.0365  0.5517  0.3029
12635TIP3    H159396   4.009   6.234   0.794 -1.1771 -1.9789  1.8856
12635TIP3    H259397   4.088   6.171   0.682 -0.9901  1.1161  0.2241
12636TIP3   OH259398   3.543   3.909   4.835  0.5706  0.2033 -0.6402
12636TIP3    H159399   3.490   3.936   4.910  0.0384 -0.9523 -0.5940
12636TIP3    H259400   3.522   3.974   4.768  1.1382  1.3187  0.2352
12637TIP3   OH259401   2.852   6.445   2.095 -0.1820 -0.2258  0.1939
12637TIP3    H159402   2.944   6.448   2.068  0.0456 -0.9399  0.8635
12637TIP3    H259403   2.853   6.397   2.178 -1.1986 -0.5824  0.0073
12638TIP3   OH259404   0.696   4.466   1.321  0.6245  0.0854  0.3998
12638TIP3    H159405   0.734   4.394   1.270  3.0022  1.3800  0.2637
12638TIP3    H259406   0.640   4.513   1.258 -0.8198 -1.5092  0.4544
12639TIP3   OH259407   3.066   6.697  16.038 -0.1946  0.0804  0.8028
12639TIP3    H159408   3.089   6.640  16.110  1.0783 -0.2531  0.1340
12639TIP3    H259409   3.036   6.638  15.969 -0.9308  0.3696  0.8595
12640TIP3   OH259410   4.939   0.682  17.103 -0.0831  0.9415 -0.0051
12640TIP3    H159411   4.854   0.720  17.127  0.1504  2.2342 -1.1723
12640TIP3    H259412   4.989   0.755  17.067  1.3329  0.0644  0.1271
12641TIP3   OH259413   3.871   5.286  12.262 -0.1683 -0.0736  1.0648
12641TIP3    H159414   3.888   5.227  12.334 -0.6590  0.7749  1.8955
12641TIP3    H259415   3.791   5.252  12.222  1.7331 -2.3137 -0.9962
12642TIP3   OH259416   3.238   5.509   4.941 -0.3166  1.1075  0.0826
12642TIP3    H159417   3.304   5.507   5.011 -0.9363 -1.0010  0.6191
12642TIP3    H259418   3.273   5.451   4.874 -1.6194 -0.0473  0.3814
12643TIP3   OH259419   3.336   0.641  17.111  0.1974  0.2777 -0.3846
12643TIP3    H159420   3.249   0.681  17.117  0.2730  0.2416  1.0610
12643TIP3    H259421   3.318   0.551  17.082 -0.3122  0.0394  0.6508
12644TIP3   OH259422   2.760   2.177   5.280  0.0825  1.0077 -0.0786
12644TIP3    H159423   2.741   2.100   5.227  0.4079  0.3608  0.7429
12644TIP3    H259424   2.738   2.251   5.223  0.4807  0.3253 -1.1364
12645TIP3   OH259425   4.540   0.637  14.535  0.3024  0.7032 -0.3244
12645TIP3    H159426   4.471   0.685  14.488  0.5484  0.7563 -0.6302
12645TIP3    H259427   4.493   0.592  14.606 -0.2049 -0.1095 -1.1721
12646TIP3   OH259428   6.176   1.307   2.673  0.3256 -0.1739 -0.0419
12646TIP3    H159429   6.111   1.242   2.701 -0.4932  0.3374 -0.7290
12646TIP3    H259430   6.211   1.342   2.754 -0.4169 -0.3017  0.3360
12647TIP3   OH259431   1.391   0.865   4.522  0.3649  0.3779  0.1807
12647TIP3    H159432   1.319   0.908   4.568  0.7431  1.3540 -0.1243
12647TIP3    H259433   1.449   0.835   4.592 -0.3832 -0.5124  0.4311
12648TIP3   OH259434   1.268   6.355   4.944  0.2733 -0.2553  0.0660
12648TIP3    H159435   1.299   6.300   4.872 -1.3835  1.0822 -1.7525
12648TIP3    H259436   1.301   6.313   5.023  0.9447 -2.5693 -1.3929
12649TIP3   OH259437   2.137   2.571   0.296  0.0342 -0.1309  0.3766
12649TIP3    H159438   2.101   2.547   0.210  0.9375 -0.6861  0.1430
12649TIP3    H259439   2.125   2.493   0.350  0.9482 -0.3626  0.2666
12650TIP3   OH259440   0.925   4.560  13.694 -0.0296  0.4180  0.0174
12650TIP3    H159441   0.906   4.632  13.634  2.7485  1.5698  0.4407
12650TIP3    H259442   1.015   4.535  13.674  0.1416 -0.7457  2.0892
12651TIP3   OH259443   1.800   0.666  16.446 -0.0129  0.2271 -0.1835
12651TIP3    H159444   1.740   0.676  16.372  0.8990  0.2226 -0.9344
12651TIP3    H259445   1.818   0.756  16.474 -0.1802  0.2400 -0.1198
12652TIP3   OH259446   6.070   4.795  11.560  0.5464 -0.5508 -0.1305
12652TIP3    H159447   6.149   4.842  11.532  0.2395  0.9219  1.3883
12652TIP3    H259448   6.015   4.792  11.482  1.5056 -0.3214 -0.8201
12653TIP3   OH259449   0.702   0.766   3.571  0.1706  0.3416 -0.0747
12653TIP3    H159450   0.692   0.703   3.643 -0.1333 -0.6465 -0.9760
12653TIP3    H259451   0.785   0.811   3.590  0.9988 -1.1630 -0.0707
12654TIP3   OH259452   0.337   2.892   5.949 -0.3235 -0.0166 -0.1064
12654TIP3    H159453   0.346   2.900   6.044  1.6664  0.0299 -0.2823
12654TIP3    H259454   0.301   2.805   5.936 -1.9739  0.5156  0.7520
12655TIP3   OH259455   2.944   5.080  13.933  0.4273 -0.4646  0.2096
12655TIP3    H159456   2.869   5.021  13.946  0.0387  0.0339  0.2556
12655TIP3    H259457   2.914   5.164  13.967  0.9557 -0.2193  0.0745
12656TIP3   OH259458   4.091   2.578  15.606  0.0081  0.0129 -0.0518
12656TIP3    H159459   4.184   2.586  15.586  0.1405 -0.4180  0.3834
12656TIP3    H259460   4.069   2.660  15.649  0.1426  0.1895 -0.3134
12657TIP3   OH259461   2.937   5.693  12.129  0.3028 -0.2892  0.1874
12657TIP3    H159462   3.015   5.746  12.146  0.7580 -0.4278 -1.4121
12657TIP3    H259463   2.864   5.753  12.144  0.7339  0.1166  0.7173
12658TIP3   OH259464   6.146   5.677   2.235  0.4838 -0.3217 -0.4334
12658TIP3    H159465   6.068   5.731   2.251  1.3501  0.8174  0.0342
12658TIP3    H259466   6.148   5.615   2.307  0.9473  0.7665  0.5008
12659TIP3   OH259467   1.491   5.129  13.320  0.6750  0.4885  0.3746
12659TIP3    H159468   1.574   5.159  13.282  1.0317 -0.0349  0.7249
12659TIP3    H259469   1.430   5.200  13.303  0.9500  0.4686 -0.7370
12660TIP3   OH259470   2.799   2.881  16.222 -0.5866  0.2910 -0.5984
12660TIP3    H159471   2.758   2.960  16.188  0.1019  0.0942 -1.9309
12660TIP3    H259472   2.870   2.863  16.160  0.4398 -0.3117  0.7416
12661TIP3   OH259473   0.705   3.396  13.039 -0.2967  0.3291  0.0749
12661TIP3    H159474   0.654   3.325  13.078 -0.4562  0.9881  1.0703
12661TIP3    H259475   0.650   3.428  12.967 -1.8296  1.7994  1.8531
12662TIP3   OH259476   2.428   5.699   1.498  0.1869  0.1735 -0.0156
12662TIP3    H159477   2.396   5.784   1.468  1.5978  0.3163 -1.1412
12662TIP3    H259478   2.351   5.642   1.495 -1.1792  1.8225  2.4304
12663TIP3   OH259479   6.298   4.360  13.286  0.2906 -0.0982  0.1285
12663TIP3    H159480   6.246   4.285  13.315  0.7352 -0.8509 -0.9628
12663TIP3    H259481   6.257   4.436  13.327  0.1523 -0.9942  1.6750
12664TIP3   OH259482   2.201   1.323   2.034 -0.3620 -0.3084 -0.5882
12664TIP3    H159483   2.227   1.374   2.110  1.3688 -1.3576 -0.4577
12664TIP3    H259484   2.279   1.323   1.978 -1.4266 -0.0408 -2.0948
12665TIP3   OH259485   0.668   2.679   1.647 -0.2494  0.0963  0.5162
12665TIP3    H159486   0.711   2.748   1.697  4.2296 -0.2585 -2.5290
12665TIP3    H259487   0.611   2.726   1.586 -0.9377  0.8255  1.7113
12666TIP3   OH259488   1.486   3.762  12.871 -0.2011 -0.2383  0.3584
12666TIP3    H159489   1.447   3.700  12.809 -0.0639  1.5080 -1.5175
12666TIP3    H259490   1.422   3.770  12.941 -0.5836 -1.8428  0.2093
12667TIP3   OH259491   5.755   6.799  12.107  0.7237  0.2053  0.6765
12667TIP3    H159492   5.661   6.780  12.113  0.6095  0.8398  1.0113
12667TIP3    H259493   5.783   6.758  12.026 -0.0350  0.7686  0.1173
12668TIP3   OH259494   1.981   2.284   3.742 -0.2502  0.3487  0.1966
12668TIP3    H159495   2.061   2.234   3.727 -0.6080  0.2570 -1.5128
12668TIP3    H259496   2.009   2.359   3.795  0.6729 -0.5009  0.9253
12669TIP3   OH259497   0.461   4.965  14.255 -0.1133  0.0732 -0.6884
12669TIP3    H159498   0.541   4.932  14.214  0.0708  0.5177 -0.6826
12669TIP3    H259499   0.477   4.958  14.349  1.0413  2.8390 -0.6435
12670TIP3   OH259500   1.950   2.016  13.849  0.2154  0.2209  0.5608
12670TIP3    H159501   1.956   2.070  13.928  3.0106  0.9023 -0.0683
12670TIP3    H259502   2.006   1.941  13.866 -1.6750 -1.2367  0.4389
12671TIP3   OH259503   2.041   1.177   2.863  0.3517 -0.1011  0.1991
12671TIP3    H159504   1.947   1.189   2.849  0.1852  1.1489  2.1243
12671TIP3    H259505   2.051   1.083   2.880 -0.5030 -0.2936 -0.3569
12672TIP3   OH259506   6.238   1.563  11.157 -0.4799  0.2808  0.4661
12672TIP3    H159507   6.180   1.494  11.124 -2.0086  1.8061 -0.1103
12672TIP3    H259508   6.320   1.518  11.175 -0.9965 -1.4384 -1.2454
12673TIP3   OH259509   1.725   6.219  10.536  0.2565  0.2103  0.2560
12673TIP3    H159510   1.675   6.151  10.581  0.0072 -1.2080 -2.0782
12673TIP3    H259511   1.660   6.264  10.481  0.9143  0.5887 -0.2211
12674TIP3   OH259512   5.060   4.448   3.988 -0.3962 -0.5530  0.5715
12674TIP3    H159513   5.070   4.516   3.921  1.4596  0.5147  1.8894
12674TIP3    H259514   5.034   4.370   3.940  0.0057  0.4331 -1.2851
12675TIP3   OH259515   6.772   6.236   5.251 -0.0874 -0.2543  0.0872
12675TIP3    H159516   6.695   6.294   5.253  1.7061  2.2090 -0.0708
12675TIP3    H259517   6.749   6.164   5.309 -2.1769  0.8967  0.7441
12676TIP3   OH259518   0.781   1.639   5.100  0.0930  0.8961 -0.4086
12676TIP3    H159519   0.781   1.547   5.125  2.0755  0.9647 -0.1031
12676TIP3    H259520   0.689   1.659   5.083 -0.8194 -0.2339  2.8004
12677TIP3   OH259521   6.676   5.909   4.409  0.0868  0.5671  0.0209
12677TIP3    H159522   6.641   5.965   4.339 -0.9770  0.1588  0.2155
12677TIP3    H259523   6.765   5.888   4.380  0.5651  2.4554  0.0050
12678TIP3   OH259524   1.397   0.691  14.588  0.0011 -0.4877  0.1030
12678TIP3    H159525   1.406   0.775  14.543 -0.1350 -1.7016 -2.2909
12678TIP3    H259526   1.318   0.700  14.640 -0.3692  0.6541 -0.6365
12679TIP3   OH259527   1.954   5.768  12.363 -0.7331  0.0522  0.2543
12679TIP3    H159528   1.977   5.769  12.455 -0.9377  0.7628  0.2974
12679TIP3    H259529   2.029   5.728  12.319 -0.7111 -0.4437  0.7457
12680TIP3   OH259530   6.117   5.217  13.154  0.0203 -0.3186 -0.5881
12680TIP3    H159531   6.086   5.162  13.226 -0.9258 -0.1085 -0.8274
12680TIP3    H259532   6.208   5.237  13.176 -0.1990 -0.4353  0.4395
12681TIP3   OH259533   3.443   4.092  11.566  0.3054 -0.3066  0.5687
12681TIP3    H159534   3.488   4.156  11.510  0.3329  0.4261  1.4147
12681TIP3    H259535   3.350   4.103  11.544  0.5189 -1.8258 -1.1835
12682TIP3   OH259536   6.197   3.413   2.372 -0.0304 -0.1313 -0.0083
12682TIP3    H159537   6.234   3.375   2.452 -2.4918 -3.3749 -0.3181
12682TIP3    H259538   6.260   3.391   2.304  0.6720  0.1862  0.5182
12683TIP3   OH259539   4.107   1.770  14.727 -0.0299 -0.2788 -0.3398
12683TIP3    H159540   4.162   1.694  14.706 -0.3050 -0.6258  0.1746
12683TIP3    H259541   4.054   1.741  14.801 -0.4973  0.2516 -0.4657
12684TIP3   OH259542   0.198   3.033   2.465  1.0645  0.5294  1.1688
12684TIP3    H159543   0.240   3.056   2.382 -0.8805  1.5326  0.4281
12684TIP3    H259544   0.232   2.946   2.486  1.6151  0.2864 -0.6584
12685TIP3   OH259545   1.192   6.714   0.459  0.6257  0.3364  0.0307
12685TIP3    H159546   1.270   6.689   0.410  0.7982  1.7775 -0.4473
12685TIP3    H259547   1.124   6.653   0.429  0.7745  1.0774 -1.8676
12686TIP3   OH259548   0.908   3.445  15.175  0.2154 -0.8122  0.1211
12686TIP3    H159549   0.945   3.387  15.108 -0.3290 -0.1426 -0.7679
12686TIP3    H259550   0.816   3.455  15.150  0.1101 -0.2149  0.7300
12687TIP3   OH259551   3.364   4.535  13.721 -0.1920  0.1374 -0.3374
12687TIP3    H159552   3.345   4.611  13.665 -2.1880 -0.7043 -0.8435
12687TIP3    H259553   3.286   4.526  13.776  0.8071 -0.4316  1.0024
12688TIP3   OH259554   0.260   1.527   4.955  0.5226 -0.0120  0.0931
12688TIP3    H159555   0.326   1.516   5.024  0.3788  1.8875  0.5481
12688TIP3    H259556   0.278   1.613   4.918 -2.7576  1.2912  1.3539
12689TIP3   OH259557   0.131   2.481   2.683 -0.2105 -0.3465  0.8665
12689TIP3    H159558   0.172   2.488   2.770  2.4608  1.2660 -0.4681
12689TIP3    H259559   0.066   2.412   2.694  1.0505 -1.1815  3.8020
12690TIP3   OH259560   3.135   2.974   5.467 -0.0745 -0.2304  0.6220
12690TIP3    H159561   3.216   3.025   5.456 -0.5522  0.3564 -0.2448
12690TIP3    H259562   3.165   2.884   5.482  0.7572  0.1328  1.1834
12691TIP3   OH259563   2.010   4.958  13.318 -0.0122  0.3972  0.0885
12691TIP3    H159564   1.994   5.003  13.235 -0.5554  0.0990  0.0342
12691TIP3    H259565   2.015   4.865  13.294  3.1474  0.5549 -0.1301
12692TIP3   OH259566   1.834   3.563   5.010  0.2655 -0.3010 -0.1120
12692TIP3    H159567   1.786   3.480   5.010 -0.6629  0.2281 -0.4434
12692TIP3    H259568   1.924   3.539   4.989  0.2901 -1.3843  1.1485
12693TIP3   OH259569   1.504   2.447   5.974 -0.4183  0.3102  0.2412
12693TIP3    H159570   1.496   2.457   6.069 -0.4511 -0.8742  0.3746
12693TIP3    H259571   1.428   2.493   5.938 -1.2567 -0.5608  0.8745
12694TIP3   OH259572   0.510   5.085   3.981  0.6691  0.0921  0.1534
12694TIP3    H159573   0.537   5.140   4.054 -0.0642  1.8390 -0.8469
12694TIP3    H259574   0.500   4.998   4.018  3.2204  0.3358  1.4813
12695TIP3   OH259575   3.141   3.415   5.994  0.7240 -0.0097 -0.2866
12695TIP3    H159576   3.162   3.508   5.984  1.6173 -0.2390 -0.5174
12695TIP3    H259577   3.200   3.385   6.063  0.3767 -0.3865 -0.1575
12696TIP3   OH259578   3.601   6.228  12.405 -0.2983 -0.2714  0.5398
12696TIP3    H159579   3.576   6.136  12.412  0.6198 -0.4779  1.0716
12696TIP3    H259580   3.568   6.255  12.319  0.6191 -1.4686 -0.1996
12697TIP3   OH259581   3.745   6.728   0.178 -0.3067  0.3303 -0.1493
12697TIP3    H159582   3.741   6.632   0.175  0.3136  0.3393 -1.5900
12697TIP3    H259583   3.819   6.751   0.121  1.3116  1.5374  2.3432
12698TIP3   OH259584   1.118   1.822  14.006  0.2026  0.2784  0.2400
12698TIP3    H159585   1.052   1.844  13.939  0.3816  1.2890  0.3864
12698TIP3    H259586   1.076   1.754  14.059  0.1401 -0.6867 -1.0186
12699TIP3   OH259587   4.271   1.176  13.767  0.1634  0.0866 -0.0177
12699TIP3    H159588   4.327   1.116  13.718 -2.5349 -3.5883  1.1920
12699TIP3    H259589   4.235   1.235  13.701  0.8890 -1.2360 -1.6173
12700TIP3   OH259590   2.856   0.647  13.560  0.1214  0.2782  0.1143
12700TIP3    H159591   2.878   0.692  13.642 -0.6148 -0.6926  0.8522
12700TIP3    H259592   2.763   0.626  13.568  0.3193 -0.8696 -0.4670
12701TIP3   OH259593   2.850   3.404   0.209 -0.1755 -0.1205  0.3318
12701TIP3    H159594   2.928   3.349   0.217 -0.6283 -0.6246  1.3766
12701TIP3    H259595   2.882   3.485   0.168  0.3766 -1.3871 -1.7993
12702TIP3   OH259596   3.577   3.375   6.481  0.2698  0.1221  0.0000
12702TIP3    H159597   3.586   3.304   6.544 -0.4551  0.8454  0.9194
12702TIP3    H259598   3.663   3.416   6.479 -0.2034  1.2158  1.8548
12703TIP3   OH259599   2.470   2.928   4.126 -0.5147  0.0361  0.5019
12703TIP3    H159600   2.448   2.938   4.033 -2.6061 -0.3865  0.9272
12703TIP3    H259601   2.416   2.994   4.170  1.0323  0.7576  1.3780
12704TIP3   OH259602   1.316   0.375   4.965  0.2718 -0.2854 -0.3906
12704TIP3    H159603   1.249   0.385   5.032  1.2241 -1.3451  0.7532
12704TIP3    H259604   1.320   0.460   4.922 -1.2096  0.0325  0.0718
12705TIP3   OH259605   0.892   6.509  11.841 -0.0880  0.1638  0.5588
12705TIP3    H159606   0.815   6.472  11.798  0.4010  2.1303 -2.1288
12705TIP3    H259607   0.955   6.437  11.843  0.6812  0.5665 -4.1462
12706TIP3   OH259608   4.956   1.252   2.379 -0.1082 -0.2634  0.5562
12706TIP3    H159609   5.019   1.324   2.377 -0.9660  0.4736 -2.7129
12706TIP3    H259610   5.010   1.173   2.368  0.5524  0.0994  1.1709
12707TIP3   OH259611   2.099   6.788  13.012 -0.0280 -0.0108 -0.0269
12707TIP3    H159612   2.032   6.854  12.991 -1.1171 -1.2651 -0.5722
12707TIP3    H259613   2.132   6.814  13.098 -1.0741  0.7454  0.1602
12708TIP3   OH259614   1.983   2.385  16.612  0.2522  0.3636 -0.2815
12708TIP3    H159615   2.076   2.407  16.612  0.2586  0.4016  1.0180
12708TIP3    H259616   1.980   2.293  16.585  0.6325  0.4735 -0.7060
12709TIP3   OH259617   1.847   3.650   3.837  0.5441 -0.4612 -0.4712
12709TIP3    H159618   1.863   3.642   3.743  2.6045 -1.5552 -0.0428
12709TIP3    H259619   1.785   3.580   3.857 -0.6129  0.3551 -1.1720
12710TIP3   OH259620   3.646   3.605   3.139  0.0345  0.2311  0.0864
12710TIP3    H159621   3.613   3.692   3.162  2.5858  1.3555 -0.3650
12710TIP3    H259622   3.711   3.586   3.207 -0.1444 -1.1062 -0.1119
12711TIP3   OH259623   1.397   2.694  11.058 -0.1429  0.1903 -0.3189
12711TIP3    H159624   1.471   2.742  11.022 -0.4286 -0.2280 -1.5058
12711TIP3    H259625   1.328   2.759  11.068  0.0094  0.3533 -0.3371
12712TIP3   OH259626   2.631   3.853   1.100  0.0376 -0.2532 -0.0799
12712TIP3    H159627   2.578   3.915   1.050  1.1383  0.1657 -0.7688
12712TIP3    H259628   2.697   3.908   1.144 -0.1737 -0.7426  0.8610
12713TIP3   OH259629   4.906   1.284   3.791 -0.0405  0.0384 -0.0577
12713TIP3    H159630   4.956   1.258   3.868 -1.7767 -0.6624  0.8665
12713TIP3    H259631   4.968   1.279   3.719  1.2055 -0.8078  1.0550
12714TIP3   OH259632   2.263   3.448   1.246  0.0671 -1.0362 -0.1134
12714TIP3    H159633   2.191   3.467   1.306 -0.1143 -0.4393 -0.5241
12714TIP3    H259634   2.340   3.483   1.290 -0.5574  2.8594 -1.9094
12715TIP3   OH259635   2.521   1.445  12.891  0.1386  0.8968 -0.1654
12715TIP3    H159636   2.455   1.376  12.884 -0.1572  0.9387  1.9983
12715TIP3    H259637   2.539   1.470  12.800 -0.3789 -1.4184 -0.9334
12716TIP3   OH259638   2.198   4.816   0.298 -0.0930  0.3641  0.6161
12716TIP3    H159639   2.194   4.778   0.211  0.0179 -1.9645  1.5982
12716TIP3    H259640   2.283   4.787   0.333 -0.5030  0.5664  1.8124
12717TIP3   OH259641   0.745   0.835   4.657  0.3644 -0.3698 -0.2870
12717TIP3    H159642   0.742   0.907   4.594 -1.4815  1.6480  2.0443
12717TIP3    H259643   0.670   0.780   4.635  1.3051 -1.2184 -1.5351
12718TIP3   OH259644   0.228   4.917  16.944 -0.6172 -0.1609  0.7967
12718TIP3    H159645   0.271   4.880  16.866 -1.6067  0.0468  0.1449
12718TIP3    H259646   0.248   5.011  16.939  0.1501 -0.2855  1.3391
12719TIP3   OH259647   6.549   2.502  13.940 -0.2492  0.2018  0.0337
12719TIP3    H159648   6.562   2.445  13.864  1.6761 -1.0071  1.2319
12719TIP3    H259649   6.476   2.463  13.987  0.5415 -0.8329  0.4191
12720TIP3   OH259650   0.179   1.063  11.496 -0.6717 -0.1504  0.0347
12720TIP3    H159651   0.266   1.030  11.518 -0.9647 -1.3643 -0.5878
12720TIP3    H259652   0.188   1.098  11.407 -0.6408  0.4298  0.2615
12721TIP3   OH259653   3.725   5.437   5.277 -0.6595  1.2670 -0.6527
12721TIP3    H159654   3.744   5.348   5.304 -0.2869  1.3434 -0.6563
12721TIP3    H259655   3.784   5.452   5.203 -0.1844  1.7768 -0.1701
12722TIP3   OH259656   4.319   6.047   5.722 -0.4610 -0.0436 -0.4699
12722TIP3    H159657   4.287   6.063   5.633 -1.9362  2.9011  0.5135
12722TIP3    H259658   4.402   6.095   5.727  0.2763 -1.2789 -0.6305
12723TIP3   OH259659   5.258   3.772   3.528 -0.0061 -0.2564  0.1267
12723TIP3    H159660   5.239   3.752   3.436 -0.8924  1.0293  0.0046
12723TIP3    H259661   5.193   3.722   3.577 -1.5758  1.4680 -0.1264
12724TIP3   OH259662   1.714   2.397   1.061  0.5205 -0.3902 -0.0765
12724TIP3    H159663   1.802   2.367   1.084  0.7203  0.1783 -0.1132
12724TIP3    H259664   1.697   2.470   1.121 -0.0634 -0.7248  0.1700
12725TIP3   OH259665   3.202   5.875  11.947  0.1303  0.6135 -0.0451
12725TIP3    H159666   3.113   5.856  11.915 -0.4467  2.0835  0.6576
12725TIP3    H259667   3.225   5.958  11.905  0.6465  0.9150  0.8321
12726TIP3   OH259668   0.160   5.134  13.667  0.6126 -0.0941 -0.3912
12726TIP3    H159669   0.144   5.042  13.683 -0.0569 -0.2534 -1.8549
12726TIP3    H259670   0.179   5.139  13.573 -0.6404  1.4133 -0.5959
12727TIP3   OH259671   2.836   1.932  13.224 -0.0700 -0.1808 -0.4064
12727TIP3    H159672   2.869   1.863  13.282  0.2222  1.7104  1.7736
12727TIP3    H259673   2.745   1.944  13.251  0.3131  1.2967  0.2734
12728TIP3   OH259674   3.061   6.718  15.380  1.2940  0.1977  0.4718
12728TIP3    H159675   3.076   6.672  15.463 -0.2252  0.6090  1.0009
12728TIP3    H259676   3.103   6.663  15.314  2.0785 -0.4027  1.4556
12729TIP3   OH259677   2.768   4.689  13.785  0.4105  0.0822  0.8781
12729TIP3    H159678   2.719   4.719  13.863  0.6281  2.2111  0.2302
12729TIP3    H259679   2.744   4.597  13.776 -1.4481  0.4129  2.1080
12730TIP3   OH259680   5.290   3.371  14.781  0.1330  0.1855 -0.0119
12730TIP3    H159681   5.355   3.423  14.735 -0.3633  0.6521 -0.1871
12730TIP3    H259682   5.271   3.297  14.723  3.5340 -2.2247  1.7776
12731TIP3   OH259683   5.689   0.121   5.557  0.0339  0.4774 -0.2292
12731TIP3    H159684   5.655   0.211   5.566  0.3566  0.5199  0.6226
12731TIP3    H259685   5.721   0.117   5.467 -1.4069  0.7239 -0.7626
12732TIP3   OH259686   2.519   6.692   3.874 -0.9804 -0.0420 -0.2333
12732TIP3    H159687   2.452   6.753   3.906  0.5758  2.2572 -1.2196
12732TIP3    H259688   2.600   6.722   3.916  0.0370 -0.6791 -1.7092
12733TIP3   OH259689   5.625   1.786   1.406  0.5114  0.5066  0.3772
12733TIP3    H159690   5.644   1.775   1.499  3.1084 -3.2019 -0.5032
12733TIP3    H259691   5.534   1.760   1.396  0.3379  0.5505  1.7829
12734TIP3   OH259692   6.539   5.045   3.236  0.5295  0.0744 -0.0239
12734TIP3    H159693   6.494   5.054   3.320  1.5002  3.0429  0.2463
12734TIP3    H259694   6.472   5.063   3.170  0.4569  0.7757  0.2367
12735TIP3   OH259695   5.085   3.334   5.421 -0.0909 -0.4869 -0.8088
12735TIP3    H159696   5.050   3.423   5.420 -2.1906 -1.2065  2.0793
12735TIP3    H259697   5.159   3.338   5.480 -1.7312 -1.1436  1.3452
12736TIP3   OH259698   5.124   4.033   2.061 -0.4798 -0.3400 -0.3384
12736TIP3    H159699   5.144   4.121   2.095 -0.0923 -0.4503 -0.2725
12736TIP3    H259700   5.203   3.982   2.080 -1.0975 -0.9713  0.5407
12737TIP3   OH259701   1.092   4.192   5.446 -0.6138  1.2880 -0.4565
12737TIP3    H159702   1.053   4.105   5.452 -1.0701  1.4231 -1.4145
12737TIP3    H259703   1.174   4.179   5.398  0.7491  0.9428  1.8815
12738TIP3   OH259704   3.288   0.837  15.644 -0.2060 -0.5260 -0.3532
12738TIP3    H159705   3.331   0.922  15.637 -0.1519 -0.5935 -0.8654
12738TIP3    H259706   3.326   0.798  15.722 -0.4208  0.0249  0.0272
12739TIP3   OH259707   3.876   2.641  14.656 -0.7401 -0.4249 -0.0675
12739TIP3    H159708   3.927   2.590  14.594  1.1081 -0.4221  1.3924
12739TIP3    H259709   3.930   2.719  14.673 -1.3559 -0.2825  1.3031
12740TIP3   OH259710   5.723   2.374   2.061 -0.0227  0.3683  0.0028
12740TIP3    H159711   5.811   2.411   2.072  0.1558  0.2858 -1.0400
12740TIP3    H259712   5.686   2.423   1.988  0.3529 -1.7073 -1.6350
12741TIP3   OH259713   4.819   1.603  13.088 -0.1363 -0.1044  0.1989
12741TIP3    H159714   4.868   1.540  13.036  0.0637  1.0077 -0.9850
12741TIP3    H259715   4.810   1.679  13.031 -1.6047  0.4076  1.0840
12742TIP3   OH259716   1.357   2.733  11.883  0.2960 -0.8693  0.5001
12742TIP3    H159717   1.416   2.803  11.856 -1.1069 -0.0657 -0.5417
12742TIP3    H259718   1.373   2.662  11.821  1.2442 -1.2301  1.1498
12743TIP3   OH259719   5.907   2.965  15.016 -0.7262  0.2877  0.0199
12743TIP3    H159720   5.844   2.916  15.068 -1.0863  0.3569 -0.3506
12743TIP3    H259721   5.922   3.046  15.066 -0.1869 -0.1613  0.5912
12744TIP3   OH259722   0.071   5.185   1.406  0.5789 -0.7068 -0.9927
12744TIP3    H159723   0.051   5.192   1.312  4.0134 -1.2298 -1.8710
12744TIP3    H259724   0.162   5.154   1.408  0.4405 -1.0806  2.5355
12745TIP3   OH259725   5.458   4.418  14.885 -0.0808  0.3402 -0.1906
12745TIP3    H159726   5.396   4.488  14.905  0.2230  0.0533  1.8196
12745TIP3    H259727   5.405   4.338  14.887  0.2448  0.1404  1.1215
12746TIP3   OH259728   6.022   2.980   5.330  0.1316  0.0941  0.5073
12746TIP3    H159729   6.106   2.999   5.371 -0.1361 -0.7320  1.4443
12746TIP3    H259730   6.017   2.884   5.330  0.0444  0.0744 -1.2781
12747TIP3   OH259731   3.292   4.758   0.097 -0.2800 -0.1139  1.0373
12747TIP3    H159732   3.200   4.740   0.115 -0.8314  2.0960  0.5759
12747TIP3    H259733   3.310   4.840   0.143  0.4877  1.3147 -1.6644
12748TIP3   OH259734   0.353   4.256   1.218  0.3693  0.1426 -0.0188
12748TIP3    H159735   0.384   4.197   1.287  0.2043 -1.3659 -1.2192
12748TIP3    H259736   0.259   4.242   1.214  0.0707  1.7644  0.8514
12749TIP3   OH259737   5.555   0.078   4.899  0.2306 -0.2233 -1.1969
12749TIP3    H159738   5.569   0.043   4.987 -0.0953  0.1288 -1.0027
12749TIP3    H259739   5.572   0.004   4.841  1.6866 -0.1242 -0.9016
12750TIP3   OH259740   6.441   1.177  14.985  0.6001  0.0585  0.4026
12750TIP3    H159741   6.492   1.237  15.040  0.4022  1.2776 -0.7058
12750TIP3    H259742   6.369   1.149  15.040 -1.4094  3.7582 -0.1792
12751TIP3   OH259743   4.334   0.317   0.100  0.0522  0.4170 -0.0251
12751TIP3    H159744   4.367   0.293   0.013  1.4809 -1.0732  0.8952
12751TIP3    H259745   4.366   0.406   0.114  1.3023  0.0236 -0.3171
12752TIP3   OH259746   4.423   3.564   1.902 -0.4127 -0.1865  0.3797
12752TIP3    H159747   4.501   3.509   1.895 -2.7974 -3.7410  0.6882
12752TIP3    H259748   4.435   3.611   1.985  1.2857 -0.8660  0.5547
12753TIP3   OH259749   1.321   0.120   5.089 -0.3846  0.0322  0.4249
12753TIP3    H159750   1.295   0.158   5.005 -0.6689 -0.1794  0.4179
12753TIP3    H259751   1.251   0.145   5.150  0.3434  1.0883  0.8484
12754TIP3   OH259752   6.397   3.452  15.181  0.3903  0.1136  0.0526
12754TIP3    H159753   6.420   3.513  15.110  0.2536  1.4435  1.1258
12754TIP3    H259754   6.472   3.455  15.240 -0.5970  1.0353  1.2954
12755TIP3   OH259755   2.093   3.619  12.082  0.0889 -0.1721  0.0193
12755TIP3    H159756   2.114   3.708  12.111  1.4513 -1.2077  2.3637
12755TIP3    H259757   2.155   3.602  12.011  1.0569  0.1056  0.7854
12756TIP3   OH259758   5.854   5.044  11.923 -0.0798 -0.3094  0.0858
12756TIP3    H159759   5.887   4.957  11.900 -0.4834 -0.0013 -1.6960
12756TIP3    H259760   5.904   5.068  12.001  0.0363 -2.1366  0.6047
12757TIP3   OH259761   6.183   1.201  13.229  0.5411 -0.5358 -0.1939
12757TIP3    H159762   6.242   1.272  13.252  1.2563 -0.5227 -1.9789
12757TIP3    H259763   6.240   1.134  13.192 -0.3863 -1.1711 -0.4856
12758TIP3   OH259764   2.829   2.755   6.094  0.1366  0.3452 -0.1870
12758TIP3    H159765   2.884   2.830   6.113  0.5713 -0.8681  3.8854
12758TIP3    H259766   2.767   2.751   6.167  1.0937 -4.0963  0.5395
12759TIP3   OH259767   0.051   4.168  16.738  0.0774 -0.5696  0.0833
12759TIP3    H159768   0.060   4.220  16.818  0.5965  1.7180 -1.3950
12759TIP3    H259769   0.022   4.231  16.672  0.5318 -2.2115 -1.7299
12760TIP3   OH259770   4.788   6.179  15.298 -0.6043  0.3053  0.0346
12760TIP3    H159771   4.764   6.271  15.286  0.3594  0.5333 -0.1784
12760TIP3    H259772   4.866   6.181  15.354 -0.8704 -0.4114  0.4478
12761TIP3   OH259773   0.103   4.130  12.138  0.1944 -0.1224 -0.1425
12761TIP3    H159774   0.050   4.197  12.096  0.2594  0.1241  0.1690
12761TIP3    H259775   0.050   4.098  12.210  1.0004  1.0763  1.0043
12762TIP3   OH259776   6.042   0.614   1.290 -0.1007  0.1421 -0.0357
12762TIP3    H159777   6.062   0.554   1.218 -1.8295  0.6840 -0.9949
12762TIP3    H259778   5.980   0.677   1.252 -1.5814  0.0303  2.1150
12763TIP3   OH259779   3.898   1.836  11.683  0.2789 -0.0702 -0.4782
12763TIP3    H159780   3.859   1.917  11.716  0.9569 -0.6274  1.7412
12763TIP3    H259781   3.829   1.798  11.628 -0.6412  1.1857 -0.2310
12764TIP3   OH259782   3.831   6.432   0.656 -0.8151 -0.1401 -0.9475
12764TIP3    H159783   3.865   6.342   0.650  0.3635  0.4170 -3.4329
12764TIP3    H259784   3.736   6.422   0.656 -0.7235 -1.3266 -3.2506
12765TIP3   OH259785   1.894   6.078   5.058 -0.4932  0.0140 -0.0820
12765TIP3    H159786   1.879   6.118   4.973 -1.2125 -0.5837 -0.2408
12765TIP3    H259787   1.882   5.984   5.044 -1.6843  0.0043  0.8863
12766TIP3   OH259788   0.872   3.888   3.274  0.0279 -0.2986 -0.1232
12766TIP3    H159789   0.902   3.799   3.256  2.0238  0.4090 -0.3868
12766TIP3    H259790   0.870   3.931   3.189 -0.2195  0.1240  0.0936
12767TIP3   OH259791   1.376   4.502  13.936  0.8155 -0.1849  0.3271
12767TIP3    H159792   1.466   4.485  13.910  1.3028  0.6260  1.4420
12767TIP3    H259793   1.348   4.421  13.979  0.8324 -0.6202 -0.4658
12768TIP3   OH259794   2.993   3.712  12.627  0.1340  0.2126 -0.1832
12768TIP3    H159795   2.939   3.682  12.701  1.3063 -1.4090  0.0480
12768TIP3    H259796   3.031   3.631  12.592 -1.4374  0.7786 -3.3999
12769TIP3   OH259797   0.928   0.924  15.010 -0.0838  0.1442  0.2771
12769TIP3    H159798   0.925   0.911  15.105 -0.1655 -4.2877 -0.2416
12769TIP3    H259799   0.841   0.899  14.979  0.2130  0.7460 -1.0832
12770TIP3   OH259800   4.200   5.826  12.446 -0.2920 -0.1504  0.1086
12770TIP3    H159801   4.239   5.902  12.489 -0.3443  0.1040 -0.2961
12770TIP3    H259802   4.210   5.755  12.510 -0.6216  0.2928  0.6487
12771TIP3   OH259803   1.873   0.904  15.487 -0.1209 -0.1977  0.1963
12771TIP3    H159804   1.895   0.943  15.571  1.1663  0.6645 -0.5180
12771TIP3    H259805   1.928   0.826  15.481  1.0125  0.6501 -0.5557
12772TIP3   OH259806   6.811   5.649   0.857  0.4842  0.2063 -0.1044
12772TIP3    H159807   6.719   5.629   0.841  0.4107  0.0495  0.5338
12772TIP3    H259808   6.829   5.724   0.801 -0.3795  1.0605  0.7567
12773TIP3   OH259809   5.016   3.674  14.150 -0.1043 -0.5619  0.1325
12773TIP3    H159810   5.099   3.699  14.192 -0.1161  1.3908 -0.9365
12773TIP3    H259811   5.037   3.672  14.057 -1.0486 -0.9271 -0.0725
12774TIP3   OH259812   3.086   2.825   0.171 -0.4916  0.5058 -0.0151
12774TIP3    H159813   3.123   2.826   0.259 -1.7898 -0.5744  0.5532
12774TIP3    H259814   3.090   2.916   0.142  0.3400  0.7889  0.9886
12775TIP3   OH259815   0.237   0.721  17.173 -0.3637  0.1025 -0.9959
12775TIP3    H159816   0.280   0.701  17.090  1.4875 -1.8194  0.3662
12775TIP3    H259817   0.187   0.642  17.194 -0.6478  0.4896 -0.1741
12776TIP3   OH259818   1.733   0.189  11.819 -0.0868  0.6997 -0.3719
12776TIP3    H159819   1.731   0.225  11.730  0.3650 -1.1166 -1.1404
12776TIP3    H259820   1.813   0.136  11.821 -0.1294  0.6751  1.1079
12777TIP3   OH259821   2.311   1.723   3.082  0.3032  0.2283  0.0247
12777TIP3    H159822   2.395   1.731   3.126 -0.1512 -0.4175  1.0388
12777TIP3    H259823   2.270   1.646   3.123 -1.5801  1.6745  0.9096
12778TIP3   OH259824   0.218   0.940   0.160  0.4487 -0.7319  0.2702
12778TIP3    H159825   0.240   0.983   0.077 -0.1541  0.4895  0.7205
12778TIP3    H259826   0.164   0.866   0.135  1.5877 -1.3075 -0.5401
12779TIP3   OH259827   4.897   6.767   3.976  0.5304  0.0356  0.4349
12779TIP3    H159828   4.848   6.752   4.056 -0.3892  1.7350  0.2190
12779TIP3    H259829   4.852   6.716   3.909  1.3124 -1.4024  0.9820
12780TIP3   OH259830   2.448   5.089  15.734  0.5312 -0.0863 -0.0103
12780TIP3    H159831   2.491   5.174  15.720  0.7741 -0.1000  0.6312
12780TIP3    H259832   2.519   5.030  15.759  0.2358 -0.2549  0.4516
12781TIP3   OH259833   2.199   1.303  12.058  0.1077 -0.3432 -0.0471
12781TIP3    H159834   2.147   1.228  12.028 -0.4423 -0.7685  1.9242
12781TIP3    H259835   2.232   1.277  12.144  0.6047  1.3459  0.2880
12782TIP3   OH259836   5.995   2.028   6.753 -0.3726  0.4407  0.3982
12782TIP3    H159837   6.018   2.121   6.757 -1.7300  0.8091  0.0150
12782TIP3    H259838   6.042   1.988   6.826  0.3898  1.3945  0.4304
12783TIP3   OH259839   2.386   0.024   1.355 -0.4266 -0.2154  0.8990
12783TIP3    H159840   2.389   0.098   1.294 -0.9493  1.1216  2.4490
12783TIP3    H259841   2.300  -0.014   1.342 -0.5032  0.0060  0.7394
12784TIP3   OH259842   0.220   2.068   0.717 -0.5848  0.0467  0.2926
12784TIP3    H159843   0.137   2.076   0.765  0.0226  0.0524  1.3668
12784TIP3    H259844   0.200   2.009   0.644 -1.7407  0.7207  0.0511
12785TIP3   OH259845   0.933   3.015   0.364  0.9595  0.2817 -0.1226
12785TIP3    H159846   0.854   2.998   0.415  1.3207 -1.0940  0.0014
12785TIP3    H259847   0.905   3.077   0.297  0.1853  1.1446  0.9731
12786TIP3   OH259848   1.731   6.409  15.912  0.4190  0.1483  0.4854
12786TIP3    H159849   1.649   6.379  15.874 -0.9014  3.7859  0.2485
12786TIP3    H259850   1.798   6.381  15.850 -0.8823 -0.9383 -0.4408
12787TIP3   OH259851   6.051   4.654   3.240 -0.4762  0.2609  0.1276
12787TIP3    H159852   5.960   4.662   3.269 -1.3925 -2.8143 -1.6738
12787TIP3    H259853   6.060   4.718   3.170 -0.6953  1.8247  1.4979
12788TIP3   OH259854   0.375   6.049  14.206  0.5810 -0.3826  0.6989
12788TIP3    H159855   0.432   5.999  14.147 -0.3224 -0.2772 -0.2791
12788TIP3    H259856   0.287   6.018  14.186  0.3870 -1.5072  3.1295
12789TIP3   OH259857   2.878   0.932   1.213 -0.4256  0.0788  0.3304
12789TIP3    H159858   2.892   0.853   1.161  0.5262 -0.2412  1.0518
12789TIP3    H259859   2.942   0.925   1.284  0.3492  1.9720 -0.1508
12790TIP3   OH259860   4.121   6.729  16.546  0.0084 -0.3908 -0.3058
12790TIP3    H159861   4.169   6.712  16.465  1.1338 -0.7528  0.4215
12790TIP3    H259862   4.096   6.821  16.540  2.8597  0.4697  0.3456
12791TIP3   OH259863   1.316   1.392  13.462  0.4871  0.1143  0.1933
12791TIP3    H159864   1.324   1.374  13.369 -1.6752  0.6226 -0.1057
12791TIP3    H259865   1.397   1.357  13.500  0.1862 -2.5035 -1.4858
12792TIP3   OH259866   3.356   2.915   2.875 -0.0471 -0.1297 -0.0400
12792TIP3    H159867   3.323   3.005   2.882 -0.0988 -0.0863 -0.7500
12792TIP3    H259868   3.337   2.876   2.960 -0.9056  0.2395 -0.0498
12793TIP3   OH259869   0.175   3.543  12.946 -0.4245 -0.0601 -0.3113
12793TIP3    H159870   0.086   3.512  12.964  0.8356 -4.0267 -0.3968
12793TIP3    H259871   0.211   3.566  13.032 -0.8699 -0.3325 -0.0562
12794TIP3   OH259872   4.254   3.072  16.507 -0.6867 -0.3603 -0.2311
12794TIP3    H159873   4.322   3.071  16.574 -0.9671 -2.9092  0.0408
12794TIP3    H259874   4.302   3.073  16.424 -0.3489  1.1023 -0.0387
12795TIP3   OH259875   6.760   3.711   1.835 -0.0196 -0.1856  0.2979
12795TIP3    H159876   6.668   3.698   1.811  0.0370  0.3537 -0.2441
12795TIP3    H259877   6.809   3.673   1.762  0.1751 -0.0778  0.3721
12796TIP3   OH259878   0.359   0.379   2.018  0.2399  0.4512 -0.2396
12796TIP3    H159879   0.301   0.328   2.075 -1.1921  2.7930  0.4774
12796TIP3    H259880   0.349   0.339   1.932 -0.2361 -0.9625  0.4553
12797TIP3   OH259881   6.720   3.146  13.459 -0.0214  0.3418 -0.0742
12797TIP3    H159882   6.669   3.107  13.530  1.0606 -0.4088  0.3088
12797TIP3    H259883   6.792   3.190  13.502  1.3170 -1.1255 -0.7453
12798TIP3   OH259884   0.562   4.490  17.099 -0.3853  0.6103  0.1953
12798TIP3    H159885   0.603   4.406  17.117 -1.0630  0.5961  1.7417
12798TIP3    H259886   0.579   4.506  17.006  0.8898 -0.5935  0.2170
12799TIP3   OH259887   0.015   0.840   5.838 -0.2195  0.1289  0.1213
12799TIP3    H159888   0.011   0.761   5.785  0.6299 -0.5444  1.0511
12799TIP3    H259889  -0.004   0.911   5.777 -1.1913 -0.8016 -0.6754
12800TIP3   OH259890   6.550   1.980  17.056 -0.9108 -0.3454 -0.1946
12800TIP3    H159891   6.505   1.929  17.123 -1.0388  1.3422  1.0499
12800TIP3    H259892   6.503   2.063  17.053 -0.0841  0.1016 -1.4445
12801TIP3   OH259893   4.517   5.210  11.018  0.3992 -0.6401 -0.2630
12801TIP3    H159894   4.598   5.159  11.020  0.5264 -0.4173  0.3471
12801TIP3    H259895   4.449   5.147  11.041  0.3478 -0.9021 -1.0839
12802TIP3   OH259896   6.327   0.620  13.241  0.2770  0.0553 -0.2091
12802TIP3    H159897   6.258   0.577  13.292 -1.4895 -0.4640 -2.9385
12802TIP3    H259898   6.398   0.556  13.240 -0.1623 -0.4609  0.4790
12803TIP3   OH259899   2.807   1.795   1.015 -0.0614 -0.3476  0.2395
12803TIP3    H159900   2.824   1.703   1.033 -2.0158 -0.6736  0.4792
12803TIP3    H259901   2.801   1.836   1.101 -3.0947 -0.7426  0.2569
12804TIP3   OH259902   5.525   5.785  12.645  0.4581 -0.4459  0.0634
12804TIP3    H159903   5.514   5.718  12.712  1.2197  0.4358  1.0757
12804TIP3    H259904   5.542   5.736  12.565 -0.2148 -1.5008  0.5531
12805TIP3   OH259905   0.022   0.260   0.659 -0.2185  0.6446  0.0590
12805TIP3    H159906   0.009   0.352   0.635 -0.2113  0.6255 -0.0169
12805TIP3    H259907   0.033   0.214   0.576  0.0152  0.6104  0.1092
12806TIP3   OH259908   4.827   5.735   2.403  0.2914 -0.0301  0.2861
12806TIP3    H159909   4.768   5.747   2.328 -0.0227  3.0475  0.9245
12806TIP3    H259910   4.770   5.743   2.479  0.8121 -1.8997  0.8977
12807TIP3   OH259911   4.482   0.047   1.503  1.0165  0.5570  0.7299
12807TIP3    H159912   4.459  -0.034   1.457 -0.5233  1.1466  0.4495
12807TIP3    H259913   4.421   0.052   1.576  2.1097  0.6899  1.6618
12808TIP3   OH259914   1.983   3.584  13.847  0.6150  0.0374 -0.2344
12808TIP3    H159915   2.042   3.510  13.833  0.5325  0.1434 -1.1548
12808TIP3    H259916   1.964   3.617  13.759 -1.1895 -0.2887  0.0296
12809TIP3   OH259917   2.173   0.431  12.001  0.3060  0.2601  0.7324
12809TIP3    H159918   2.163   0.338  12.018  0.5082  0.2987  1.0631
12809TIP3    H259919   2.180   0.438  11.906 -2.2859  0.1807  0.5035
12810TIP3   OH259920   4.074   1.867  13.899 -0.2173 -0.3425  0.5601
12810TIP3    H159921   4.114   1.886  13.984  1.0736 -2.5541  0.4865
12810TIP3    H259922   4.072   1.951  13.855  2.7853  0.1670  1.2643
12811TIP3   OH259923   2.153   4.499  15.676 -0.1514 -0.2502 -0.1181
12811TIP3    H159924   2.165   4.551  15.597  0.9379  0.4327  0.4719
12811TIP3    H259925   2.060   4.507  15.697 -0.2005  0.5812 -0.6468
12812TIP3   OH259926   1.217   6.437  16.499  0.2408  0.1545  0.4933
12812TIP3    H159927   1.162   6.359  16.508 -0.0351  0.4262  1.2561
12812TIP3    H259928   1.161   6.501  16.455  0.2717  0.1069  0.3864
12813TIP3   OH259929   3.392   5.515   6.211  0.5061  0.2699 -0.0117
12813TIP3    H159930   3.478   5.481   6.236  1.1307  0.0338 -2.3178
12813TIP3    H259931   3.397   5.608   6.231  0.8400  0.0371  1.0352
12814TIP3   OH259932   1.022   1.968   4.391 -0.4228 -0.2476  0.2700
12814TIP3    H159933   1.007   2.052   4.348 -1.3085 -0.0107  1.0229
12814TIP3    H259934   1.006   1.985   4.484  1.6799 -0.7033  0.7417
12815TIP3   OH259935   1.649   1.628   5.351 -0.1716  0.5985 -0.0864
12815TIP3    H159936   1.603   1.592   5.426  0.2419  0.1492 -0.0474
12815TIP3    H259937   1.592   1.699   5.319 -0.7582  0.2174  0.1159
12816TIP3   OH259938   6.416   0.025  17.109  0.0428 -0.2274  0.0910
12816TIP3    H159939   6.411  -0.017  17.023  0.2243  1.1801 -0.6376
12816TIP3    H259940   6.382   0.113  17.094  0.1971  0.0756  1.4438
12817TIP3   OH259941   4.690   3.459   4.000 -0.0386 -0.2992  0.3721
12817TIP3    H159942   4.651   3.510   3.929 -2.2724 -1.3238  0.8250
12817TIP3    H259943   4.643   3.487   4.079  0.6322 -1.0475  1.0506
12818TIP3   OH259944   0.847   3.415   4.497 -0.2040 -0.0864  0.0829
12818TIP3    H159945   0.903   3.430   4.421  0.9906  0.4291  1.0416
12818TIP3    H259946   0.907   3.418   4.572 -1.3693 -0.4987  1.0522
12819TIP3   OH259947   3.927   1.341  13.804  0.4610 -0.2095  0.1325
12819TIP3    H159948   3.861   1.334  13.735  0.8927 -2.0491 -0.1133
12819TIP3    H259949   3.950   1.434  13.805  0.6148 -0.1812 -2.3571
12820TIP3   OH259950   1.452   6.358  11.309 -0.2225 -0.1641 -0.3848
12820TIP3    H159951   1.393   6.410  11.363 -0.0921 -0.9322  0.5090
12820TIP3    H259952   1.414   6.361  11.222 -2.0226 -1.3139  0.3465
12821TIP3   OH259953   0.532   6.191   3.055  0.0752 -0.7837 -0.2493
12821TIP3    H159954   0.551   6.277   3.093 -0.1853 -1.5290  1.6695
12821TIP3    H259955   0.618   6.152   3.039  0.1961 -0.6478  0.0600
12822TIP3   OH259956   5.472   1.933   3.334  0.0477  0.1814  0.4371
12822TIP3    H159957   5.443   1.881   3.409 -0.2515  1.0983  0.9551
12822TIP3    H259958   5.410   1.910   3.264 -0.6110  0.5032  0.9158
12823TIP3   OH259959   3.560   3.262   0.504  0.3270  0.2920  0.2062
12823TIP3    H159960   3.628   3.276   0.439 -0.8720 -0.3687 -1.2068
12823TIP3    H259961   3.488   3.320   0.478 -0.0315  0.2829  1.1376
12824TIP3   OH259962   5.477   3.089  16.455 -0.1759  0.1168  0.2433
12824TIP3    H159963   5.412   3.077  16.524 -0.8071 -1.6824 -0.6453
12824TIP3    H259964   5.462   3.179  16.424 -1.5893  0.0548  0.7162
12825TIP3   OH259965   4.994   6.239  12.363 -0.2416  0.3827 -0.0791
12825TIP3    H159966   5.047   6.318  12.374  1.1936 -0.6898  0.8641
12825TIP3    H259967   5.012   6.187  12.441 -2.2987 -0.2391  0.0062
12826TIP3   OH259968   4.523   6.317  10.589 -0.0077  0.0906 -0.5055
12826TIP3    H159969   4.478   6.376  10.527  0.3079  1.3071  0.4114
12826TIP3    H259970   4.478   6.233  10.578 -3.3049  1.5157  1.1479
12827TIP3   OH259971   0.127   6.606  16.742 -0.0513  0.2048  0.3043
12827TIP3    H159972   0.216   6.592  16.775 -0.6688 -2.0112  1.1055
12827TIP3    H259973   0.072   6.605  16.820 -0.8004  1.6056 -0.1864
12828TIP3   OH259974   0.605   2.334  16.413  0.1379  0.4420  0.6335
12828TIP3    H159975   0.542   2.293  16.355  0.1589 -0.5227  1.2814
12828TIP3    H259976   0.553   2.364  16.488  0.3812  0.0684  0.9502
12829TIP3   OH259977   6.721   0.499   2.029 -0.0204  0.5021  0.3444
12829TIP3    H159978   6.657   0.533   2.091 -0.9998  0.3635 -0.5741
12829TIP3    H259979   6.795   0.559   2.036 -0.3389  0.7944  1.2608
12830TIP3   OH259980   6.806   4.497   0.944  0.0538 -0.1591 -0.2195
12830TIP3    H159981   6.828   4.480   0.852  0.6444  0.8231 -0.2627
12830TIP3    H259982   6.715   4.527   0.941  0.7780  2.0885 -0.7473
12831TIP3   OH259983   3.737   6.496  10.910  0.1511  0.1046 -0.2405
12831TIP3    H159984   3.723   6.503  11.005  0.4449  0.1997 -0.2036
12831TIP3    H259985   3.831   6.481  10.901  0.0782 -0.1989 -0.5012
12832TIP3   OH259986   2.450   0.255   1.535 -0.0812 -0.5520  0.2670
12832TIP3    H159987   2.376   0.293   1.582 -0.9335 -1.2876 -0.4639
12832TIP3    H259988   2.424   0.165   1.517  2.2059 -1.7033  2.5648
12833TIP3   OH259989   1.948   2.910   1.984 -0.0763 -0.0432  0.7572
12833TIP3    H159990   2.041   2.923   1.965  0.1043  3.9539  3.6876
12833TIP3    H259991   1.905   2.915   1.899  1.9956  2.6432 -0.1973
12834TIP3   OH259992   5.672   4.262  15.581 -1.0721  0.5304 -0.2188
12834TIP3    H159993   5.703   4.197  15.644 -0.5962  0.0819 -0.9013
12834TIP3    H259994   5.721   4.341  15.601 -0.7421  0.3181 -0.1823
12835TIP3   OH259995   2.789   0.733   5.159 -0.4491 -0.3561 -0.1869
12835TIP3    H159996   2.701   0.696   5.159 -0.1805 -1.0604 -2.4201
12835TIP3    H259997   2.842   0.669   5.206 -0.9219 -0.4473  0.2257
12836TIP3   OH259998   4.625   4.074  13.318  0.2118  0.5310  0.0061
12836TIP3    H159999   4.613   4.057  13.225 -0.8215  0.8122  0.0787
12836TIP3    H260000   4.637   4.169  13.324 -2.3800  0.8697  0.4003
12837TIP3   OH260001   2.635   1.046   0.426 -0.7258  0.1255  0.4044
12837TIP3    H160002   2.680   1.078   0.504  0.9238  0.9877 -0.8630
12837TIP3    H260003   2.612   1.124   0.377  2.3890 -0.4890 -2.1960
12838TIP3   OH260004   0.183   2.752   2.516  0.1837  0.0636  0.3458
12838TIP3    H160005   0.218   2.670   2.552 -2.5320 -1.2949 -0.0101
12838TIP3    H260006   0.094   2.757   2.549 -0.1902  2.0915 -0.9105
12839TIP3   OH260007   1.618   3.479  15.586 -0.1960 -0.3088  0.7114
12839TIP3    H160008   1.703   3.522  15.578 -1.0318  0.9011 -2.3237
12839TIP3    H260009   1.554   3.550  15.584 -1.4020 -1.3908  0.0322
12840TIP3   OH260010   2.328   1.232   0.548 -0.4327  0.4338  0.0525
12840TIP3    H160011   2.341   1.158   0.608 -0.5940  0.6564  0.3662
12840TIP3    H260012   2.354   1.199   0.463 -0.5699 -0.0092  0.1801
12841TIP3   OH260013   2.393   4.081   1.939  0.0666 -0.0633  0.6583
12841TIP3    H160014   2.370   4.043   2.024  0.8179 -0.9646  0.4640
12841TIP3    H260015   2.319   4.138   1.918 -0.3420 -0.1930  1.6969
12842TIP3   OH260016   3.230   5.069   5.841  0.3029  0.0969  0.6727
12842TIP3    H160017   3.235   4.988   5.893  0.0236 -0.8413 -0.7467
12842TIP3    H260018   3.154   5.057   5.785  0.8212  0.9571 -0.2262
12843TIP3   OH260019   4.215   6.773   6.781 -0.5439 -0.3255 -0.1603
12843TIP3    H160020   4.246   6.708   6.843  1.8289 -0.0795 -1.0389
12843TIP3    H260021   4.180   6.722   6.708  1.4403 -0.6805 -0.9085
12844TIP3   OH260022   1.301   4.062  13.052  0.3111 -0.5898  0.1225
12844TIP3    H160023   1.339   4.026  12.971 -0.4919 -1.8005  0.2718
12844TIP3    H260024   1.208   4.071  13.033  0.6707  2.6536 -0.3408
12845TIP3   OH260025   5.286   5.802  11.991  0.5395 -0.3219 -0.0753
12845TIP3    H160026   5.339   5.761  12.059  1.1792  0.7037  0.0535
12845TIP3    H260027   5.204   5.825  12.036  1.3331  1.2403  0.6164
12846TIP3   OH260028   4.346   0.900  12.044  0.0802 -0.6632 -0.3829
12846TIP3    H160029   4.253   0.880  12.051 -0.0917  0.3323  0.2481
12846TIP3    H260030   4.351   0.968  11.976  0.4416 -1.3825 -1.0776
12847TIP3   OH260031   3.198   1.625   6.270 -0.4922  0.1565  0.0063
12847TIP3    H160032   3.201   1.625   6.366  0.3337  1.6835  0.0012
12847TIP3    H260033   3.105   1.613   6.249 -0.7475  0.3131  1.0037
12848TIP3   OH260034   2.478   1.702   5.488  0.3140  0.1889  0.4125
12848TIP3    H160035   2.460   1.632   5.551 -0.3532  0.7619  0.8674
12848TIP3    H260036   2.391   1.729   5.457  0.6776 -1.1031 -1.8852
12849TIP3   OH260037   1.091   4.369  16.270 -0.0545  0.1272  0.3640
12849TIP3    H160038   0.998   4.386  16.287 -0.2920  1.1191 -1.6946
12849TIP3    H260039   1.091   4.318  16.189  1.2249  1.3366 -0.4272
12850TIP3   OH260040   6.479   5.167  11.100  0.0476 -0.4592 -0.8305
12850TIP3    H160041   6.407   5.230  11.102  0.2718 -0.2099 -0.6586
12850TIP3    H260042   6.472   5.126  11.013 -0.4131 -0.5684 -0.7467
12851TIP3   OH260043   0.831   6.209  14.696  0.0259 -0.2919  0.6771
12851TIP3    H160044   0.824   6.154  14.774 -1.6106  0.0546  0.8005
12851TIP3    H260045   0.820   6.148  14.623  0.9152 -0.5242  0.7380
12852TIP3   OH260046   3.016   6.170  13.683  0.0112 -0.6978 -0.3103
12852TIP3    H160047   3.037   6.154  13.775  0.0277 -2.6404 -0.6243
12852TIP3    H260048   3.102   6.180  13.641 -0.0224  1.0437  0.0183
12853TIP3   OH260049   4.071   6.133  13.720 -0.2615  0.1113 -0.0100
12853TIP3    H160050   4.166   6.128  13.733 -0.2956 -0.7932 -0.0237
12853TIP3    H260051   4.044   6.041  13.710 -0.9480  0.4406 -1.3174
12854TIP3   OH260052   2.742   1.980   2.320 -0.2058 -0.1892  0.1004
12854TIP3    H160053   2.679   2.012   2.384  0.3667 -0.4552  0.8118
12854TIP3    H260054   2.827   2.006   2.356  0.4506 -4.3065  1.7976
12855TIP3   OH260055   3.180   0.730   5.110 -0.2059 -0.1065  0.1050
12855TIP3    H160056   3.211   0.812   5.149  0.3515 -0.7386  1.0120
12855TIP3    H260057   3.178   0.748   5.016  1.5513  0.4132  0.1450
12856TIP3   OH260058   6.667   0.620   4.322  0.9651  0.0711  0.1390
12856TIP3    H160059   6.608   0.556   4.281  0.9584 -0.3929  0.8504
12856TIP3    H260060   6.627   0.705   4.303 -0.7510 -0.3191  1.8437
12857TIP3   OH260061   0.703   2.216   3.330  0.0258  0.3147  0.4605
12857TIP3    H160062   0.737   2.284   3.273  0.3104 -1.2867 -1.3394
12857TIP3    H260063   0.617   2.248   3.357 -0.0573  1.1546 -0.7786
12858TIP3   OH260064   6.725   6.417  16.741 -0.3733 -0.1396 -0.0239
12858TIP3    H160065   6.636   6.452  16.749 -0.6023 -1.0307  1.5808
12858TIP3    H260066   6.774   6.460  16.811 -0.4174 -2.2563  1.3522
12859TIP3   OH260067   1.893   3.534  15.620  0.2770 -0.7789 -0.1590
12859TIP3    H160068   1.975   3.540  15.570 -0.1666 -0.0370 -0.8177
12859TIP3    H260069   1.902   3.600  15.688 -0.9553  1.3593 -2.0071
12860TIP3   OH260070   1.686   3.798  16.726  0.2466 -0.5382  0.3180
12860TIP3    H160071   1.758   3.816  16.787  0.1509 -2.9766  1.2141
12860TIP3    H260072   1.723   3.736  16.663 -0.0245  1.0299 -1.4388
12861TIP3   OH260073   4.265   3.110  16.133 -0.1689  0.1842 -0.1503
12861TIP3    H160074   4.182   3.149  16.105 -0.9957 -1.3482  0.0887
12861TIP3    H260075   4.326   3.131  16.062 -1.2634 -0.3222 -1.2713
12862TIP3   OH260076   6.462   4.556   0.226 -0.0510  0.1203  0.5086
12862TIP3    H160077   6.469   4.586   0.135  1.0524 -0.5000  0.3867
12862TIP3    H260078   6.434   4.634   0.274  1.2806  0.9790 -0.0656
12863TIP3   OH260079   0.777   3.760   0.761  0.3708 -0.1908  0.3501
12863TIP3    H160080   0.872   3.748   0.762  0.5016  0.8056  0.1641
12863TIP3    H260081   0.760   3.815   0.685 -0.5307 -1.6680 -0.5620
12864TIP3   OH260082   0.771   3.479   3.545 -0.0772 -0.5931 -0.3009
12864TIP3    H160083   0.763   3.405   3.606  0.5004  1.2804  2.1222
12864TIP3    H260084   0.855   3.520   3.568 -0.9971  1.5827 -0.7072
12865TIP3   OH260085   3.629   3.812  14.373 -0.1136 -0.1986  0.3708
12865TIP3    H160086   3.539   3.818  14.405  0.0558 -1.0352  1.0176
12865TIP3    H260087   3.623   3.841  14.282 -0.8022  1.0540  0.7998
12866TIP3   OH260088   5.360   5.435   4.560  0.5216  0.0340 -0.0885
12866TIP3    H160089   5.403   5.519   4.572  0.5973  0.1112 -0.8739
12866TIP3    H260090   5.431   5.371   4.561  0.6174  0.1234 -0.9781
12867TIP3   OH260091   5.128   3.183  14.620 -0.7114 -0.4360 -0.0837
12867TIP3    H160092   5.091   3.181  14.708  0.0436  1.2648  0.3090
12867TIP3    H260093   5.074   3.123  14.569 -0.8949 -1.7521  1.6327
12868TIP3   OH260094   3.495   1.899  15.695  0.5973  0.0997 -0.7373
12868TIP3    H160095   3.482   1.990  15.719 -0.6785 -0.0006 -0.9886
12868TIP3    H260096   3.537   1.902  15.609  0.8567  0.4545 -0.5951
12869TIP3   OH260097   3.461   2.511   4.349  0.0427 -0.0311 -0.2020
12869TIP3    H160098   3.531   2.490   4.287 -0.6494 -0.0423 -0.9810
12869TIP3    H260099   3.381   2.487   4.304 -0.3583 -2.0374  1.4964
12870TIP3   OH260100   0.279   5.601  12.304 -0.1214 -0.0573 -0.3145
12870TIP3    H160101   0.261   5.686  12.265  2.0494 -0.1856 -1.6472
12870TIP3    H260102   0.245   5.538  12.240  0.7182 -0.2242 -0.6002
12871TIP3   OH260103   2.617   1.314  15.666  0.3155  0.0613 -0.2495
12871TIP3    H160104   2.655   1.230  15.689 -1.8436 -1.1055 -0.8721
12871TIP3    H260105   2.576   1.300  15.580  1.2665  2.1579 -1.0930
12872TIP3   OH260106   0.419   2.577   0.421 -0.0702 -0.0642 -0.1897
12872TIP3    H160107   0.329   2.549   0.438  0.1384 -0.5496  0.1163
12872TIP3    H260108   0.417   2.611   0.331 -0.4976 -0.3275 -0.2793
12873TIP3   OH260109   3.764   3.323  14.997 -0.2010 -0.3616  0.5762
12873TIP3    H160110   3.714   3.369  15.065 -0.2146 -1.3957  1.2672
12873TIP3    H260111   3.805   3.394  14.947 -0.9258  0.4411  1.0881
12874TIP3   OH260112   5.600   0.082   6.590  0.0556  0.1498 -0.0795
12874TIP3    H160113   5.691   0.084   6.619 -0.7125  0.7226  2.3905
12874TIP3    H260114   5.585   0.169   6.552  0.2132  0.4645  0.5707
12875TIP3   OH260115   1.734   2.895   2.691  0.2227  0.0295 -0.1923
12875TIP3    H160116   1.730   2.953   2.615 -0.4519 -0.7560 -0.7714
12875TIP3    H260117   1.642   2.884   2.717  0.3830 -0.4023  0.1992
12876TIP3   OH260118   6.297   4.991  11.868 -1.2981 -0.8359 -0.5947
12876TIP3    H160119   6.219   4.950  11.832 -3.0735 -0.6807  2.8281
12876TIP3    H260120   6.263   5.062  11.923  1.4263  1.3161 -1.6067
12877TIP3   OH260121   2.486   5.843  14.298 -0.4092 -0.2032  0.2735
12877TIP3    H160122   2.543   5.782  14.251  3.2016  3.1535 -0.0072
12877TIP3    H260123   2.485   5.811  14.388  1.9614 -0.4013  0.2608
12878TIP3   OH260124   4.468   2.279   1.851 -0.0512  0.1721  0.1832
12878TIP3    H160125   4.418   2.197   1.858 -0.1233  0.1075 -1.0015
12878TIP3    H260126   4.515   2.285   1.934 -0.7257 -0.6302  0.6330
12879TIP3   OH260127   4.365   0.857  13.125 -0.0236  0.0820  0.1217
12879TIP3    H160128   4.333   0.795  13.191 -0.8793  0.8888  0.4755
12879TIP3    H260129   4.442   0.815  13.088  0.8565 -0.1164  2.0935
12880TIP3   OH260130   0.278   1.818   0.272  0.9598  0.3568  0.7166
12880TIP3    H160131   0.242   1.738   0.234  1.5259  0.0486  0.8280
12880TIP3    H260132   0.239   1.889   0.220  0.3571  0.0185  0.7051
12881TIP3   OH260133   1.691   6.770   3.358 -0.4659  0.0606  0.1900
12881TIP3    H160134   1.762   6.732   3.409 -1.4188  0.9073  2.2159
12881TIP3    H260135   1.616   6.714   3.376 -0.9188  0.6271  0.0970
12882TIP3   OH260136   5.345   3.601   0.610 -0.1191  0.0752  1.0271
12882TIP3    H160137   5.399   3.585   0.533 -0.4508  0.8701  0.6328
12882TIP3    H260138   5.398   3.660   0.664 -1.4771  2.5718 -0.3329
12883TIP3   OH260139   4.973   0.289   0.434 -0.2012 -0.6408 -0.1014
12883TIP3    H160140   4.989   0.358   0.369 -0.7374  0.0642  0.5138
12883TIP3    H260141   4.945   0.213   0.382 -1.0392  0.0440 -0.6678
12884TIP3   OH260142   2.557   0.154  16.801 -0.3288 -0.3857  0.5255
12884TIP3    H160143   2.579   0.241  16.834 -1.3082  0.3397 -0.6755
12884TIP3    H260144   2.503   0.115  16.869 -4.2360  1.9633 -1.0791
12885TIP3   OH260145   1.915   3.194   5.223  0.6846  0.1195 -0.1770
12885TIP3    H160146   1.900   3.163   5.312 -0.3804  1.4662  0.1146
12885TIP3    H260147   2.002   3.235   5.226  2.4848 -3.4048 -0.7462
12886TIP3   OH260148   1.683   4.621  11.475 -0.2879  0.0357  0.5989
12886TIP3    H160149   1.686   4.671  11.393  1.0035  0.5480  0.9438
12886TIP3    H260150   1.721   4.536  11.452  1.4594  0.6885  0.9940
12887TIP3   OH260151   0.790   4.789   2.988 -0.6266 -0.1332 -0.0207
12887TIP3    H160152   0.846   4.716   2.965  0.6705  0.9851 -0.5064
12887TIP3    H260153   0.707   4.749   3.015 -0.3307 -1.7076 -1.4066
12888TIP3   OH260154   2.135   1.542  13.612  0.1656  0.3851  0.3400
12888TIP3    H160155   2.138   1.450  13.586 -0.3325  0.7462 -1.0356
12888TIP3    H260156   2.214   1.581  13.574 -0.2625  0.7908 -0.1431
12889TIP3   OH260157   4.854   2.267   0.547 -0.2739 -0.2857  0.5826
12889TIP3    H160158   4.908   2.255   0.625 -0.8680  0.4557  1.1093
12889TIP3    H260159   4.776   2.214   0.563 -0.7264  0.4359  0.8216
12890TIP3   OH260160   2.398   2.320  16.571  0.1986 -0.4807 -0.0441
12890TIP3    H160161   2.435   2.285  16.653  0.7980 -2.9338 -1.3133
12890TIP3    H260162   2.465   2.302  16.505 -1.2606 -0.6560 -1.5123
12891TIP3   OH260163   3.768   2.557  11.266  0.2515 -0.4070 -0.1077
12891TIP3    H160164   3.727   2.557  11.352 -1.6558 -1.8913 -0.9729
12891TIP3    H260165   3.853   2.515  11.279  0.1272 -0.2938  1.0910
12892TIP3   OH260166   5.354   2.813  11.182 -0.0348 -0.2557 -0.4056
12892TIP3    H160167   5.317   2.859  11.107  0.5089  0.6485 -0.1220
12892TIP3    H260168   5.443   2.792  11.155  0.6508  1.3705  0.5231
12893TIP3   OH260169   1.660   4.599   1.353 -0.0799 -0.3408  0.1669
12893TIP3    H160170   1.573   4.580   1.390 -0.1748 -2.1686 -0.9420
12893TIP3    H260171   1.659   4.693   1.339 -0.9840  0.0237  2.4127
12894TIP3   OH260172   6.558   3.464   0.695  0.0976 -0.0094  0.5104
12894TIP3    H160173   6.578   3.373   0.715  0.5518  0.0812  0.4658
12894TIP3    H260174   6.579   3.473   0.602  1.7175  0.5918  0.9176
12895TIP3   OH260175   5.221   1.906   3.183 -0.2090  0.0628  0.2631
12895TIP3    H160176   5.156   1.864   3.126  0.4027 -1.5478  0.7357
12895TIP3    H260177   5.248   1.984   3.135 -0.3642 -0.7914 -1.2513
12896TIP3   OH260178   2.859   2.177   5.593 -0.2529 -0.1040  0.0481
12896TIP3    H160179   2.849   2.083   5.603 -4.1344  0.2613  0.1435
12896TIP3    H260180   2.929   2.187   5.529 -0.5413 -3.0632 -0.7717
12897TIP3   OH260181   0.745   5.747  11.712  0.0554 -0.0949  0.5993
12897TIP3    H160182   0.764   5.783  11.799  0.1513 -2.9841  1.8333
12897TIP3    H260183   0.650   5.740  11.709  0.0053  0.7836  0.1434
12898TIP3   OH260184   6.112   5.182  11.988  0.2232 -0.1183 -0.2083
12898TIP3    H160185   6.074   5.161  12.074  0.5427  0.2316  0.0209
12898TIP3    H260186   6.045   5.234  11.944  0.5438  0.7261  0.2991
12899TIP3   OH260187   5.081   0.249  17.289 -0.2339 -0.5302  0.1915
12899TIP3    H160188   5.163   0.260  17.241 -1.3908 -1.2273 -2.0152
12899TIP3    H260189   5.071   0.155  17.299 -2.2033 -0.6199 -2.1950
12900TIP3   OH260190   0.325   4.373  11.600 -0.5105  0.2637 -0.4289
12900TIP3    H160191   0.317   4.295  11.545 -2.6634 -0.2758  0.6239
12900TIP3    H260192   0.279   4.441  11.551  1.4068  0.9356 -1.3694
12901TIP3   OH260193   5.001   5.801  12.074 -0.0807  0.8176  0.2079
12901TIP3    H160194   5.014   5.891  12.044  1.2973  0.2509 -0.9672
12901TIP3    H260195   4.919   5.773  12.033 -0.3138  1.4125  0.2721
12902TIP3   OH260196   4.166   3.707  11.571  0.2575 -0.1383  0.3456
12902TIP3    H160197   4.177   3.729  11.479  0.4743  0.2829  0.4712
12902TIP3    H260198   4.159   3.611  11.572 -3.1228  0.0127 -0.4554
12903TIP3   OH260199   3.954   3.744   3.762  0.2023  0.2361 -0.1773
12903TIP3    H160200   3.988   3.815   3.708 -2.3189  1.2361 -0.5301
12903TIP3    H260201   3.902   3.789   3.830 -0.7121 -1.2120  0.0959
12904TIP3   OH260202   2.514   1.815  14.344 -0.2953 -0.0190 -0.0834
12904TIP3    H160203   2.448   1.753  14.315  0.4902 -0.6229 -0.6154
12904TIP3    H260204   2.491   1.897  14.301 -1.1036 -0.0433  0.3013
12905TIP3   OH260205   2.101   0.653  13.718 -0.1447  0.1499  0.1198
12905TIP3    H160206   2.079   0.613  13.634  0.7391 -0.7634  0.3136
12905TIP3    H260207   2.055   0.598  13.783 -2.7292  2.2164  0.1182
12906TIP3   OH260208   2.174   0.851   5.133  0.0641  0.4488  0.0843
12906TIP3    H160209   2.091   0.817   5.101 -0.1861 -0.0430  1.2545
12906TIP3    H260210   2.240   0.797   5.089 -0.1292  2.2609 -2.5474
12907TIP3   OH260211   5.383   2.873   4.088  0.4067  0.2977  0.0595
12907TIP3    H160212   5.306   2.821   4.109 -0.0240  0.5782 -0.7914
12907TIP3    H260213   5.400   2.925   4.167 -1.3937  1.5975 -0.3733
12908TIP3   OH260214   1.888   5.933  14.203  0.4082 -0.3159  0.3761
12908TIP3    H160215   1.822   5.900  14.143  0.7192 -1.8232  0.8521
12908TIP3    H260216   1.840   5.989  14.264 -0.1723 -0.1412 -0.2443
12909TIP3   OH260217   0.616   3.546  14.343  0.5062 -0.5543  0.2151
12909TIP3    H160218   0.620   3.572  14.251  1.0681  0.6728  0.5825
12909TIP3    H260219   0.571   3.462  14.342 -3.2377  1.3698 -0.8043
12910TIP3   OH260220   2.886   3.201  15.943 -0.0592  0.4778  0.0067
12910TIP3    H160221   2.875   3.113  15.979 -0.3748  0.7893  0.6785
12910TIP3    H260222   2.800   3.241  15.953  0.0252  0.7859 -0.5057
12911TIP3   OH260223   0.213   0.610  12.016  0.0590  0.4932 -0.4890
12911TIP3    H160224   0.182   0.533  12.064  0.1981  0.6520 -0.1399
12911TIP3    H260225   0.193   0.684  12.073 -1.6329  0.8946 -1.5850
12912TIP3   OH260226   1.626   3.536   5.828 -0.5506 -0.8309 -0.0811
12912TIP3    H160227   1.629   3.615   5.882  0.2340 -2.6389  2.6539
12912TIP3    H260228   1.578   3.473   5.882  1.1290 -3.0136 -1.0984
12913TIP3   OH260229   6.219   4.059   2.282  0.5220  0.1837  0.5977
12913TIP3    H160230   6.180   4.071   2.196 -1.6761 -0.8857  1.4067
12913TIP3    H260231   6.144   4.049   2.341  2.0029  0.1821  2.5175
12914TIP3   OH260232   4.555   6.162  14.001 -0.2758 -0.7885 -0.4387
12914TIP3    H160233   4.626   6.181  13.939 -0.9387 -2.3220 -1.7003
12914TIP3    H260234   4.598   6.128  14.079  0.6948  2.5773  0.5933
12915TIP3   OH260235   3.167   6.694   3.597  0.3619 -0.0500  0.5408
12915TIP3    H160236   3.073   6.679   3.606  0.4690 -1.6948 -0.8766
12915TIP3    H260237   3.208   6.612   3.626  1.3643  0.5755  0.9454
12916TIP3   OH260238   6.583   4.788  10.750  0.4688 -0.7955 -0.0619
12916TIP3    H160239   6.508   4.742  10.787  1.1013 -0.8312  1.2005
12916TIP3    H260240   6.644   4.718  10.726  0.9619 -0.6714  0.8248
12917TIP3   OH260241   2.944   0.367   5.410  0.2150  0.4515  0.7490
12917TIP3    H160242   2.972   0.456   5.391  0.8128  0.1898  0.3924
12917TIP3    H260243   2.848   0.373   5.418  0.0611  0.7927 -1.0916
12918TIP3   OH260244   0.361   5.249  13.289  0.4465 -0.3777 -0.4511
12918TIP3    H160245   0.386   5.308  13.217 -0.6052  2.0693  1.1029
12918TIP3    H260246   0.396   5.291  13.367 -0.3103 -1.8603  0.7139
12919TIP3   OH260247   0.534   3.093   4.396  0.0089  0.3723  0.1403
12919TIP3    H160248   0.609   3.070   4.451  0.3828  0.2013 -0.4336
12919TIP3    H260249   0.569   3.157   4.334 -0.7063  1.4993  0.8699
12920TIP3   OH260250   6.807   0.581  12.941 -0.6246 -0.0102  0.4124
12920TIP3    H160251   6.868   0.617  13.005 -1.3817  0.4776  0.8738
12920TIP3    H260252   6.774   0.658  12.894 -1.2619 -0.2124  0.5164
12921TIP3   OH260253   6.600   1.553   4.853 -0.5212  0.2835 -0.1820
12921TIP3    H160254   6.665   1.620   4.875 -0.3708  0.1977 -0.3567
12921TIP3    H260255   6.595   1.556   4.757 -0.5422  0.0719 -0.1878
12922TIP3   OH260256   2.462   4.686   5.512 -0.2558  0.1608  0.3243
12922TIP3    H160257   2.494   4.655   5.427  1.0195 -1.3406  1.3413
12922TIP3    H260258   2.482   4.780   5.512  1.3794 -0.1768 -0.2996
12923TIP3   OH260259   2.367   2.317  13.003 -0.4247 -0.0398 -0.3034
12923TIP3    H160260   2.322   2.367  12.935 -1.1613 -0.8256 -0.4035
12923TIP3    H260261   2.397   2.383  13.066 -3.8607  0.3271  1.0427
12924TIP3   OH260262   5.476   5.529  15.241 -0.2808 -0.2202  0.4981
12924TIP3    H160263   5.417   5.508  15.169  0.3852  1.0782 -0.4404
12924TIP3    H260264   5.506   5.618  15.223  1.6269 -0.6893  1.1877
12925TIP3   OH260265   6.814   4.392  16.286  0.0827  0.1478  0.4588
12925TIP3    H160266   6.768   4.354  16.211  0.5287 -0.5818  0.5435
12925TIP3    H260267   6.867   4.319  16.320  1.6519  1.0892  0.0871
12926TIP3   OH260268   4.104   0.373  15.352 -0.5939  0.1764  0.1196
12926TIP3    H160269   4.059   0.445  15.308 -0.6326  0.0457 -0.0566
12926TIP3    H260270   4.037   0.306  15.363 -0.3346 -0.2001 -0.5667
12927TIP3   OH260271   3.980   4.618  16.114 -0.9419 -0.0423 -0.1301
12927TIP3    H160272   3.980   4.616  16.210  2.8536  0.4517 -0.0576
12927TIP3    H260273   4.010   4.707  16.092 -1.3593 -0.2986 -1.7847
12928TIP3   OH260274   1.777   2.168   2.803  0.0734  0.3057 -0.6518
12928TIP3    H160275   1.778   2.136   2.713  0.0376 -0.1701 -0.4810
12928TIP3    H260276   1.684   2.172   2.827  0.0656  0.7386 -0.7432
12929TIP3   OH260277   1.378   3.096  12.204 -0.7680 -0.0547  0.5322
12929TIP3    H160278   1.344   3.130  12.287  0.1385  1.5031  0.2922
12929TIP3    H260279   1.368   3.001  12.211 -0.7340  0.0521  2.4098
12930TIP3   OH260280   6.611   3.909   0.030 -0.0769 -0.1257  0.0799
12930TIP3    H160281   6.705   3.916   0.016 -0.3125  1.4071 -0.8974
12930TIP3    H260282   6.600   3.915   0.125  0.6686  1.9276  0.0565
12931TIP3   OH260283   3.771   3.547   5.641  0.1501 -0.2919 -0.0841
12931TIP3    H160284   3.773   3.613   5.571  0.3055 -0.7231 -0.4906
12931TIP3    H260285   3.856   3.557   5.685  1.3395 -2.0662 -1.8844
12932TIP3   OH260286   5.586   1.835   0.559 -0.1483 -0.0218  0.0272
12932TIP3    H160287   5.624   1.751   0.535  1.6304  0.8857 -0.4230
12932TIP3    H260288   5.608   1.847   0.651 -0.1515  0.0796  0.0155
12933TIP3   OH260289   4.305   4.023   0.685 -0.5628 -0.0215 -0.4421
12933TIP3    H160290   4.362   3.987   0.753 -0.6354 -1.8926 -1.3416
12933TIP3    H260291   4.363   4.036   0.610 -0.8921  0.1478 -0.6662
12934TIP3   OH260292   1.263   4.422   6.182  0.4702  0.0919  0.0555
12934TIP3    H160293   1.245   4.389   6.270 -1.3479  0.3085 -0.2175
12934TIP3    H260294   1.336   4.483   6.193  0.0964  0.2933  1.4410
12935TIP3   OH260295   3.351   2.036  13.369 -0.0979 -0.3585 -0.2619
12935TIP3    H160296   3.355   1.945  13.398 -1.9484 -0.9378 -1.7712
12935TIP3    H260297   3.258   2.058  13.371  0.1570  0.9309 -1.6227
12936TIP3   OH260298   0.883   1.503   2.043 -0.5715 -0.2202 -0.0577
12936TIP3    H160299   0.825   1.490   1.968  0.3694 -0.9485 -0.6753
12936TIP3    H260300   0.884   1.597   2.057  0.0730  0.0285 -1.6449
12937TIP3   OH260301   6.326   3.597   6.813  0.0324 -0.3731 -0.0125
12937TIP3    H160302   6.274   3.526   6.850  1.2751 -1.7774 -0.8783
12937TIP3    H260303   6.274   3.630   6.740  0.1548 -1.4682 -0.6008
12938TIP3   OH260304   1.003   0.466   0.331 -0.7280 -0.2142 -0.0865
12938TIP3    H160305   1.016   0.508   0.247 -2.6348  0.4547 -0.0764
12938TIP3    H260306   0.908   0.453   0.337 -0.6865  0.2803  2.1965
12939TIP3   OH260307   1.548   3.941  16.363  0.2611 -0.1765  0.4655
12939TIP3    H160308   1.496   3.910  16.437 -3.2708  0.9833 -1.4303
12939TIP3    H260309   1.532   3.877  16.294 -0.1015  1.1591 -0.7136
12940TIP3   OH260310   5.164   6.679   4.021  0.1043  0.4446  0.2981
12940TIP3    H160311   5.072   6.708   4.014 -0.3346 -1.1308 -0.8346
12940TIP3    H260312   5.161   6.586   3.999  1.6960 -0.1229  2.4052
12941TIP3   OH260313   1.935   4.166   3.029 -0.0685 -0.1676 -0.0879
12941TIP3    H160314   1.929   4.220   3.109 -0.7847  0.2016 -0.3853
12941TIP3    H260315   1.983   4.220   2.967 -2.6033  1.0297 -1.0973
12942TIP3   OH260316   2.941   4.192   5.843  0.4752  0.2767 -0.1349
12942TIP3    H160317   2.977   4.173   5.756 -0.9196  1.0140 -0.8974
12942TIP3    H260318   2.880   4.120   5.860  0.3389  0.4221 -0.0093
12943TIP3   OH260319   6.580   5.396  13.979 -0.2617 -0.0377 -0.6659
12943TIP3    H160320   6.596   5.479  13.935  0.7848 -1.4627 -3.0239
12943TIP3    H260321   6.580   5.331  13.909 -2.5948 -1.8606  0.9497
12944TIP3   OH260322   6.166   3.210   2.829  0.0793  0.4642  0.1700
12944TIP3    H160323   6.205   3.253   2.753 -0.9880 -0.0009 -0.6713
12944TIP3    H260324   6.088   3.261   2.849 -0.1981 -0.0049  0.3097
12945TIP3   OH260325   5.604   2.337  14.385 -0.2250  1.0723 -0.2099
12945TIP3    H160326   5.606   2.376  14.298  1.4767 -1.0446 -1.1496
12945TIP3    H260327   5.538   2.267  14.379  0.9071 -0.0060 -0.2178
12946TIP3   OH260328   3.411   2.442  16.488  0.4818 -0.5081  0.4506
12946TIP3    H160329   3.504   2.460  16.472  0.4625  0.7622  1.6545
12946TIP3    H260330   3.401   2.450  16.583 -1.1289  0.7908  0.2038
12947TIP3   OH260331   0.763   2.691   4.064 -0.3712 -0.0157  0.2627
12947TIP3    H160332   0.798   2.729   3.984  1.8320  0.8311  1.5719
12947TIP3    H260333   0.754   2.598   4.045  0.3996  0.1321 -0.8813
12948TIP3   OH260334   4.862   5.063  14.644  0.0091  0.4367 -0.9223
12948TIP3    H160335   4.925   5.132  14.665  1.6720 -1.6223  1.0736
12948TIP3    H260336   4.790   5.076  14.706  0.4433  0.1973 -0.3735
12949TIP3   OH260337   5.707   1.574   4.348  0.3328  0.2377  0.2357
12949TIP3    H160338   5.741   1.487   4.332 -1.6501 -0.5759  0.2597
12949TIP3    H260339   5.765   1.612   4.414  0.8091 -1.3167  0.7220
12950TIP3   OH260340   0.715   1.623   3.080 -0.4238 -0.0142  0.5180
12950TIP3    H160341   0.806   1.653   3.087 -0.8026  1.1449  0.6848
12950TIP3    H260342   0.715   1.536   3.119  1.4996 -1.9161 -3.4447
12951TIP3   OH260343   5.830   2.173   5.967 -0.3623  0.1181  0.5007
12951TIP3    H160344   5.812   2.191   6.060 -1.6283  0.1880  0.2490
12951TIP3    H260345   5.781   2.241   5.920 -0.3869 -0.4151 -0.2455
12952TIP3   OH260346   6.440   4.296   0.034  0.0239  0.3209  0.0029
12952TIP3    H160347   6.437   4.272  -0.059  0.2755  0.1548  0.0352
12952TIP3    H260348   6.351   4.325   0.054 -0.2882 -0.5620 -0.0539
12953TIP3   OH260349   4.991   6.657   0.540  0.3660  0.0254  0.6671
12953TIP3    H160350   5.014   6.570   0.505  0.8046  0.6532 -0.6344
12953TIP3    H260351   4.929   6.638   0.611 -0.2877 -1.2990 -0.2239
12954TIP3   OH260352   1.545   0.421   2.317 -0.1675 -0.2615  0.2914
12954TIP3    H160353   1.555   0.332   2.283 -1.8616  0.0883 -1.2048
12954TIP3    H260354   1.457   0.424   2.354 -0.7204  1.2190 -1.0575
12955TIP3   OH260355   1.662   2.209  13.281  0.5323 -0.1687 -0.5167
12955TIP3    H160356   1.687   2.127  13.238  1.4039 -0.5288  0.6841
12955TIP3    H260357   1.630   2.264  13.209  1.0483 -1.1243 -1.4933
12956TIP3   OH260358   2.012   2.162   4.080  0.0607 -0.2779  0.8511
12956TIP3    H160359   2.055   2.116   4.008  0.1421  0.8740  0.1436
12956TIP3    H260360   2.073   2.231   4.105  0.0676 -0.7225  2.0870
12957TIP3   OH260361   3.142   1.583  15.471  0.3531  0.9182  0.9557
12957TIP3    H160362   3.120   1.534  15.392 -2.1391  0.9669  1.6035
12957TIP3    H260363   3.225   1.626  15.450  0.6345 -0.5084 -0.9691
12958TIP3   OH260364   3.623   4.375  16.048  0.0668  0.2374 -0.0565
12958TIP3    H160365   3.608   4.468  16.062 -0.3518  0.2537 -0.6235
12958TIP3    H260366   3.652   4.368  15.958  1.7436 -0.0031  0.4876
12959TIP3   OH260367   4.855   0.484   5.966 -0.5246 -0.9042 -0.1849
12959TIP3    H160368   4.821   0.485   5.876  1.1300 -0.8900 -0.8100
12959TIP3    H260369   4.910   0.407   5.971 -0.5790 -0.8877  0.8230
12960TIP3   OH260370   2.186   2.277   1.826 -0.7306  0.2574  0.7259
12960TIP3    H160371   2.274   2.242   1.817 -0.7213  0.6036 -0.6355
12960TIP3    H260372   2.145   2.224   1.894 -0.5824 -2.1022 -0.9931
12961TIP3   OH260373   5.839   3.989  15.042  0.1166  0.1304 -0.2847
12961TIP3    H160374   5.764   4.047  15.056  0.8238  0.7000  1.2865
12961TIP3    H260375   5.895   4.004  15.118  1.8163 -0.3086 -1.4203
12962TIP3   OH260376   4.248   4.711   1.234  0.1617  0.1198 -0.0595
12962TIP3    H160377   4.320   4.655   1.204 -0.0252  0.0272 -0.3361
12962TIP3    H260378   4.266   4.796   1.194  0.6116  0.3406  0.6059
12963TIP3   OH260379   5.186   1.680  13.261 -0.0821  0.0725 -0.4275
12963TIP3    H160380   5.146   1.594  13.248 -1.3960  0.8311 -1.5332
12963TIP3    H260381   5.112   1.738  13.276  0.7942  1.0483  0.1413
12964TIP3   OH260382   2.211   3.780  14.268  1.1305  0.0269  0.2084
12964TIP3    H160383   2.206   3.762  14.174 -0.2265 -2.9937  0.8059
12964TIP3    H260384   2.256   3.704  14.305  0.8186  0.7482  2.1036
12965TIP3   OH260385   0.561   6.798   5.332 -0.5689  0.6449  0.8302
12965TIP3    H160386   0.468   6.800   5.353 -0.8065 -0.7454 -0.0151
12965TIP3    H260387   0.571   6.863   5.262 -1.3352 -0.7518 -0.6240
12966TIP3   OH260388   5.735   1.730   4.835 -0.4198 -0.3640 -0.6354
12966TIP3    H160389   5.676   1.699   4.766 -0.2157 -0.3321 -0.8216
12966TIP3    H260390   5.752   1.653   4.888 -0.4245 -0.4297 -0.7294
12967TIP3   OH260391   5.071   3.426  10.850  0.0369  0.1379  0.1832
12967TIP3    H160392   5.094   3.335  10.869 -0.3242  0.0796  0.3363
12967TIP3    H260393   5.155   3.469  10.835  0.1304 -0.4687 -1.0317
12968TIP3   OH260394   1.310   5.668  11.897  0.0756 -0.3041 -0.1606
12968TIP3    H160395   1.362   5.710  11.966 -1.0164  0.7326  0.0572
12968TIP3    H260396   1.237   5.627  11.944 -0.4041 -0.0125 -0.6421
12969TIP3   OH260397   6.347   0.292  17.033 -0.2167 -0.2497 -0.2950
12969TIP3    H160398   6.264   0.314  16.992  0.3742  1.1337 -0.7772
12969TIP3    H260399   6.410   0.352  16.993  0.6607  0.0239  1.4632
12970TIP3   OH260400   1.394   6.737  14.876  0.9512  0.7620  0.2561
12970TIP3    H160401   1.310   6.777  14.899  1.1819  0.6582  1.3176
12970TIP3    H260402   1.457   6.809  14.880  1.2104  0.4956  1.2625
12971TIP3   OH260403   0.081   0.180  15.009 -0.3647 -0.1340  0.6761
12971TIP3    H160404   0.079   0.188  15.105 -1.4616  2.4682  0.5023
12971TIP3    H260405  -0.004   0.215  14.981 -0.1190 -1.0307 -1.2527
12972TIP3   OH260406   5.573   4.417   3.577  0.9845 -0.0313  0.8537
12972TIP3    H160407   5.638   4.422   3.506 -0.4291 -0.8770 -0.5447
12972TIP3    H260408   5.542   4.327   3.574 -2.5105  1.1499 -0.6002
12973TIP3   OH260409   3.152   3.612  16.878 -0.4837  0.4974 -0.1053
12973TIP3    H160410   3.075   3.648  16.836 -0.5239  2.4467  1.5834
12973TIP3    H260411   3.151   3.648  16.967  0.5523 -2.0942  1.0330
12974TIP3   OH260412   3.202   6.568  15.202  0.2175 -0.0096  0.0537
12974TIP3    H160413   3.143   6.581  15.127 -0.3822 -1.6743  0.2102
12974TIP3    H260414   3.280   6.527  15.164  1.1906  1.9603 -0.1096
12975TIP3   OH260415   4.919   2.428  12.165  0.0878  0.7403  0.2699
12975TIP3    H160416   4.834   2.389  12.145 -0.2528  1.3541  0.4838
12975TIP3    H260417   4.899   2.496  12.229  1.1219 -1.0092  2.5104
12976TIP3   OH260418   1.475   4.873  12.788  0.1972 -0.3831 -0.2176
12976TIP3    H160419   1.463   4.968  12.793 -2.6446 -0.7375  0.2737
12976TIP3    H260420   1.480   4.855  12.694 -0.9941  0.0684 -0.3773
12977TIP3   OH260421   0.438   0.491  12.556  0.2541  0.4584 -0.4511
12977TIP3    H160422   0.356   0.465  12.598  0.0773 -1.4825 -1.9289
12977TIP3    H260423   0.423   0.477  12.463  2.7123 -1.3158 -0.6331
12978TIP3   OH260424   6.073   6.774  13.011 -0.1652  0.5174  0.4631
12978TIP3    H160425   6.090   6.717  12.936 -0.3132  0.9421  0.1052
12978TIP3    H260426   6.027   6.718  13.074 -0.0006  0.1490  0.2589
12979TIP3   OH260427   5.318   4.081   1.432  0.2847 -0.4660  0.1961
12979TIP3    H160428   5.238   4.124   1.403 -0.2125 -1.9802 -0.7498
12979TIP3    H260429   5.289   4.016   1.496  0.9370  0.0563  1.0280
12980TIP3   OH260430   4.205   1.836  15.092 -0.7150  0.0786 -0.1015
12980TIP3    H160431   4.217   1.925  15.123  1.4048  0.7351 -2.6317
12980TIP3    H260432   4.135   1.842  15.028  0.4041  0.2261 -1.3363
12981TIP3   OH260433   4.788   5.452  13.893 -0.2367  0.0465 -0.0342
12981TIP3    H160434   4.776   5.521  13.958 -1.1232  2.8223 -3.0304
12981TIP3    H260435   4.701   5.416  13.879 -0.2471  0.2917 -0.5929
12982TIP3   OH260436   5.414   1.302  15.868  0.0692 -0.0130 -0.2594
12982TIP3    H160437   5.433   1.247  15.945  0.0505 -0.5772 -0.6525
12982TIP3    H260438   5.370   1.242  15.807  1.7629 -0.0619 -1.4699
12983TIP3   OH260439   4.074   2.449   3.788  0.1301 -0.1930  0.3714
12983TIP3    H160440   4.051   2.397   3.865 -1.7380 -0.5190 -0.3640
12983TIP3    H260441   4.169   2.452   3.788  0.3023 -3.6599  0.4332
12984TIP3   OH260442   0.451   4.635   0.892  0.3899 -0.3226  0.2106
12984TIP3    H160443   0.531   4.620   0.941  0.1725  0.1254  0.7076
12984TIP3    H260444   0.381   4.602   0.948  0.0238  1.3320  0.7617
12985TIP3   OH260445   5.913   5.305   0.340 -0.3925 -0.0974  0.2729
12985TIP3    H160446   5.876   5.381   0.296  0.7613  0.0454 -0.4772
12985TIP3    H260447   5.863   5.296   0.421 -1.7291  0.3780 -0.4966
12986TIP3   OH260448   1.490   2.367   2.046  0.1292  0.0946 -0.1450
12986TIP3    H160449   1.455   2.420   1.974  0.8677  1.2604  0.3389
12986TIP3    H260450   1.572   2.331   2.012  1.2975  1.9300  0.6068
12987TIP3   OH260451   0.943   1.864  15.899 -0.6201  0.0821 -1.0293
12987TIP3    H160452   0.926   1.849  15.806  2.0943  0.8822 -1.6764
12987TIP3    H260453   0.856   1.885  15.936 -1.4747  1.5076 -3.7063
12988TIP3   OH260454   4.436   5.509   0.253  0.2918  0.1841  0.8518
12988TIP3    H160455   4.510   5.461   0.289  0.2789  0.3848  1.1441
12988TIP3    H260456   4.373   5.513   0.325 -0.2658 -0.5308  0.4196
12989TIP3   OH260457   4.506   2.985   5.732 -0.4861 -0.1307 -0.1717
12989TIP3    H160458   4.500   3.071   5.689 -1.3905  0.0195  0.2315
12989TIP3    H260459   4.597   2.978   5.759 -0.2700  0.4544 -0.7201
12990TIP3   OH260460   2.552   3.867  13.812 -0.0930  0.2011  0.0938
12990TIP3    H160461   2.603   3.945  13.791  0.4739 -0.5684 -1.4458
12990TIP3    H260462   2.610   3.815  13.868  0.9387 -0.8052 -1.8867
12991TIP3   OH260463   4.915   4.794   4.293 -0.1969  0.4708 -0.4883
12991TIP3    H160464   4.923   4.701   4.274  3.3021  1.1515 -3.0685
12991TIP3    H260465   4.844   4.825   4.237 -1.4110 -0.6457  0.4328
12992TIP3   OH260466   3.758   4.699  12.278  0.3710 -0.4768  0.0043
12992TIP3    H160467   3.749   4.628  12.214  1.0294 -0.8967  0.3797
12992TIP3    H260468   3.668   4.728  12.294  0.0112 -1.8106  0.4917
12993TIP3   OH260469   4.809   6.683  15.505  0.5548  0.0122 -0.7799
12993TIP3    H160470   4.878   6.735  15.464  1.4778 -0.3610  0.2847
12993TIP3    H260471   4.748   6.748  15.540  0.1020  0.3396 -2.1461
12994TIP3   OH260472   1.262   1.210  11.436  0.4399 -0.5447  0.2122
12994TIP3    H160473   1.347   1.211  11.393  0.0084 -0.1175 -0.6338
12994TIP3    H260474   1.230   1.300  11.429 -0.3255 -0.8280  0.0456
12995TIP3   OH260475   0.076   3.788   2.349 -0.6290  0.1401 -0.3445
12995TIP3    H160476   0.157   3.745   2.379 -0.3707 -0.2117 -1.5119
12995TIP3    H260477   0.086   3.879   2.375  0.1224  0.0846 -0.4223
12996TIP3   OH260478   2.136   4.183   1.665  0.2769  0.2976 -0.4404
12996TIP3    H160479   2.090   4.258   1.628 -1.6528 -1.5280 -1.8698
12996TIP3    H260480   2.128   4.194   1.760  0.8445  2.3527 -0.6052
12997TIP3   OH260481   0.224   1.989   4.551  0.6310  0.3352 -0.6206
12997TIP3    H160482   0.268   1.999   4.636  0.1898  1.7294 -0.5448
12997TIP3    H260483   0.275   2.043   4.491  1.1720 -0.9526 -1.3550
12998TIP3   OH260484   0.798   5.377   3.349  0.1194  0.3500 -0.5683
12998TIP3    H160485   0.789   5.334   3.434 -0.4617  0.1865 -0.7116
12998TIP3    H260486   0.839   5.311   3.293  0.1296  0.3173 -0.5224
12999TIP3   OH260487   4.534   2.108   4.245 -0.0046  0.0264 -0.1991
12999TIP3    H160488   4.603   2.152   4.296  0.1941 -2.0604  1.3877
12999TIP3    H260489   4.504   2.037   4.302 -1.8559 -0.5240 -1.8290
13000TIP3   OH260490   0.091   4.934   6.296  0.1583 -0.3077 -0.4911
13000TIP3    H160491   0.096   4.901   6.206 -2.2646  0.1076 -0.8176
13000TIP3    H260492   0.159   5.001   6.301  0.4633 -0.4803 -1.9505
13001TIP3   OH260493   0.920   1.619  15.799  0.4055 -0.0295  0.2448
13001TIP3    H160494   0.852   1.554  15.819 -0.9791  1.1767 -0.4804
13001TIP3    H260495   0.964   1.634  15.883 -0.3615 -0.6567  0.7607
13002TIP3   OH260496   4.998   2.170  16.808  0.1935  0.3496 -0.1922
13002TIP3    H160497   4.922   2.207  16.852  0.1579 -0.8699  0.8091
13002TIP3    H260498   4.969   2.156  16.718 -0.6065  0.3476  0.0613
13003TIP3   OH260499   5.543   2.806   5.057  0.3209  0.2176 -0.7823
13003TIP3    H160500   5.528   2.809   5.152 -1.6852  0.6354 -1.0994
13003TIP3    H260501   5.638   2.811   5.048  0.5660 -0.3921  1.2272
13004TIP3   OH260502   6.265   1.383   2.916 -0.0031  0.0013  0.4545
13004TIP3    H160503   6.245   1.427   2.998  3.1041  1.5889  0.4087
13004TIP3    H260504   6.347   1.337   2.932  0.4777  0.0788 -1.6200
13005TIP3   OH260505   3.808   1.665   2.078  0.7887  0.3094 -0.5385
13005TIP3    H160506   3.847   1.746   2.111  0.4300  1.2704 -2.3734
13005TIP3    H260507   3.714   1.682   2.075  0.2692 -1.5182  2.5538
13006TIP3   OH260508   6.492   5.824  15.745 -0.1402  0.0705 -0.0288
13006TIP3    H160509   6.522   5.744  15.790 -0.9390 -0.0495  0.2966
13006TIP3    H260510   6.558   5.840  15.678 -0.4422 -1.3835 -0.6861
13007TIP3   OH260511   5.937   4.569   3.780  0.7727  0.6110  0.6822
13007TIP3    H160512   5.923   4.539   3.690  0.5069 -1.6226  1.4282
13007TIP3    H260513   5.852   4.604   3.807  0.9237  1.5346 -0.0089
13008TIP3   OH260514   4.067   5.542   1.932  0.3188 -0.0357  0.2817
13008TIP3    H160515   4.092   5.505   2.017  1.2555  1.3711  0.6319
13008TIP3    H260516   3.976   5.569   1.944 -0.2041 -1.7179  0.1867
13009TIP3   OH260517   0.207   0.027   3.415 -0.1572 -0.4985  0.0719
13009TIP3    H160518   0.243   0.012   3.502  0.3233  0.0406 -0.0345
13009TIP3    H260519   0.126  -0.024   3.414  0.9938 -2.4085  0.0193
13010TIP3   OH260520   1.685   6.256   0.017  0.4484 -0.1933  0.9601
13010TIP3    H160521   1.631   6.333  -0.001  0.6157 -0.6653 -1.6784
13010TIP3    H260522   1.773   6.290   0.026  0.6234 -0.1180 -0.8548
13011TIP3   OH260523   6.223   2.593   4.241  0.2149  0.5462 -0.0596
13011TIP3    H160524   6.173   2.634   4.312  0.1585 -0.0290  0.2403
13011TIP3    H260525   6.283   2.661   4.212 -0.2625  1.0234  0.0462
13012TIP3   OH260526   4.239   5.227   0.854  0.5461  0.6546 -0.1270
13012TIP3    H160527   4.306   5.296   0.850  0.2308  1.1656  2.6620
13012TIP3    H260528   4.257   5.181   0.936 -2.6704  0.9812  0.8267
13013TIP3   OH260529   2.171   5.112   4.733  0.1112  0.3263  0.1009
13013TIP3    H160530   2.121   5.048   4.682  1.0184  0.2216 -0.6606
13013TIP3    H260531   2.183   5.186   4.674 -0.1333  0.8360  0.6741
13014TIP3   OH260532   2.243   4.974   5.399  0.2022 -0.7817  0.3606
13014TIP3    H160533   2.330   4.992   5.434 -0.0390  0.5860  0.2831
13014TIP3    H260534   2.184   4.991   5.472 -0.0745 -0.8302  0.1490
13015TIP3   OH260535   5.378   2.803   1.224  0.3723 -0.1367 -0.5036
13015TIP3    H160536   5.437   2.736   1.261  0.7034  0.4656  0.0755
13015TIP3    H260537   5.353   2.769   1.138  1.3506 -0.5298 -0.6361
13016TIP3   OH260538   2.452   5.173  11.096 -0.2973  0.4048 -0.6182
13016TIP3    H160539   2.408   5.243  11.048  0.3929  0.6096 -0.9505
13016TIP3    H260540   2.398   5.095  11.079 -0.8869  0.7835 -0.5040
13017TIP3   OH260541   5.796   0.074  11.582  0.1799  0.4502  0.1049
13017TIP3    H160542   5.803  -0.020  11.602  0.7328  0.8721  1.9732
13017TIP3    H260543   5.704   0.095  11.597  0.2339  0.3958  0.5027
13018TIP3   OH260544   5.476   5.602   4.808  0.0738 -0.3831  0.0524
13018TIP3    H160545   5.548   5.628   4.865 -0.0987 -0.8056  0.4729
13018TIP3    H260546   5.504   5.627   4.720  0.4841 -0.0243  0.2805
13019TIP3   OH260547   2.334   6.426  12.700 -0.0866 -0.4132  1.0059
13019TIP3    H160548   2.383   6.506  12.718  1.1262 -0.9504  0.1719
13019TIP3    H260549   2.249   6.457  12.668  0.4401  0.5316  0.5006
13020TIP3   OH260550   4.663   2.351   0.315  0.3202 -0.3584  0.2027
13020TIP3    H160551   4.720   2.299   0.371 -0.0411 -2.9192 -1.7480
13020TIP3    H260552   4.620   2.288   0.258  0.4923  2.1467 -2.8157
13021TIP3   OH260553   6.257   0.318  13.347  0.3676  0.6916  0.0039
13021TIP3    H160554   6.347   0.289  13.359 -0.4121 -1.6640  0.3618
13021TIP3    H260555   6.232   0.284  13.261 -1.3338 -1.8131  1.4461
13022TIP3   OH260556   0.118   1.667  12.412  0.2859 -0.6199  0.2414
13022TIP3    H160557   0.178   1.606  12.370  2.0804  0.5383  1.0452
13022TIP3    H260558   0.044   1.614  12.439  0.6023 -1.9481 -1.4393
13023TIP3   OH260559   5.647   6.678  12.499  0.2331  0.4582 -0.0290
13023TIP3    H160560   5.729   6.686  12.450  0.3228  2.3392  0.4200
13023TIP3    H260561   5.661   6.603  12.557  1.2624  0.1406 -0.6793
13024TIP3   OH260562   2.469   0.568  16.611 -0.2539  0.1518  0.2204
13024TIP3    H160563   2.544   0.572  16.670  1.2158  2.4785 -1.6827
13024TIP3    H260564   2.508   0.568  16.523 -2.4246 -1.4317 -0.7841
13025TIP3   OH260565   4.840   6.173  14.683  0.4264  0.5790  0.2181
13025TIP3    H160566   4.816   6.106  14.747 -0.7036  0.1668 -0.6288
13025TIP3    H260567   4.757   6.201  14.644  0.9940  1.6669 -0.2400
13026TIP3   OH260568   3.908   6.127   4.513 -0.5167 -0.0537 -0.2954
13026TIP3    H160569   3.948   6.078   4.585 -0.8325  2.0631  1.3628
13026TIP3    H260570   3.983   6.154   4.459 -0.0378  0.4009  0.5742
13027TIP3   OH260571   1.461   0.042   3.877  0.3731 -0.0461  0.4166
13027TIP3    H160572   1.492  -0.036   3.923 -2.1181 -0.2616  1.8184
13027TIP3    H260573   1.530   0.061   3.814  1.2843 -3.0679  0.3969
13028TIP3   OH260574   5.463   4.686   5.306  0.6262 -0.3595 -0.2021
13028TIP3    H160575   5.517   4.696   5.384 -0.2431 -0.5370  0.4290
13028TIP3    H260576   5.477   4.766   5.256  1.1684 -0.2410  0.1389
13029TIP3   OH260577   3.185   5.251   0.122  0.2479  0.3811 -0.4028
13029TIP3    H160578   3.109   5.237   0.066  0.0158  0.5621 -0.1296
13029TIP3    H260579   3.154   5.308   0.192  0.8453  1.1677 -0.7602
13030TIP3   OH260580   2.653   1.667  16.443  0.1832  0.3686 -0.0232
13030TIP3    H160581   2.716   1.669  16.371  0.4863 -0.3000  0.2176
13030TIP3    H260582   2.702   1.630  16.516 -0.0161  1.3773  0.6325
13031TIP3   OH260583   2.282   4.295   3.994 -0.3068 -1.0227  0.2179
13031TIP3    H160584   2.240   4.217   4.029 -0.6420 -1.6340 -1.5025
13031TIP3    H260585   2.210   4.347   3.959 -0.0041 -0.2900  0.6676
13032TIP3   OH260586   1.889   4.587   0.648  0.3339 -0.0473 -0.0826
13032TIP3    H160587   1.903   4.652   0.579 -0.5143  0.7281  0.4596
13032TIP3    H260588   1.794   4.583   0.658  0.4133 -0.8566  0.3856
13033TIP3   OH260589   4.373   6.503  16.938 -0.0726 -0.7075 -0.0726
13033TIP3    H160590   4.422   6.552  16.872 -0.5094 -3.5445 -2.6541
13033TIP3    H260591   4.291   6.479  16.894 -1.0420 -1.3941  2.0421
13034TIP3   OH260592   5.824   4.431  14.648 -0.1223 -0.0347  0.0925
13034TIP3    H160593   5.850   4.523  14.659  2.4321 -0.8651  1.1574
13034TIP3    H260594   5.809   4.400  14.737  0.0769 -0.9654 -0.1980
13035TIP3   OH260595   3.103   5.749  17.093  0.2942  0.1743  0.7299
13035TIP3    H160596   3.050   5.713  17.022  1.2579 -1.2302  0.7029
13035TIP3    H260597   3.150   5.674  17.129  0.3590  0.9817  2.3934
13036TIP3   OH260598   4.327   3.037  11.730  0.3445  0.1768  0.1540
13036TIP3    H160599   4.333   2.942  11.721  0.4047  0.1821  0.1431
13036TIP3    H260600   4.234   3.056  11.715  0.2901  0.0947  0.3875
13037TIP3   OH260601   5.242   6.372   3.333  0.1761 -0.2375 -0.1383
13037TIP3    H160602   5.234   6.447   3.274 -0.4083  0.3012  0.6128
13037TIP3    H260603   5.245   6.296   3.275 -1.8056  0.1780 -0.8173
13038TIP3   OH260604   5.097   5.492   4.488 -0.0905 -0.1819  0.0965
13038TIP3    H160605   5.068   5.442   4.565  2.0517 -1.0666  0.3530
13038TIP3    H260606   5.192   5.486   4.490  0.0506  1.1634 -1.7350
13039TIP3   OH260607   1.607   2.961   6.104 -0.1206 -0.1062  0.0080
13039TIP3    H160608   1.557   3.034   6.068  2.0797  1.4610  0.0421
13039TIP3    H260609   1.571   2.949   6.192 -0.7421  0.7139 -0.1264
13040TIP3   OH260610   3.215   1.288   0.309  0.8193  1.1291  0.4508
13040TIP3    H160611   3.128   1.306   0.345 -0.3368  0.8145 -2.1181
13040TIP3    H260612   3.269   1.269   0.386 -1.6015  0.3599  2.0058
13041TIP3   OH260613   6.733   2.878  12.527  0.2939 -0.7412 -0.8026
13041TIP3    H160614   6.715   2.808  12.464 -0.4332 -1.4788  0.2083
13041TIP3    H260615   6.778   2.945  12.476  1.2789 -2.0771 -1.7206
13042TIP3   OH260616   1.070   6.630   1.437 -0.0783  0.1479  0.2669
13042TIP3    H160617   1.160   6.599   1.431 -0.2363 -0.9081  2.5601
13042TIP3    H260618   1.032   6.611   1.351  0.7360 -3.2369  0.5698
13043TIP3   OH260619   6.387   4.388   2.736 -0.3503 -0.0510 -0.4297
13043TIP3    H160620   6.390   4.296   2.762 -1.5786 -0.2628 -0.9863
13043TIP3    H260621   6.359   4.434   2.815 -1.3385 -0.3534 -0.6018
13044TIP3   OH260622   1.297   3.130  13.055 -0.0687  0.0010  0.3135
13044TIP3    H160623   1.261   3.217  13.038  3.9214  1.1036 -3.3298
13044TIP3    H260624   1.384   3.147  13.092  0.4460 -2.4209  0.2841
13045TIP3   OH260625   4.314   3.208  17.067  0.3913 -0.3741 -0.2685
13045TIP3    H160626   4.391   3.232  17.119 -0.3262  0.8761  0.2538
13045TIP3    H260627   4.277   3.292  17.039 -1.6188 -0.8851  0.7487
13046TIP3   OH260628   1.307   2.605  15.502  0.3102  0.2200  0.4079
13046TIP3    H160629   1.278   2.614  15.411 -1.2421 -1.6889  0.6655
13046TIP3    H260630   1.377   2.540  15.499 -0.1983 -0.3495  0.6350
13047TIP3   OH260631   5.744   3.822   3.750 -0.4007 -0.1220 -0.2229
13047TIP3    H160632   5.748   3.856   3.840 -1.1049  1.0559 -0.6242
13047TIP3    H260633   5.651   3.805   3.735 -0.0201 -2.8175  0.1535
13048TIP3   OH260634   0.671   4.778   1.565  0.1750 -0.1930 -0.0516
13048TIP3    H160635   0.600   4.843   1.562 -1.2260 -1.7051 -0.7905
13048TIP3    H260636   0.749   4.829   1.586 -0.9436  1.6854 -0.2790
13049TIP3   OH260637   3.650   4.305   6.642 -0.3637  0.4630 -0.1286
13049TIP3    H160638   3.556   4.304   6.660 -0.3674  1.2850 -0.0809
13049TIP3    H260639   3.681   4.388   6.678  0.4092  0.1312 -0.0083
13050TIP3   OH260640   6.434   4.715  13.406  0.3530  0.3192  0.3416
13050TIP3    H160641   6.484   4.723  13.487  0.7824  0.5487  0.0552
13050TIP3    H260642   6.461   4.791  13.354  0.2885  0.0187 -0.1316
13051TIP3   OH260643   4.099   6.456  13.314  0.3087 -0.5354 -0.4642
13051TIP3    H160644   4.131   6.535  13.270  1.8822 -2.3927 -2.7861
13051TIP3    H260645   4.022   6.430  13.264  0.8011 -1.4118 -0.7860
13052TIP3   OH260646   2.098   3.785  10.867 -0.2619  0.2551  0.2511
13052TIP3    H160647   2.182   3.810  10.826 -0.2046  0.6368  0.5999
13052TIP3    H260648   2.101   3.826  10.954 -0.7006  0.0515  0.3596
13053TIP3   OH260649   4.183   1.389   4.589  0.2458 -0.1811  0.3559
13053TIP3    H160650   4.215   1.476   4.611 -0.3185 -0.0017  0.4668
13053TIP3    H260651   4.226   1.331   4.653 -2.1870  0.4627  2.6898
13054TIP3   OH260652   3.993   1.851  16.994  0.0220 -0.3542  0.6287
13054TIP3    H160653   4.052   1.780  16.968 -1.0035 -0.5530 -1.2340
13054TIP3    H260654   4.029   1.929  16.950 -1.2837 -0.5422 -0.8003
13055TIP3   OH260655   3.655   5.256  13.246 -0.3476  0.0882 -0.5865
13055TIP3    H160656   3.696   5.203  13.315  2.0212  3.1189  0.4768
13055TIP3    H260657   3.729   5.287  13.193 -1.3996  4.0246  0.1231
13056TIP3   OH260658   1.587   2.081   3.613 -0.1391  0.2791  0.1976
13056TIP3    H160659   1.645   2.157   3.603 -0.4639  0.5968  0.7230
13056TIP3    H260660   1.579   2.069   3.708  0.7234 -1.0357  0.1145
13057TIP3   OH260661   5.273   6.290  13.848  0.5021  0.1395 -0.6167
13057TIP3    H160662   5.202   6.229  13.829 -1.2412  2.1865 -0.8713
13057TIP3    H260663   5.287   6.338  13.766  1.6730  0.2560 -0.3561
13058TIP3   OH260664   6.469   6.156   4.802  0.3688  0.1573 -0.1400
13058TIP3    H160665   6.449   6.082   4.745 -1.9763  0.9740 -0.4507
13058TIP3    H260666   6.543   6.199   4.761 -0.4153 -0.0669 -1.8154
13059TIP3   OH260667   6.355   0.278   4.092  0.5022  0.4364  0.4362
13059TIP3    H160668   6.361   0.356   4.147  1.6732  0.4893  0.2447
13059TIP3    H260669   6.296   0.219   4.140  0.1927  1.1376  0.9276
13060TIP3   OH260670   4.855   5.545   5.279 -0.1235 -0.9305 -0.0405
13060TIP3    H160671   4.909   5.569   5.204  0.3029  0.3046  0.6348
13060TIP3    H260672   4.917   5.539   5.352 -0.8547  0.2941  0.7010
13061TIP3   OH260673   4.672   1.321   4.108  0.2417  0.6102  0.5045
13061TIP3    H160674   4.669   1.415   4.088 -2.3652  0.7723  1.5393
13061TIP3    H260675   4.709   1.281   4.029  0.2384  2.3816 -0.4200
13062TIP3   OH260676   4.140   4.379  13.809  0.0627  0.1984  0.4918
13062TIP3    H160677   4.234   4.393  13.801 -0.0510 -0.0301 -1.5757
13062TIP3    H260678   4.121   4.392  13.902  2.3371 -1.0551  1.1646
13063TIP3   OH260679   0.075   5.914  13.322 -0.2562  0.3820  0.1835
13063TIP3    H160680   0.134   5.844  13.294  0.4829  0.9654  0.2817
13063TIP3    H260681  -0.012   5.878  13.307  0.1171 -0.1441 -0.8224
13064TIP3   OH260682   2.542   2.424  13.833 -0.0238 -0.3994 -0.2411
13064TIP3    H160683   2.508   2.344  13.792 -0.7556  0.2845 -0.9781
13064TIP3    H260684   2.548   2.487  13.762  0.8869  0.1092  0.2755
13065TIP3   OH260685   0.670   3.862  11.643 -0.0425 -0.1781 -0.2904
13065TIP3    H160686   0.674   3.828  11.554  1.3517  2.4460 -1.2657
13065TIP3    H260687   0.600   3.928  11.641  1.3370  1.3322  0.0135
13066TIP3   OH260688   1.228   5.350  14.982 -0.3139  0.0156 -0.1582
13066TIP3    H160689   1.249   5.260  14.958  2.4301  0.5051  0.1669
13066TIP3    H260690   1.215   5.395  14.899 -2.9716 -0.9256 -0.2864
13067TIP3   OH260691   0.623   5.537  13.870  0.1305  0.3708  0.2133
13067TIP3    H160692   0.629   5.514  13.962  0.8017  2.4239  0.7150
13067TIP3    H260693   0.589   5.458  13.827 -0.1959 -0.5945  2.2013
13068TIP3   OH260694   1.787   0.895  15.242 -0.0939  0.7253  0.5317
13068TIP3    H160695   1.858   0.917  15.301 -0.7860  0.1718  1.5949
13068TIP3    H260696   1.707   0.915  15.292 -0.6960 -0.7916  0.2231
13069TIP3   OH260697   2.360   1.074  12.929 -0.0361  0.1524 -0.6421
13069TIP3    H160698   2.372   0.979  12.925  0.1393  0.1972 -1.1653
13069TIP3    H260699   2.390   1.106  12.844  1.7660  0.8796  0.2417
13070TIP3   OH260700   6.646   1.237   3.622  0.3325 -0.2289 -0.0443
13070TIP3    H160701   6.636   1.183   3.700  2.0519 -0.0911  0.2851
13070TIP3    H260702   6.659   1.326   3.655 -2.1243  0.3651 -0.5784
13071TIP3   OH260703   3.319   3.710  13.130 -0.4769  0.3961 -0.0235
13071TIP3    H160704   3.296   3.683  13.041 -1.1094  0.6022  0.0761
13071TIP3    H260705   3.235   3.715  13.176 -0.2200  1.0076  0.3833
13072TIP3   OH260706   0.969   0.920   0.970  0.3368 -0.4484 -0.0384
13072TIP3    H160707   0.916   0.936   1.049  0.4610 -0.6104  0.0794
13072TIP3    H260708   1.031   0.993   0.967 -0.1826 -0.0215 -0.4215
13073TIP3   OH260709   1.282   2.051   0.838 -0.2921 -0.3087 -0.0571
13073TIP3    H160710   1.290   2.101   0.919 -2.8066 -0.6988  0.4647
13073TIP3    H260711   1.351   1.984   0.845  0.9372  1.0137  0.7321
13074TIP3   OH260712   2.746   1.867  12.650  0.1671  0.1165  0.0806
13074TIP3    H160713   2.708   1.897  12.732 -0.7873  1.0613 -0.6893
13074TIP3    H260714   2.841   1.867  12.666 -0.0659 -0.6640  1.4764
13075TIP3   OH260715   2.733   1.626   0.541  0.2714  0.1741  0.6642
13075TIP3    H160716   2.767   1.614   0.453 -2.2507 -0.0167 -0.3171
13075TIP3    H260717   2.805   1.602   0.599  2.1314  0.8413 -1.3327
13076TIP3   OH260718   0.382   3.673  13.571  0.1184 -0.6311 -0.0114
13076TIP3    H160719   0.457   3.636  13.618 -0.0220 -1.1674 -0.2070
13076TIP3    H260720   0.415   3.756  13.537  0.2739 -0.3328  0.8724
13077TIP3   OH260721   0.987   4.605   2.324 -0.4574  0.2567 -0.3899
13077TIP3    H160722   0.999   4.660   2.401 -0.5347  1.4533 -1.2097
13077TIP3    H260723   0.977   4.667   2.252 -0.2215 -0.8418 -1.3893
13078TIP3   OH260724   0.596   5.740  14.913  0.2413 -0.0876 -0.2324
13078TIP3    H160725   0.560   5.657  14.944 -0.1001 -0.2288 -0.9932
13078TIP3    H260726   0.672   5.715  14.860 -0.0009  0.0774 -0.6556
13079TIP3   OH260727   3.995   0.319   3.273  0.7556 -0.1732 -0.0270
13079TIP3    H160728   3.943   0.369   3.336 -0.1848  0.1054 -1.0144
13079TIP3    H260729   3.987   0.229   3.302 -0.1199 -0.1092 -0.0585
13080TIP3   OH260730   2.745   2.678   1.474 -0.5530 -0.2379  0.1876
13080TIP3    H160731   2.718   2.754   1.526 -0.0626  0.4523 -0.5678
13080TIP3    H260732   2.831   2.701   1.439 -0.1844 -1.3331  0.3386
13081TIP3   OH260733   0.799   0.192   1.771  0.1864 -0.0176 -0.3730
13081TIP3    H160734   0.755   0.195   1.686 -0.6727 -1.0133  0.0269
13081TIP3    H260735   0.729   0.210   1.835  0.8610  0.9250  0.1204
13082TIP3   OH260736   2.509   1.512   4.125  0.0820  0.3278  0.2585
13082TIP3    H160737   2.600   1.489   4.147  0.5988  0.8748 -1.2875
13082TIP3    H260738   2.471   1.539   4.209  0.3991 -2.9464  1.5616
13083TIP3   OH260739   2.092   4.544  11.451 -0.0450  0.3352 -0.3077
13083TIP3    H160740   2.099   4.452  11.426 -0.7862  0.0268  0.5713
13083TIP3    H260741   2.022   4.546  11.516 -1.4707  1.8450 -1.8517
13084TIP3   OH260742   4.032   4.366  11.793  0.1670  0.4895  0.1613
13084TIP3    H160743   3.961   4.304  11.807 -0.3791  1.4273  1.7543
13084TIP3    H260744   4.112   4.314  11.804 -0.2412 -0.7036 -2.2756
13085TIP3   OH260745   3.674   3.622  13.530  0.7210  0.0881 -0.3688
13085TIP3    H160746   3.719   3.613  13.614 -0.6583  2.0782  0.6318
13085TIP3    H260747   3.736   3.669  13.475  0.1415  2.3629  0.8441
13086TIP3   OH260748   1.998   4.618   1.649  0.4077 -0.0809 -0.2863
13086TIP3    H160749   1.909   4.635   1.680  0.3607 -0.4023 -0.2471
13086TIP3    H260750   2.015   4.687   1.586  0.0484 -0.1463 -0.4528
13087TIP3   OH260751   6.816   1.852  17.001 -0.0680 -0.4171  0.2190
13087TIP3    H160752   6.726   1.879  17.020 -0.3277 -1.4194  0.4391
13087TIP3    H260753   6.829   1.876  16.909 -1.7461 -3.3562 -0.8310
13088TIP3   OH260754   2.203   0.594   2.854  0.2501  0.1749 -0.6346
13088TIP3    H160755   2.215   0.666   2.916 -0.9292  0.9496 -1.2652
13088TIP3    H260756   2.199   0.515   2.908 -0.1159  0.7735  0.2157
13089TIP3   OH260757   5.149   4.354  16.357  0.3029  0.0372 -0.1426
13089TIP3    H160758   5.129   4.325  16.446  1.0858  0.2023  0.0986
13089TIP3    H260759   5.196   4.437  16.369  1.3496 -0.4644 -0.6499
13090TIP3   OH260760   3.208   6.119  16.029 -0.0023 -0.0114  0.0829
13090TIP3    H160761   3.113   6.130  16.027  0.3159  3.0615 -0.2059
13090TIP3    H260762   3.240   6.170  15.954  2.0105  0.6933  1.3835
13091TIP3   OH260763   1.875   4.623   6.230 -0.8032 -0.1605  0.1032
13091TIP3    H160764   1.925   4.695   6.267 -2.0400  0.5702  0.3735
13091TIP3    H260765   1.867   4.560   6.301  0.5591 -0.7314 -0.2296
13092TIP3   OH260766   2.952   5.816   3.007  0.5792 -0.5109  0.4519
13092TIP3    H160767   2.986   5.731   3.033  0.6097 -0.9575 -0.9992
13092TIP3    H260768   2.946   5.811   2.912 -1.3053  0.3865  0.4937
13093TIP3   OH260769   5.576   4.151   3.191  0.2382  0.0187 -0.4707
13093TIP3    H160770   5.573   4.240   3.157  0.9940  0.3084  0.2133
13093TIP3    H260771   5.666   4.122   3.176 -0.2925 -1.0498 -1.7367
13094TIP3   OH260772   5.793   0.200  14.784 -0.5070 -0.1633  0.2604
13094TIP3    H160773   5.862   0.240  14.732  1.4541 -2.1334  1.2402
13094TIP3    H260774   5.821   0.212  14.875 -0.4774 -2.5731  0.6191
13095TIP3   OH260775   1.207   6.553  14.344 -0.2234 -0.8104  0.5441
13095TIP3    H160776   1.171   6.503  14.271  0.9991 -1.0894  0.1175
13095TIP3    H260777   1.287   6.507  14.367 -0.2830 -0.3678  1.6656
13096TIP3   OH260778   4.114   2.329   2.525  0.2043 -0.0634  0.9103
13096TIP3    H160779   4.198   2.291   2.553  0.6014  0.3642  0.3276
13096TIP3    H260780   4.072   2.260   2.473  0.1470 -0.3170  1.2921
13097TIP3   OH260781   0.547   0.200  17.030 -0.8770  0.1057  0.3417
13097TIP3    H160782   0.549   0.140  17.104 -0.8685  1.1392  1.1863
13097TIP3    H260783   0.573   0.285  17.066 -1.5745  0.7769 -0.6881
13098TIP3   OH260784   6.632   3.978   1.654  0.0993 -0.2444 -0.3599
13098TIP3    H160785   6.683   4.044   1.700 -0.6340 -0.0270  0.1431
13098TIP3    H260786   6.568   4.027   1.603 -1.3660 -0.5959  1.0971
13099TIP3   OH260787   1.267   2.687   4.751  0.1097  0.1051 -0.1552
13099TIP3    H160788   1.300   2.765   4.795  1.2638  0.1427 -1.0694
13099TIP3    H260789   1.238   2.629   4.822 -0.0267  1.0332  0.5551
13100TIP3   OH260790   3.366   3.659   1.390  0.1853  0.0072 -0.1693
13100TIP3    H160791   3.413   3.735   1.424  0.5040 -0.0152 -0.5445
13100TIP3    H260792   3.431   3.589   1.389 -0.0280 -0.1917 -0.0944
13101TIP3   OH260793   3.264   6.410   3.039  0.3420 -0.1083 -0.2411
13101TIP3    H160794   3.207   6.413   3.116  0.6600  0.2818 -0.0150
13101TIP3    H260795   3.253   6.322   3.004  1.2965 -0.7893  1.0957
13102TIP3   OH260796   3.394   3.091  10.105 -0.0010 -0.2926  0.3132
13102TIP3    H160797   3.461   3.050  10.160 -0.6961 -1.0139  0.6326
13102TIP3    H260798   3.317   3.097  10.162 -0.3981 -0.0462 -0.2449
13103TIP3   OH260799   1.236   2.526   5.888 -0.2380 -0.1322  0.7786
13103TIP3    H160800   1.143   2.545   5.881  0.0090  0.2446 -2.0911
13103TIP3    H260801   1.244   2.433   5.864  0.1024 -0.2386  1.2812
13104TIP3   OH260802   4.285   4.107   1.826  0.1090  0.0355 -0.6026
13104TIP3    H160803   4.307   4.095   1.918 -0.4403  2.4051 -0.1452
13104TIP3    H260804   4.307   4.023   1.785  3.9357  0.1476  0.9726
13105TIP3   OH260805   0.004   5.459   0.033 -0.1413  0.3097  0.2100
13105TIP3    H160806  -0.040   5.458   0.118 -0.4229  1.0093  0.0729
13105TIP3    H260807   0.033   5.369   0.021 -0.6229  0.0715  0.7729
13106TIP3   OH260808   1.316   4.379  14.530 -0.3319  0.0894 -0.0670
13106TIP3    H160809   1.392   4.321  14.541  0.8861  1.4696 -0.9483
13106TIP3    H260810   1.263   4.336  14.462  1.1322  0.5239 -1.5366
13107TIP3   OH260811   6.559   1.365  12.427  0.0192  0.5537 -0.1837
13107TIP3    H160812   6.536   1.390  12.338 -0.7704 -1.7806 -0.6731
13107TIP3    H260813   6.475   1.347  12.470  0.5188 -0.6693  0.3042
13108TIP3   OH260814   0.468   1.618   0.598  0.5385 -0.0332 -0.2397
13108TIP3    H160815   0.556   1.653   0.584  0.0009  1.7325  0.7141
13108TIP3    H260816   0.448   1.638   0.690 -0.5858 -1.0679 -0.2336
13109TIP3   OH260817   1.994   2.420  14.726 -0.4673  0.4466 -0.1594
13109TIP3    H160818   1.953   2.440  14.642  1.1905 -0.0707 -1.1166
13109TIP3    H260819   1.962   2.333  14.749 -1.2293  0.7505 -0.0567
13110TIP3   OH260820   2.835   0.734  16.267  1.1807 -0.2668 -0.2730
13110TIP3    H160821   2.744   0.710  16.281  1.2409 -0.7161 -0.6366
13110TIP3    H260822   2.874   0.735  16.355  1.6335 -3.3919 -0.3917
13111TIP3   OH260823   0.914   4.787  13.528 -0.1245  0.0261 -0.0027
13111TIP3    H160824   0.944   4.738  13.451  1.1401  0.0124  0.4911
13111TIP3    H260825   0.829   4.822  13.501  0.5527  0.4954 -1.6100
13112TIP3   OH260826   0.296   0.631   3.686  0.3863  0.0404 -0.1516
13112TIP3    H160827   0.294   0.655   3.779  0.1903  0.2746 -0.2168
13112TIP3    H260828   0.287   0.714   3.639  0.1307 -0.1154 -0.3785
13113TIP3   OH260829   6.600   1.045  13.507  0.3429 -0.1331 -0.2763
13113TIP3    H160830   6.668   1.001  13.558 -0.6507 -2.5589 -0.9702
13113TIP3    H260831   6.633   1.043  13.417  0.8316  1.6460 -0.1493
13114TIP3   OH260832   3.969   5.990  11.911 -0.4311 -0.3183  0.2066
13114TIP3    H160833   4.035   6.046  11.869 -0.3886 -0.6319 -0.1540
13114TIP3    H260834   4.017   5.911  11.935 -0.6072 -0.4167  0.2332
13115TIP3   OH260835   2.607   3.297   0.244 -0.1595  0.4917 -0.5423
13115TIP3    H160836   2.679   3.353   0.214 -0.0905 -0.4629 -2.2340
13115TIP3    H260837   2.555   3.280   0.165 -2.4389  1.4172  0.7225
13116TIP3   OH260838   3.950   5.024  17.045 -0.3762 -0.5262  0.2077
13116TIP3    H160839   4.026   5.029  17.103  0.0298 -1.2976 -0.2460
13116TIP3    H260840   3.910   5.111  17.050  2.0816  0.7762 -1.5891
13117TIP3   OH260841   5.839   5.577   0.654  0.1613 -0.6505 -0.1555
13117TIP3    H160842   5.859   5.657   0.702  0.7090 -0.4731 -0.6717
13117TIP3    H260843   5.920   5.555   0.609 -0.1638 -1.1580 -0.4998
13118TIP3   OH260844   5.319   6.562  15.604 -0.3503  0.1174  0.5641
13118TIP3    H160845   5.386   6.603  15.549 -0.4081  0.3248  0.6452
13118TIP3    H260846   5.263   6.635  15.632 -0.7809 -0.0919  0.2617
13119TIP3   OH260847   0.556   5.889   0.206 -0.5270 -0.0516  0.0243
13119TIP3    H160848   0.511   5.972   0.219 -0.3781 -0.0557  0.5622
13119TIP3    H260849   0.495   5.822   0.236 -0.7170 -0.1526 -0.5741
13120TIP3   OH260850   1.791   1.599   3.678  0.2832  0.2040 -0.2438
13120TIP3    H160851   1.794   1.591   3.583  0.5892  0.2583 -0.2400
13120TIP3    H260852   1.791   1.694   3.694  0.0899  0.1954 -0.1948
13121TIP3   OH260853   1.627   3.432   2.887  0.3032  0.7508 -0.4629
13121TIP3    H160854   1.647   3.341   2.909  2.3519  1.1852 -0.3864
13121TIP3    H260855   1.597   3.428   2.796 -2.2200 -0.2982  0.3769
13122TIP3   OH260856   2.270   3.565  15.176 -0.0546  0.2250 -0.3333
13122TIP3    H160857   2.309   3.581  15.262 -0.6392  0.0214 -0.0296
13122TIP3    H260858   2.333   3.601  15.114  0.7042 -0.2702  0.1494
13123TIP3   OH260859   2.321   3.792  13.967  0.9763  0.2648  0.3130
13123TIP3    H160860   2.411   3.793  13.935  0.9934  1.1503  0.3723
13123TIP3    H260861   2.302   3.884  13.988  0.0159  0.1035  0.1737
13124TIP3   OH260862   2.780   0.579  13.303  0.1126 -0.5423 -0.0384
13124TIP3    H160863   2.762   0.629  13.383  1.9359 -2.3728  1.5901
13124TIP3    H260864   2.716   0.509  13.304  0.3274 -0.7404 -0.0039
13125TIP3   OH260865   2.273   1.385  12.728 -0.1297  0.7129  0.7494
13125TIP3    H160866   2.229   1.315  12.776  0.7920  0.3485  1.0881
13125TIP3    H260867   2.221   1.463  12.745 -0.5433  0.3228  1.2834
13126TIP3   OH260868   1.675   1.288   0.273  0.3132 -0.3357 -0.1630
13126TIP3    H160869   1.721   1.252   0.348  1.3701 -1.4524 -1.3210
13126TIP3    H260870   1.714   1.244   0.197  0.8104  2.3504 -1.5409
13127TIP3   OH260871   2.799   2.963   1.555  0.2058  0.0287 -0.0529
13127TIP3    H160872   2.862   2.902   1.594 -0.0683  0.3860  0.9549
13127TIP3    H260873   2.773   3.020   1.627 -1.9764 -0.6834 -0.2449
13128TIP3   OH260874   2.098   4.162  14.458 -0.5314  0.5119  0.1505
13128TIP3    H160875   2.078   4.225  14.526  0.3805 -0.2709  1.1749
13128TIP3    H260876   2.066   4.078  14.492  0.6316 -0.0200 -0.0153
13129TIP3   OH260877   2.963   4.650   5.053  0.0083  0.2021 -0.0908
13129TIP3    H160878   3.053   4.631   5.026  0.3282 -1.7176  2.1759
13129TIP3    H260879   2.910   4.587   5.005 -0.1138  1.1209 -1.1804
13130TIP3   OH260880   4.199   5.513  16.738 -1.0568  0.2553  0.0045
13130TIP3    H160881   4.135   5.481  16.801 -0.7143  0.5099  0.4845
13130TIP3    H260882   4.270   5.449  16.742 -0.4008  1.0192  0.9161
13131TIP3   OH260883   0.236   2.869  15.405  0.1112 -0.1629 -0.1382
13131TIP3    H160884   0.224   2.919  15.324  0.5429  0.2343  0.0383
13131TIP3    H260885   0.237   2.778  15.377  0.4988 -0.0156 -0.6121
13132TIP3   OH260886   5.621   1.154  14.885 -0.1934  0.2233 -0.0186
13132TIP3    H160887   5.607   1.063  14.910  1.4574 -0.4479 -1.3787
13132TIP3    H260888   5.707   1.176  14.922 -0.0288  0.8206 -0.7334
13133TIP3   OH260889   0.851   5.330  14.913 -0.0051 -0.2363 -0.4715
13133TIP3    H160890   0.794   5.306  14.986 -0.6812 -0.5539 -1.1019
13133TIP3    H260891   0.902   5.404  14.946 -1.2070  0.4367 -0.1050
13134TIP3   OH260892   1.999   6.741   3.217 -0.6716  0.3968  1.1355
13134TIP3    H160893   1.947   6.709   3.291 -0.1694  1.4728  1.9661
13134TIP3    H260894   2.085   6.760   3.254  1.4864 -4.6505 -0.9215
13135TIP3   OH260895   2.474   0.083  12.973 -0.5590 -0.0858 -0.0775
13135TIP3    H160896   2.414   0.158  12.965 -0.1026  0.4356  1.2313
13135TIP3    H260897   2.559   0.122  12.990 -0.1264 -0.8831 -0.3830
13136TIP3   OH260898   0.524   1.244  12.748 -0.4211  0.1486  0.4961
13136TIP3    H160899   0.492   1.329  12.718  1.6906  0.8187  0.0298
13136TIP3    H260900   0.485   1.180  12.688  1.0488  1.1674 -1.6245
13137TIP3   OH260901   6.295   1.016  16.659 -0.0130  0.0235 -0.7835
13137TIP3    H160902   6.227   0.949  16.666 -0.4911  0.5137 -0.7090
13137TIP3    H260903   6.247   1.097  16.642  0.5179  0.4563 -0.2371
13138TIP3   OH260904   6.430   5.098  16.313  0.0832  0.0640  0.0668
13138TIP3    H160905   6.349   5.148  16.306  0.2693  0.2409 -0.9278
13138TIP3    H260906   6.490   5.156  16.360  0.4344  0.9573 -1.4754
13139TIP3   OH260907   5.070   0.999  12.187 -0.4456  0.5313 -0.0524
13139TIP3    H160908   5.010   1.070  12.165 -0.1771  0.6107 -0.5279
13139TIP3    H260909   5.157   1.035  12.172 -0.3380 -0.2330 -1.2839
13140TIP3   OH260910   6.141   5.684  17.148 -0.1805  0.1777 -0.2363
13140TIP3    H160911   6.091   5.753  17.191 -0.7311 -0.2916 -0.1160
13140TIP3    H260912   6.075   5.621  17.119  0.3646 -0.6413  0.2778
13141TIP3   OH260913   1.626   1.062  15.949  0.2951 -0.1375 -0.3233
13141TIP3    H160914   1.563   1.058  16.020  0.3241  0.4749 -0.2588
13141TIP3    H260915   1.616   0.979  15.903 -2.0113  0.7694 -1.5459
13142TIP3   OH260916   3.867   4.763   3.495  0.4510  0.1475  0.3812
13142TIP3    H160917   3.862   4.852   3.529 -0.6124  1.1186 -2.1727
13142TIP3    H260918   3.821   4.767   3.411 -1.2893 -3.2159  1.0525
13143TIP3   OH260919   3.306   0.666  13.009 -0.3255  0.8687 -0.3212
13143TIP3    H160920   3.303   0.593  12.947  0.1015  1.1882 -0.7255
13143TIP3    H260921   3.231   0.653  13.066  0.8800 -1.0320  0.8808
13144TIP3   OH260922   0.968   2.692  12.664  0.2170 -0.0368 -0.3974
13144TIP3    H160923   0.891   2.673  12.718  0.0219 -0.4680 -0.8244
13144TIP3    H260924   0.939   2.761  12.604 -0.3837 -1.4354 -1.7531
13145TIP3   OH260925   5.145   2.509   1.356 -0.5476  0.4045  0.6658
13145TIP3    H160926   5.173   2.489   1.266  1.2702 -1.5297  1.6200
13145TIP3    H260927   5.071   2.451   1.372 -1.4887  1.4330  0.1107
13146TIP3   OH260928   2.117   0.913  13.425 -0.0432 -0.2481 -0.4506
13146TIP3    H160929   2.032   0.928  13.467 -0.5683 -0.6264 -1.3554
13146TIP3    H260930   2.182   0.938  13.491 -0.8431 -1.5726  0.8788
13147TIP3   OH260931   3.888   2.380  16.066 -0.6010 -0.3083 -0.8113
13147TIP3    H160932   3.810   2.423  16.102  1.1605  1.2306  1.3470
13147TIP3    H260933   3.864   2.288  16.059 -2.0736 -0.1267  1.4309
13148TIP3   OH260934   3.916   1.168  11.326 -0.1568  0.5209 -0.2215
13148TIP3    H160935   3.940   1.116  11.249  0.6364 -1.1130  1.0979
13148TIP3    H260936   3.824   1.191  11.311 -0.3291 -0.6821 -1.1716
13149TIP3   OH260937   3.162   5.522  15.677 -0.1197  0.3360  0.1481
13149TIP3    H160938   3.199   5.456  15.735 -0.4373  1.0664  1.1995
13149TIP3    H260939   3.237   5.573  15.647  0.1604 -0.6736 -0.9054
13150TIP3   OH260940   1.235   4.174   6.022 -0.2706 -0.3658  0.1380
13150TIP3    H160941   1.174   4.186   5.949 -0.3829  1.4429  0.5081
13150TIP3    H260942   1.248   4.262   6.057 -1.8106 -1.4080  3.6062
13151TIP3   OH260943   3.419   1.318  16.395  0.9608  1.0942  0.0313
13151TIP3    H160944   3.416   1.319  16.491  0.6098 -0.1348  0.0435
13151TIP3    H260945   3.510   1.299  16.373  0.6908 -0.3207  0.1402
13152TIP3   OH260946   1.825   1.396   2.498  0.6249 -0.0778 -0.2357
13152TIP3    H160947   1.916   1.420   2.517  0.5101 -0.6568  1.1437
13152TIP3    H260948   1.831   1.309   2.459  0.5332 -1.2219  2.1801
13153TIP3   OH260949   0.403   1.747   5.642  0.0997 -0.1805  0.1434
13153TIP3    H160950   0.311   1.721   5.646 -0.8359  3.1517  1.6183
13153TIP3    H260951   0.439   1.721   5.726  0.0571  0.1682  0.2680
13154TIP3   OH260952   0.757   0.421  15.823  0.0187 -0.0549 -0.0601
13154TIP3    H160953   0.843   0.389  15.851 -0.3948 -0.8341  0.3135
13154TIP3    H260954   0.698   0.400  15.895 -0.3343  1.2214  0.0379
13155TIP3   OH260955   2.588   5.801   0.683  0.2707  0.2353  0.1522
13155TIP3    H160956   2.577   5.891   0.651  0.7744  0.8966  1.7755
13155TIP3    H260957   2.620   5.812   0.773  0.4596 -1.5756  0.3102
13156TIP3   OH260958   4.185   4.260   5.458  0.0891  0.2452 -0.3080
13156TIP3    H160959   4.224   4.306   5.532 -0.8060  0.1405  0.2437
13156TIP3    H260960   4.143   4.329   5.406  0.4759  0.2877 -0.5581
13157TIP3   OH260961   4.444   3.927  12.497 -0.1200 -0.6692 -0.0433
13157TIP3    H160962   4.429   3.962  12.585  0.2522  1.3073 -0.7265
13157TIP3    H260963   4.461   3.834  12.510  0.5835 -0.2694  2.0450
13158TIP3   OH260964   3.890   0.298   2.995 -0.2843  0.5115 -0.2373
13158TIP3    H160965   3.920   0.334   3.078 -0.8377  1.3478 -0.3973
13158TIP3    H260966   3.917   0.362   2.930  0.2918 -0.2207 -0.7296
13159TIP3   OH260967   3.600   3.569   0.593 -0.1059 -0.5129 -0.3376
13159TIP3    H160968   3.669   3.635   0.598 -0.6974  0.1137 -0.3517
13159TIP3    H260969   3.646   3.486   0.601  0.6975 -0.1170 -0.7980
13160TIP3   OH260970   0.534   2.053  11.766  0.5612 -0.1984  0.8392
13160TIP3    H160971   0.520   1.976  11.711  2.2843 -0.8934  1.3354
13160TIP3    H260972   0.454   2.058  11.819  0.0950 -1.1821  0.2656
13161TIP3   OH260973   2.944   4.385  13.819 -0.6924  0.5357  0.2317
13161TIP3    H160974   2.872   4.385  13.882 -0.9456  0.0110 -0.0469
13161TIP3    H260975   2.901   4.389  13.734 -0.3551  1.1320  0.0890
13162TIP3   OH260976   0.190   2.269  17.188 -0.2402  0.6188  0.4261
13162TIP3    H160977   0.248   2.233  17.255 -0.9379  0.4035  0.9216
13162TIP3    H260978   0.200   2.211  17.113  1.6407  1.6797 -0.1824
13163TIP3   OH260979   3.439   3.395  12.869  0.1589 -0.4099  0.4122
13163TIP3    H160980   3.519   3.359  12.831 -0.2391 -1.3558  0.4481
13163TIP3    H260981   3.388   3.318  12.895 -1.6092  0.1315 -1.3434
13164TIP3   OH260982   4.585   3.775   0.992 -0.0878  0.0721 -0.2641
13164TIP3    H160983   4.671   3.813   0.972 -1.0890  1.8836 -1.2174
13164TIP3    H260984   4.597   3.681   0.976  1.7129  0.2843 -0.3584
13165TIP3   OH260985   6.170   4.921  15.929  0.4869 -0.1337 -0.1870
13165TIP3    H160986   6.174   4.863  16.005  0.8237  1.9957  1.4645
13165TIP3    H260987   6.250   4.974  15.935  0.3130  0.3414 -1.7975
13166TIP3   OH260988   4.468   4.756  15.326 -0.1032 -0.0661 -0.4756
13166TIP3    H160989   4.460   4.680  15.269  0.3295 -0.3901 -0.1090
13166TIP3    H260990   4.503   4.721  15.408  0.2711  0.5561 -0.3646
13167TIP3   OH260991   0.276   3.646  15.796  0.7743  0.3626  0.1762
13167TIP3    H160992   0.197   3.594  15.780  1.9175 -0.9555 -1.3572
13167TIP3    H260993   0.337   3.618  15.728  2.1148  2.3253  0.5236
13168TIP3   OH260994   5.259   4.599  16.402  0.5508  0.2091 -0.2750
13168TIP3    H160995   5.321   4.595  16.475 -0.1480  0.4294  0.3382
13168TIP3    H260996   5.267   4.689  16.370 -0.4758  0.6814  0.7279
13169TIP3   OH260997   2.125   2.784   3.853 -0.0008  0.3318  0.2892
13169TIP3    H160998   2.186   2.760   3.784  1.8433  2.1409  1.2219
13169TIP3    H260999   2.103   2.701   3.896  2.0978 -0.3158  0.1595
13170TIP3   OH261000   0.234   0.460   0.342  0.2997  0.2141  0.0002
13170TIP3    H161001   0.323   0.436   0.318  0.3648  0.6698 -0.2145
13170TIP3    H261002   0.190   0.377   0.359  0.7588 -0.0106  0.0800
13171TIP3   OH261003   3.459   5.535   0.428  0.4639 -0.3655  0.1723
13171TIP3    H161004   3.435   5.535   0.335  0.9797 -0.5827  0.0375
13171TIP3    H261005   3.457   5.442   0.453 -1.0080 -0.2015  0.7289
13172TIP3   OH261006   0.019   6.497  15.327  0.0767 -0.2258 -0.8138
13172TIP3    H161007   0.085   6.457  15.269 -1.0102  0.5235 -2.6187
13172TIP3    H261008  -0.064   6.485  15.281 -0.7319  0.9867  0.2801
13173TIP3   OH261009   2.800   5.474  13.743 -0.0645 -0.6122 -0.2813
13173TIP3    H161010   2.740   5.546  13.725 -0.8633 -1.2345 -0.1506
13173TIP3    H261011   2.882   5.500  13.702 -0.7696 -0.3022 -1.5095
13174TIP3   OH261012   6.782   6.776   2.808 -0.1782  0.4892 -0.0612
13174TIP3    H161013   6.859   6.765   2.864  2.0063  1.5634 -2.7500
13174TIP3    H261014   6.736   6.692   2.815  0.1219  0.5171  3.1312
13175TIP3   OH261015   6.553   6.202   2.633  0.0543 -0.1142  0.1998
13175TIP3    H161016   6.481   6.139   2.638 -0.9286  1.0745  1.3380
13175TIP3    H261017   6.609   6.180   2.707 -0.8488  1.0052  1.2321
13176TIP3   OH261018   6.181   6.281   0.143  0.3495  0.3772 -0.0524
13176TIP3    H161019   6.262   6.262   0.097 -0.6249 -0.0991 -1.5936
13176TIP3    H261020   6.159   6.371   0.118  0.2297  0.3906  0.1001
13177TIP3   OH261021   1.343   3.421   3.565  0.0363 -0.0222  0.4406
13177TIP3    H161022   1.418   3.439   3.508 -0.0369  0.5143  0.5148
13177TIP3    H261023   1.314   3.334   3.539  1.1456 -0.5436  0.9189
13178TIP3   OH261024   5.479   3.462  14.216  0.1319  0.0290  0.0985
13178TIP3    H161025   5.556   3.451  14.272  1.6321 -1.7203 -2.1698
13178TIP3    H261026   5.516   3.476  14.128 -2.1522 -0.4370 -0.9683
13179TIP3   OH261027   3.779   4.933   0.999 -0.4743  0.2750  0.3496
13179TIP3    H161028   3.727   4.948   0.920 -0.2731 -0.4536  0.0838
13179TIP3    H261029   3.869   4.944   0.971 -0.0992 -4.1518 -0.5102
13180TIP3   OH261030   3.042   4.294  13.294  0.4868  0.9509 -0.0324
13180TIP3    H161031   2.950   4.295  13.320  1.1195 -0.6996  2.3673
13180TIP3    H261032   3.087   4.343  13.363  1.6113  0.4098 -0.3784
13181TIP3   OH261033   4.159   4.154  17.156  0.3578 -0.3179 -0.5143
13181TIP3    H161034   4.161   4.245  17.187 -1.3530 -0.7019  0.7991
13181TIP3    H261035   4.215   4.106  17.217  1.5466 -0.1060 -1.4165
13182TIP3   OH261036   2.948   4.296  11.956  0.5924 -0.1663  0.1855
13182TIP3    H161037   2.938   4.253  12.041 -0.5669 -0.5830 -0.1673
13182TIP3    H261038   2.941   4.226  11.892 -0.0420  0.3727 -0.3361
13183TIP3   OH261039   5.684   3.215   3.864 -0.3496 -0.6605 -0.1201
13183TIP3    H161040   5.595   3.233   3.894 -0.5435 -0.9995 -0.4836
13183TIP3    H261041   5.673   3.176   3.778  0.1453 -0.9107 -0.0731
13184TIP3   OH261042   1.345   0.254  11.697 -0.7210 -0.4354 -0.0289
13184TIP3    H161043   1.283   0.326  11.711 -2.7751 -2.3107  1.0149
13184TIP3    H261044   1.323   0.221  11.610  0.9790  0.8861 -0.9748
13185TIP3   OH261045   5.583   2.706   4.485 -0.3863 -0.5640 -0.2036
13185TIP3    H161046   5.629   2.640   4.536 -2.1780 -1.8134 -0.1383
13185TIP3    H261047   5.496   2.669   4.471 -1.5002  1.8676 -0.0020
13186TIP3   OH261048   1.776   5.247   4.245 -0.1892  0.1315  0.2782
13186TIP3    H161049   1.818   5.164   4.221 -0.5620  0.6638 -2.3306
13186TIP3    H261050   1.686   5.223   4.267  0.2124 -0.3817  1.4586
13187TIP3   OH261051   0.396   3.095  14.193  0.2626 -0.5327  0.0518
13187TIP3    H161052   0.482   3.054  14.201  0.9426  0.8105 -0.1698
13187TIP3    H261053   0.383   3.105  14.098  1.0438  1.6471  0.1477
13188TIP3   OH261054   5.336   2.810   6.164  0.6850  0.0124 -0.3838
13188TIP3    H161055   5.304   2.863   6.237  0.7366 -0.8627  0.2904
13188TIP3    H261056   5.375   2.733   6.206  1.4627 -0.1074 -1.2999
13189TIP3   OH261057   0.845   0.983  15.526  0.0150  0.0566 -0.2385
13189TIP3    H161058   0.859   1.032  15.607 -1.6580 -0.0619  0.1551
13189TIP3    H261059   0.753   0.955  15.531  0.2274 -0.9477 -1.6351
13190TIP3   OH261060   1.229   6.385  11.112  0.6063 -0.2405  0.1067
13190TIP3    H161061   1.243   6.346  11.026  0.4833  0.5093 -0.2566
13190TIP3    H261062   1.162   6.452  11.098 -0.2234 -0.8632  1.0044
13191TIP3   OH261063   2.859   1.728   3.226  0.1036  0.3582 -0.1539
13191TIP3    H161064   2.908   1.760   3.150  0.9809 -1.6446 -0.4530
13191TIP3    H261065   2.911   1.655   3.259 -1.7433 -0.6091  0.6685
13192TIP3   OH261066   5.012   5.099   4.949 -0.7633 -0.0154  0.1532
13192TIP3    H161067   5.075   5.169   4.964 -2.0844  1.1025  0.5574
13192TIP3    H261068   5.030   5.070   4.859 -1.0367  1.7114 -0.4810
13193TIP3   OH261069   3.630   4.630  13.817  0.0173  0.1846 -0.3434
13193TIP3    H161070   3.672   4.545  13.810  0.1079  0.3000 -1.2283
13193TIP3    H261071   3.541   4.615  13.782 -0.8788 -0.1910  2.0026
13194TIP3   OH261072   5.168   3.577  13.518 -0.2007 -0.6150  0.3922
13194TIP3    H161073   5.223   3.500  13.505 -0.7263 -0.7390 -1.2658
13194TIP3    H261074   5.112   3.579  13.440  0.4174  1.9373 -0.0125
13195TIP3   OH261075   0.871   2.958  17.111  0.4416  0.6327 -0.1578
13195TIP3    H161076   0.808   2.958  17.183  1.2617  1.0687  0.5699
13195TIP3    H261077   0.874   2.867  17.083 -0.8615  0.6894 -0.5125
13196TIP3   OH261078   5.985   5.662  15.139 -0.2765  0.3592  0.9630
13196TIP3    H161079   6.015   5.742  15.181  1.8402  0.2418 -0.2498
13196TIP3    H261080   5.949   5.609  15.210 -1.1762  2.1331  1.8539
13197TIP3   OH261081   4.972   3.406  11.226 -0.0887  0.6677 -0.0976
13197TIP3    H161082   5.038   3.455  11.276  1.8358 -1.0891 -0.8379
13197TIP3    H261083   4.976   3.317  11.261 -2.3003  0.6004  0.0305
13198TIP3   OH261084   2.448   5.058  16.651 -0.4623 -0.0827  0.0206
13198TIP3    H161085   2.486   5.047  16.738 -2.0657 -1.4639  0.5818
13198TIP3    H261086   2.523   5.060  16.592  0.5486 -1.1742  1.2410
13199TIP3   OH261087   1.368   3.298  12.035  0.2251  0.6410  0.0083
13199TIP3    H161088   1.305   3.359  12.074 -0.8973 -0.0072 -0.7843
13199TIP3    H261089   1.382   3.232  12.103 -0.7492  0.2184 -0.1928
13200TIP3   OH261090   3.067   4.081   0.974  0.1646  0.0622 -0.3015
13200TIP3    H161091   3.018   4.079   0.892  0.9483 -2.6429 -0.7926
13200TIP3    H261092   3.073   3.989   0.999  1.6143  0.6982  1.7738
13201TIP3   OH261093   4.595   4.503   0.077 -0.3330 -0.2626  0.2710
13201TIP3    H161094   4.626   4.413   0.072  0.5702 -0.0557  1.8363
13201TIP3    H261095   4.537   4.504   0.153  0.5937  0.7404  0.9760
13202TIP3   OH261096   4.915   5.156  14.087 -0.3790 -0.6086  0.1057
13202TIP3    H161097   4.856   5.085  14.062 -2.1735  0.8660  0.1029
13202TIP3    H261098   4.902   5.166  14.181 -1.5122  0.9299 -0.1946
13203TIP3   OH261099   5.675   3.119   1.460  0.7356  0.1420  0.4214
13203TIP3    H161100   5.615   3.081   1.396  2.6244 -0.8893 -0.7721
13203TIP3    H261101   5.623   3.126   1.540 -0.7215 -1.5793 -0.3410
13204TIP3   OH261102   1.965   6.813  11.638 -0.1240 -0.5245  0.3504
13204TIP3    H161103   2.018   6.886  11.670 -1.2188 -0.5903  2.4672
13204TIP3    H261104   2.020   6.736  11.650 -0.1226 -0.4105  1.1510
13205TIP3   OH261105   6.680   1.243  11.038  0.1920  0.1631  0.1239
13205TIP3    H161106   6.586   1.231  11.025  0.4178 -2.0375  0.4525
13205TIP3    H261107   6.691   1.247  11.133  0.2061  2.5409  0.0593
13206TIP3   OH261108   3.080   3.972  16.287 -0.3125  0.1869  0.3868
13206TIP3    H161109   3.085   4.065  16.266 -2.7127  0.4392  0.8801
13206TIP3    H261110   2.998   3.942  16.248  1.6227 -2.3325 -1.9783
13207TIP3   OH261111   4.145   6.667  16.225 -0.2436 -0.1038  0.2113
13207TIP3    H161112   4.122   6.753  16.190 -0.1791 -0.4144 -0.6128
13207TIP3    H261113   4.068   6.613  16.208  0.1952 -0.5380 -0.4320
13208TIP3   OH261114   3.949   4.081  13.170 -0.4138  0.0185 -0.0212
13208TIP3    H161115   3.967   3.993  13.137  0.7673 -0.1041  0.9291
13208TIP3    H261116   3.856   4.078  13.195 -0.8177 -0.4521 -1.4967
13209TIP3   OH261117   4.507   4.971   5.722 -0.5319  0.2914  0.3297
13209TIP3    H161118   4.450   4.921   5.779 -1.5158  0.7182 -0.2695
13209TIP3    H261119   4.535   5.046   5.775  0.2760 -0.4358  0.9485
13210TIP3   OH261120   4.238   6.485  12.235  0.6714  0.1067  0.3426
13210TIP3    H161121   4.289   6.556  12.195 -0.9341  1.9688  1.4824
13210TIP3    H261122   4.294   6.453  12.306  0.7438  1.3518  0.8580
13211TIP3   OH261123   0.958   1.970   1.375 -0.1877 -0.1175 -0.0033
13211TIP3    H161124   0.940   1.948   1.284 -2.2299 -0.9014  0.5542
13211TIP3    H261125   0.877   2.012   1.406 -1.0246 -3.3736  2.5226
13212TIP3   OH261126   3.201   4.190  12.816  0.0549 -0.0363  0.2027
13212TIP3    H161127   3.146   4.235  12.751  1.5044  1.6065  0.0863
13212TIP3    H261128   3.193   4.243  12.895  0.9288 -0.1907  0.3951
13213TIP3   OH261129   3.157   0.325   5.144  0.1041 -0.0256  0.1599
13213TIP3    H161130   3.183   0.234   5.160 -1.1143 -0.0451  2.3219
13213TIP3    H261131   3.227   0.377   5.184 -0.0451 -0.0396  0.4437
13214TIP3   OH261132   3.693   2.670   6.007  0.4865  0.1885  0.0507
13214TIP3    H161133   3.603   2.693   5.985  0.2649  0.8664  1.5987
13214TIP3    H261134   3.723   2.619   5.932 -1.1181  0.1204 -0.5809
13215TIP3   OH261135   5.137   0.698  16.780  0.0450  0.8415  0.8119
13215TIP3    H161136   5.067   0.646  16.740 -0.0250  0.1809  1.7666
13215TIP3    H261137   5.204   0.704  16.712 -0.2249  0.0527  0.4637
13216TIP3   OH261138   4.095   6.144   1.970  0.7649 -0.1170  0.0302
13216TIP3    H161139   4.111   6.118   2.061  0.0687 -2.1814 -0.4131
13216TIP3    H261140   4.182   6.157   1.933  1.0742 -0.0360  0.7729
13217TIP3   OH261141   4.033   5.843  14.443 -0.8768 -0.2630  0.2347
13217TIP3    H161142   4.086   5.871  14.518  1.7517 -0.9030 -1.3064
13217TIP3    H261143   3.983   5.768  14.475 -0.5259  0.0804  1.6077
13218TIP3   OH261144   5.813   1.544   5.626  0.9320 -0.4221 -0.1963
13218TIP3    H161145   5.859   1.562   5.708 -2.0450  1.0539  1.2072
13218TIP3    H261146   5.777   1.456   5.638  2.0234 -0.9409 -0.6678
13219TIP3   OH261147   4.097   6.395   6.720 -0.5165  0.0052  0.0901
13219TIP3    H161148   4.031   6.450   6.678  0.8297 -0.0182 -2.1004
13219TIP3    H261149   4.101   6.316   6.665 -0.0366 -0.8308  1.3088
13220TIP3   OH261150   3.852   0.621   5.165 -0.1074 -0.1470  0.1675
13220TIP3    H161151   3.904   0.655   5.238 -1.1034  1.0193  0.3437
13220TIP3    H261152   3.905   0.638   5.087  0.0478  0.4778  0.4079
13221TIP3   OH261153   2.710   1.937  12.912  0.5026  0.5299 -0.0400
13221TIP3    H161154   2.624   1.901  12.935  1.2667 -1.6965 -0.5316
13221TIP3    H261155   2.714   2.021  12.958 -0.2052 -1.2955  3.5685
13222TIP3   OH261156   0.571   4.720   5.438  0.8086 -0.2573 -0.4961
13222TIP3    H161157   0.499   4.665   5.406  0.1983  1.2639 -1.7667
13222TIP3    H261158   0.544   4.747   5.525 -0.2547  0.4848 -1.0574
13223TIP3   OH261159   3.964   2.647  13.443 -0.4772 -0.1121  0.1077
13223TIP3    H161160   3.950   2.664  13.537 -0.9931  0.5337 -0.0841
13223TIP3    H261161   4.056   2.669  13.429 -1.0591  2.3676 -0.0795
13224TIP3   OH261162   1.242   2.283  16.911 -0.6154 -0.5314 -0.2621
13224TIP3    H161163   1.182   2.230  16.964 -0.3053 -0.1457  0.4744
13224TIP3    H261164   1.327   2.240  16.921 -0.0606  0.9308  1.5187
13225TIP3   OH261165   2.961   6.095  11.687 -0.1983  0.0122 -0.1491
13225TIP3    H161166   3.008   6.178  11.684 -1.6438  0.8038 -1.8920
13225TIP3    H261167   2.882   6.113  11.738 -1.2401  0.1186 -1.7608
13226TIP3   OH261168   6.251   0.204   4.982  0.6308  0.0016 -0.4885
13226TIP3    H161169   6.229   0.281   4.930 -0.4099 -0.2835 -0.4765
13226TIP3    H261170   6.210   0.221   5.067  1.8243  0.1995  0.0581
13227TIP3   OH261171   3.356   6.024  14.331  0.0704  0.4006  0.4009
13227TIP3    H161172   3.430   6.003  14.273 -1.1999 -1.7786 -0.5060
13227TIP3    H261173   3.366   5.963  14.405 -1.5220 -0.8206 -0.3645
13228TIP3   OH261174   3.136   4.765   2.156  0.3475 -0.1112 -0.2044
13228TIP3    H161175   3.076   4.697   2.126  0.2715  0.9405 -2.5485
13228TIP3    H261176   3.186   4.789   2.077  1.8618  1.0236  1.0729
13229TIP3   OH261177   2.848   1.841   1.283 -0.0197  0.1415  0.1576
13229TIP3    H161178   2.778   1.902   1.305 -0.3616 -0.7118  1.4712
13229TIP3    H261179   2.922   1.868   1.338 -0.8901 -2.0279  2.4625
13230TIP3   OH261180   2.158   2.985  15.650 -0.4280  0.1613 -0.2062
13230TIP3    H161181   2.189   2.915  15.708  1.0384 -0.0751 -1.2351
13230TIP3    H261182   2.194   3.065  15.688  1.2903 -0.0866 -1.2605
13231TIP3   OH261183   4.794   0.604   4.791 -0.5052 -0.3048  0.2558
13231TIP3    H161184   4.818   0.674   4.852  0.6274 -0.4641 -0.0007
13231TIP3    H261185   4.745   0.542   4.844  2.6101 -1.6741  1.6160
13232TIP3   OH261186   5.701   5.620  16.079  0.4607 -0.2630 -0.2423
13232TIP3    H161187   5.741   5.534  16.089  0.1066 -0.4407 -0.3364
13232TIP3    H261188   5.774   5.679  16.062  0.9786 -0.1285  2.2582
13233TIP3   OH261189   3.130   6.530  17.229  0.6828  0.1049  0.5065
13233TIP3    H161190   3.173   6.608  17.263  2.1671 -0.5094  0.0922
13233TIP3    H261191   3.187   6.501  17.158 -1.4308  0.3497 -1.3339
13234TIP3   OH261192   6.265   5.329  14.598  0.3090 -0.4271  0.6522
13234TIP3    H161193   6.312   5.383  14.535 -1.1347  0.9292  0.7020
13234TIP3    H261194   6.317   5.333  14.678  0.0039  1.2665  0.7873
13235TIP3   OH261195   5.162   2.616  17.210 -0.4771 -0.0415 -0.1137
13235TIP3    H161196   5.194   2.619  17.300 -1.2146 -0.5375  0.1651
13235TIP3    H261197   5.137   2.525  17.196 -0.9473  0.1617 -0.6119
13236TIP3   OH261198   3.389   3.478   0.419  0.0502  0.6287 -0.4200
13236TIP3    H161199   3.385   3.487   0.323 -1.4931  2.8714 -0.1828
13236TIP3    H261200   3.455   3.543   0.445 -0.3803  0.8370  0.1408
13237TIP3   OH261201   4.291   1.656  15.769 -0.1523 -0.0898 -0.1075
13237TIP3    H161202   4.198   1.635  15.769 -0.3233  0.6204  1.4200
13237TIP3    H261203   4.301   1.724  15.703 -0.9649  0.8803  0.7636
13238TIP3   OH261204   5.605   4.456   3.257 -0.2010 -0.3896 -0.3649
13238TIP3    H161205   5.519   4.482   3.290  0.0484  0.3472 -0.2853
13238TIP3    H261206   5.592   4.442   3.163  0.1785  2.4312 -0.8868
13239TIP3   OH261207   5.112   0.117  14.631  1.1769 -0.4675 -0.4608
13239TIP3    H161208   5.110   0.210  14.655  0.5639 -0.7949  0.8226
13239TIP3    H261209   5.191   0.083  14.673 -0.5695 -1.3235  2.2720
13240TIP3   OH261210   3.093   5.090   1.874  0.2021 -0.3126 -0.3580
13240TIP3    H161211   3.161   5.026   1.896 -1.2377 -2.2255 -1.2648
13240TIP3    H261212   3.139   5.158   1.826  2.2251  0.6566  2.8147
13241TIP3   OH261213   4.535   1.136   1.300  0.2801  0.5584  0.0431
13241TIP3    H161214   4.562   1.047   1.275  0.8658  0.6819  0.2209
13241TIP3    H261215   4.443   1.141   1.276  0.4244  0.1349 -0.6190
13242TIP3   OH261216   1.256   1.218   1.442 -0.1224  0.4103  0.5976
13242TIP3    H161217   1.284   1.190   1.355 -0.9599 -1.0653  0.7741
13242TIP3    H261218   1.337   1.227   1.492  0.3829  1.6455 -0.4477
13243TIP3   OH261219   1.651   2.397  13.036 -0.0857  0.1485 -0.0811
13243TIP3    H161220   1.569   2.440  13.062  2.1750  2.7980  3.0226
13243TIP3    H261221   1.689   2.457  12.972 -0.5446 -1.1218 -1.5786
13244TIP3   OH261222   2.306   1.454   3.178 -0.2784  0.2192  0.2745
13244TIP3    H161223   2.353   1.372   3.193  0.5697  0.8157  0.9168
13244TIP3    H261224   2.229   1.429   3.127  1.6814 -0.5261 -2.4012
13245TIP3   OH261225   3.595   0.170  14.908  0.0150  0.2295 -0.2645
13245TIP3    H161226   3.517   0.224  14.923 -0.9089 -1.3154  0.6332
13245TIP3    H261227   3.564   0.099  14.852  1.4691  1.1862 -2.3435
13246TIP3   OH261228   5.326   1.206   3.228 -0.1174  0.1113 -0.2073
13246TIP3    H161229   5.410   1.186   3.186 -0.1276  1.2203 -0.7948
13246TIP3    H261230   5.263   1.208   3.156 -0.7304 -1.1149  0.2846
13247TIP3   OH261231   6.057   2.564   6.787  0.1760 -0.1963 -0.2601
13247TIP3    H161232   6.061   2.578   6.882  1.1045 -0.8630 -0.1980
13247TIP3    H261233   6.060   2.652   6.750 -0.6350  0.0925  0.3400
13248TIP3   OH261234   5.793   2.543  13.857 -0.0782  0.5612 -0.5213
13248TIP3    H161235   5.835   2.544  13.943  1.6718  0.9950 -1.3568
13248TIP3    H261236   5.722   2.480  13.866 -0.2687  1.0113  1.3969
13249TIP3   OH261237   4.297   4.740  14.647  0.5286 -0.0598  0.8667
13249TIP3    H161238   4.213   4.754  14.603  0.4485 -1.3068  0.5862
13249TIP3    H261239   4.320   4.825  14.685  0.2089  0.8240 -0.9054
13250TIP3   OH261240   0.048   4.867   4.419  0.4776 -0.5214 -0.0804
13250TIP3    H161241   0.070   4.899   4.332  1.0755  1.6991  0.8595
13250TIP3    H261242   0.119   4.898   4.475 -0.1798 -1.4517  1.2994
13251TIP3   OH261243   0.659   2.660   2.112 -0.3438 -0.4494 -0.1125
13251TIP3    H161244   0.731   2.597   2.119  0.2619  0.2791  0.2203
13251TIP3    H261245   0.653   2.678   2.018 -2.7787 -3.6024 -0.6484
13252TIP3   OH261246   3.438   1.060  14.400  0.0552  0.2156  0.1666
13252TIP3    H161247   3.417   0.984  14.455  0.9015  0.2207  0.5099
13252TIP3    H261248   3.520   1.035  14.357  0.2848  0.8936  0.2130
13253TIP3   OH261249   3.255   5.318  10.888  0.4457 -0.1857  0.4649
13253TIP3    H161250   3.230   5.228  10.865  0.3298 -0.0779  0.1751
13253TIP3    H261251   3.180   5.350  10.939  0.4857 -0.2498  0.5645
13254TIP3   OH261252   0.048   6.716   4.136 -0.0158  0.2437  0.4711
13254TIP3    H161253   0.116   6.771   4.173 -1.0939  1.7343  0.2587
13254TIP3    H261254  -0.022   6.716   4.202 -0.8021  0.6806 -0.3505
13255TIP3   OH261255   5.545   5.663   4.550 -0.0637 -0.2708  0.4564
13255TIP3    H161256   5.510   5.669   4.461 -0.7705 -1.1679  0.6663
13255TIP3    H261257   5.553   5.754   4.579 -3.1020 -0.0415  0.7397
13256TIP3   OH261258   6.747   1.812   2.254  0.4155 -0.0769  0.0898
13256TIP3    H161259   6.653   1.797   2.261  0.4165  0.6884  2.1714
13256TIP3    H261260   6.759   1.902   2.286  1.8444 -0.1621 -0.1853
13257TIP3   OH261261   5.634   5.007  12.331 -0.1585  0.4751  0.1074
13257TIP3    H161262   5.614   4.924  12.287 -0.5122  0.3067  0.5739
13257TIP3    H261263   5.596   5.074  12.275  0.6281  0.3646 -0.5674
13258TIP3   OH261264   5.183   0.105   1.790 -0.4721  0.4530 -0.2708
13258TIP3    H161265   5.241   0.159   1.737 -0.4040  1.1902  0.5430
13258TIP3    H261266   5.096   0.140   1.773 -0.2538  1.9325  1.5514
13259TIP3   OH261267   6.388   1.504   2.162  0.5158  0.6272  0.2661
13259TIP3    H161268   6.328   1.559   2.111  1.1526  1.5409  0.4810
13259TIP3    H261269   6.395   1.423   2.112  0.6473  1.2744 -0.7811
13260TIP3   OH261270   3.108   6.146  13.257  0.2050  0.4605 -1.1985
13260TIP3    H161271   3.026   6.142  13.305  0.6961 -0.2448 -0.4013
13260TIP3    H261272   3.119   6.239  13.236 -1.3672  0.4098 -2.3391
13261TIP3   OH261273   5.095   5.859  11.271  0.2197 -0.2084 -0.1257
13261TIP3    H161274   5.182   5.844  11.309 -0.6112  0.8200  2.3392
13261TIP3    H261275   5.112   5.905  11.189  2.0496 -1.2365 -0.3496
13262TIP3   OH261276   5.072   2.866  10.975  0.4414 -0.2467 -0.6762
13262TIP3    H161277   5.121   2.940  11.010 -2.6973  1.4505  0.3699
13262TIP3    H261278   5.052   2.891  10.884 -1.3612  0.6463 -0.0622
13263TIP3   OH261279   2.218   4.683  12.062 -0.0897  0.0983 -0.1085
13263TIP3    H161280   2.124   4.697  12.053 -0.4173 -1.2598  0.9449
13263TIP3    H261281   2.257   4.735  11.992 -1.5771  1.2056 -0.1450
13264TIP3   OH261282   2.640   2.371  12.250  0.5043 -0.1843 -0.3917
13264TIP3    H161283   2.571   2.377  12.184  1.4382  1.0906 -1.2986
13264TIP3    H261284   2.710   2.323  12.207  0.2516 -1.3632  0.4813
13265TIP3   OH261285   4.857   0.274   1.356  0.1871  0.1933 -0.2743
13265TIP3    H161286   4.779   0.297   1.406  0.6938 -0.9650  1.0952
13265TIP3    H261287   4.830   0.198   1.303  0.1321  0.3639 -0.4929
13266TIP3   OH261288   2.202   4.647   5.650  0.4277  0.1299 -0.1125
13266TIP3    H161289   2.193   4.553   5.635 -0.1559  0.0080  0.9863
13266TIP3    H261290   2.255   4.678   5.576  0.6614 -1.0630 -0.4520
13267TIP3   OH261291   2.507   1.536   1.282 -0.5088 -0.4197 -0.2983
13267TIP3    H161292   2.574   1.586   1.329  2.6082 -3.4329 -1.2985
13267TIP3    H261293   2.429   1.544   1.336  1.4207  0.8931  2.4546
13268TIP3   OH261294   0.630   2.347   5.959 -0.1528  0.6090  0.2391
13268TIP3    H161295   0.644   2.403   6.034  0.2030  0.2970  0.4064
13268TIP3    H261296   0.655   2.259   5.989  1.4935  0.7269 -0.6970
13269TIP3   OH261297   0.067   4.666  16.251 -0.0557 -0.0841  0.3999
13269TIP3    H161298   0.054   4.572  16.265 -1.0968  0.1488  1.0600
13269TIP3    H261299  -0.021   4.701  16.238  0.2964  0.8570  0.4915
13270TIP3   OH261300   6.222   1.024   2.897  0.5294  0.4829 -0.2635
13270TIP3    H161301   6.271   1.049   2.819  2.0835 -0.3189  0.4307
13270TIP3    H261302   6.210   0.929   2.888  0.6072  0.4101  0.4242
13271TIP3   OH261303   2.426   4.848   0.128  0.0098 -0.7511 -0.2321
13271TIP3    H161304   2.488   4.896   0.182  0.1166 -1.5480  0.3677
13271TIP3    H261305   2.419   4.762   0.169 -0.7513 -1.0027 -0.8508
13272TIP3   OH261306   2.543   5.437   3.168  0.1243 -0.2002 -0.1527
13272TIP3    H161307   2.587   5.361   3.129  0.2744  0.3663 -1.0939
13272TIP3    H261308   2.608   5.507   3.166 -0.6731  0.5154 -1.1463
13273TIP3   OH261309   0.746   5.726  17.035 -0.3687 -0.1898 -0.1258
13273TIP3    H161310   0.693   5.759  17.108 -1.5725 -0.2164 -0.9770
13273TIP3    H261311   0.744   5.631  17.045 -0.4824 -0.1907 -0.1490
13274TIP3   OH261312   1.440   6.138   5.994 -0.2039  0.0789  0.2800
13274TIP3    H161313   1.386   6.217   5.996 -1.4739 -0.7744  2.9041
13274TIP3    H261314   1.397   6.082   5.930 -1.8227 -0.1322  1.5050
13275TIP3   OH261315   6.330   3.017   6.785 -0.1383  0.5230  0.8866
13275TIP3    H161316   6.287   3.034   6.701  0.8247  0.2073  0.3272
13275TIP3    H261317   6.423   3.027   6.767  0.0103  1.7579  2.2296
13276TIP3   OH261318   1.368   3.082   1.383 -0.0172  0.1678 -0.5754
13276TIP3    H161319   1.284   3.055   1.348  0.9162 -2.1607 -1.1104
13276TIP3    H261320   1.368   3.178   1.376 -2.4061  0.1598 -0.9618
13277TIP3   OH261321   5.364   6.647  12.478 -0.3572  0.3286  0.7639
13277TIP3    H161322   5.335   6.684  12.395 -3.0911 -3.9653 -0.3194
13277TIP3    H261323   5.458   6.632  12.466 -0.7058 -0.1890 -1.5318
13278TIP3   OH261324   5.912   6.135  12.175  0.0048 -0.9707 -0.3240
13278TIP3    H161325   5.847   6.081  12.220 -0.3533  0.2077  0.6159
13278TIP3    H261326   5.918   6.098  12.087 -0.2796 -2.4853  0.2856
13279TIP3   OH261327   5.734   5.622  14.080 -0.2808  0.3493 -0.3794
13279TIP3    H161328   5.669   5.663  14.137 -0.9650 -0.7596 -0.3544
13279TIP3    H261329   5.796   5.580  14.141  1.8554  3.4145 -0.3089
13280TIP3   OH261330   0.675   1.013   2.016  0.2721  0.3092 -0.0834
13280TIP3    H161331   0.728   1.061   1.952  1.8455 -0.8140  0.3597
13280TIP3    H261332   0.739   0.976   2.078 -1.1395  0.3649  1.4461
13281TIP3   OH261333   4.944   1.915  12.841  1.0299 -0.4959 -0.1392
13281TIP3    H161334   5.017   1.911  12.904  0.8736 -0.1974  0.0631
13281TIP3    H261335   4.909   1.826  12.840 -0.1096 -0.0854  1.5616
13282TIP3   OH261336   0.862   2.088  16.678  0.5933  0.2208 -0.4258
13282TIP3    H161337   0.805   2.014  16.656 -0.0838  1.1600 -1.8777
13282TIP3    H261338   0.950   2.052  16.673  0.3719 -0.0703 -2.9351
13283TIP3   OH261339   5.472   3.684  12.686 -0.0910 -0.3067  0.0754
13283TIP3    H161340   5.501   3.651  12.771 -1.7552 -1.0429  0.3885
13283TIP3    H261341   5.376   3.680  12.691 -0.2412  1.7631 -1.0197
13284TIP3   OH261342   1.353   6.563  17.174 -0.5522 -0.1497  0.1550
13284TIP3    H161343   1.355   6.627  17.103  1.4276  0.1901  0.4918
13284TIP3    H261344   1.330   6.480  17.132  1.3096 -0.0986 -0.9860
13285TIP3   OH261345   4.807   6.749  12.310 -0.3247 -0.1051  0.0917
13285TIP3    H161346   4.712   6.746  12.324 -0.1890  0.6101  1.2089
13285TIP3    H261347   4.844   6.702  12.385  0.1550 -1.5903 -1.0515
13286TIP3   OH261348   0.749   4.654  15.873  0.3131 -0.4839 -0.3372
13286TIP3    H161349   0.798   4.711  15.814  0.3685 -1.1149 -0.9058
13286TIP3    H261350   0.673   4.706  15.899  0.2987 -0.1957 -0.9499
13287TIP3   OH261351   0.624   5.410   5.653 -0.0966  0.1394  0.1298
13287TIP3    H161352   0.584   5.362   5.725 -0.2018 -0.9090 -0.5982
13287TIP3    H261353   0.570   5.388   5.577 -1.3441  3.0182  0.1190
13288TIP3   OH261354   0.061   2.707  11.133  0.5919 -0.4224 -0.1953
13288TIP3    H161355   0.111   2.784  11.105 -0.3331 -0.3710 -1.7479
13288TIP3    H261356   0.125   2.652  11.178  1.6301  0.5018 -0.5056
13289TIP3   OH261357   6.132   3.227  13.446 -0.4687  0.1918 -0.6038
13289TIP3    H161358   6.216   3.272  13.453 -0.0527 -0.4706 -1.2549
13289TIP3    H261359   6.067   3.297  13.453  0.1205  0.6314  0.5021
13290TIP3   OH261360   3.317   3.024  13.535  0.8536 -0.0325  0.5162
13290TIP3    H161361   3.386   3.073  13.579 -0.2932  0.9346  1.2879
13290TIP3    H261362   3.329   2.934  13.563  1.6150  0.1838  0.8913
13291TIP3   OH261363   0.988   3.053   4.098  0.1822  0.3817  0.1182
13291TIP3    H161364   1.013   2.960   4.104  1.1686  0.6508  0.2223
13291TIP3    H261365   1.039   3.095   4.167  1.0849  1.2876 -1.0903
13292TIP3   OH261366   1.654   2.599  15.772 -0.2999 -0.1153  0.1421
13292TIP3    H161367   1.723   2.661  15.798  0.6115 -0.9071 -0.3672
13292TIP3    H261368   1.573   2.638  15.806  0.3652  0.9432  0.5419
13293TIP3   OH261369   5.082   3.641   2.105 -0.2892  0.2180 -0.4627
13293TIP3    H161370   5.034   3.559   2.094  1.2517 -0.6815 -0.6934
13293TIP3    H261371   5.064   3.667   2.196  0.0859 -0.9653 -0.0350
13294TIP3   OH261372   3.178   2.563   2.698  0.2805 -0.7980  0.7330
13294TIP3    H161373   3.192   2.640   2.643  1.5993 -0.3807  1.6134
13294TIP3    H261374   3.257   2.510   2.684  0.1887 -1.1350  1.4788
13295TIP3   OH261375   2.914   1.366  12.902  0.7151  0.3933  0.2180
13295TIP3    H161376   2.901   1.297  12.968 -1.8893 -0.2498 -0.8909
13295TIP3    H261377   2.874   1.444  12.941  1.9577  0.7933  0.6878
13296TIP3   OH261378   4.351   2.303  15.128  0.5201 -0.6434  0.0283
13296TIP3    H161379   4.301   2.222  15.117 -0.1731 -0.2889  0.5939
13296TIP3    H261380   4.343   2.325  15.220  1.1974 -0.2366 -0.0020
13297TIP3   OH261381   2.813   4.081  10.880 -0.3440  0.3557 -0.2470
13297TIP3    H161382   2.794   4.175  10.880  1.6988  0.7948 -0.5603
13297TIP3    H261383   2.823   4.059  10.788 -2.7827 -0.6128 -0.3051
13298TIP3   OH261384   2.298   0.894  10.848  0.4435 -0.1945 -0.6615
13298TIP3    H161385   2.328   0.822  10.904  0.5174  2.3821  2.7728
13298TIP3    H261386   2.379   0.933  10.814  0.5531  0.0667 -0.1164
13299TIP3   OH261387   2.398   4.866   3.668  0.6919  0.0364 -0.4129
13299TIP3    H161388   2.427   4.855   3.577  1.1644 -0.8968 -0.1495
13299TIP3    H261389   2.478   4.876   3.718  0.4060  1.2365 -0.1709
13300TIP3   OH261390   4.961   1.948  15.544  0.0617  0.1582  0.1341
13300TIP3    H161391   4.989   2.037  15.566  0.7485 -0.3752  1.4860
13300TIP3    H261392   4.935   1.910  15.628 -1.6271 -0.4515 -0.6435
13301TIP3   OH261393   0.863   5.988   2.159 -0.4400 -0.5502  0.1054
13301TIP3    H161394   0.806   6.042   2.105 -1.3708 -1.2839  0.3408
13301TIP3    H261395   0.946   6.035   2.161 -1.3198  1.0194  0.5646
13302TIP3   OH261396   5.685   6.518  14.434 -0.0509  0.2175  0.1481
13302TIP3    H161397   5.769   6.475  14.418  0.0421 -0.0986  1.4352
13302TIP3    H261398   5.625   6.478  14.371  0.8485  0.7611 -1.0840
13303TIP3   OH261399   5.167   5.177  17.168  0.0717  0.3029 -0.0137
13303TIP3    H161400   5.188   5.231  17.092  1.8882  1.6016  1.3719
13303TIP3    H261401   5.071   5.184  17.176  0.2550  3.2874  0.0998
13304TIP3   OH261402   5.713   3.129   3.097  0.3287 -0.1616  0.1261
13304TIP3    H161403   5.685   3.211   3.138 -0.0174  0.5043 -1.4284
13304TIP3    H261404   5.635   3.094   3.056  0.4544 -1.3363  0.8540
13305TIP3   OH261405   5.246   2.145  15.992  0.4140 -0.0088 -0.1727
13305TIP3    H161406   5.224   2.105  15.908 -2.2808  2.1154 -0.5375
13305TIP3    H261407   5.322   2.200  15.973 -0.2699  0.5802 -1.3129
13306TIP3   OH261408   5.180   4.946  12.220 -0.4113  0.5292  0.3437
13306TIP3    H161409   5.226   5.029  12.206  1.8674 -0.8094 -0.3858
13306TIP3    H261410   5.190   4.928  12.313 -1.7469  1.5213  0.6970
13307TIP3   OH261411   1.451   2.840   1.266  0.1922  1.0303 -0.3237
13307TIP3    H161412   1.415   2.927   1.286  0.9448  1.7814 -2.0691
13307TIP3    H261413   1.382   2.779   1.294 -0.3671  2.1759  0.8887
13308TIP3   OH261414   6.095   6.647   2.349 -0.0041  0.4265  0.3558
13308TIP3    H161415   6.073   6.654   2.256 -0.6000  0.3376  0.4871
13308TIP3    H261416   6.170   6.705   2.360  0.7345 -0.3534 -0.3967
13309TIP3   OH261417   0.168   5.711   3.046 -0.6581  0.4449  0.2029
13309TIP3    H161418   0.169   5.744   2.956  0.5292 -1.2230 -0.4216
13309TIP3    H261419   0.142   5.619   3.037  1.6896 -0.3567  1.3243
13310TIP3   OH261420   0.840   4.138   1.810  0.3068  0.2902 -0.0092
13310TIP3    H161421   0.896   4.122   1.885 -0.0221  0.4144  0.2631
13310TIP3    H261422   0.751   4.123   1.842  0.1600  0.4070 -0.3539
13311TIP3   OH261423   0.408   4.945  16.298 -0.1110 -0.3721  0.6100
13311TIP3    H161424   0.496   4.909  16.310 -0.6243 -2.0725 -0.4570
13311TIP3    H261425   0.422   5.026  16.248  0.8022 -1.0980 -0.3557
13312TIP3   OH261426   4.329   5.864   0.954  0.1506 -0.4119 -0.0978
13312TIP3    H161427   4.266   5.924   0.995  0.2655 -0.4939  0.2019
13312TIP3    H261428   4.376   5.919   0.891  0.0169 -0.2673 -0.0738
13313TIP3   OH261429   0.862   4.413   3.921 -0.1089 -0.5811  0.8651
13313TIP3    H161430   0.953   4.441   3.911 -1.0082  2.0799 -0.5251
13313TIP3    H261431   0.825   4.421   3.833 -2.3440  0.8626  1.9016
13314TIP3   OH261432   5.556   0.568   2.060 -0.2768 -0.2363 -0.5227
13314TIP3    H161433   5.650   0.550   2.065 -0.2771 -0.6102 -1.6786
13314TIP3    H261434   5.524   0.506   1.995 -1.0769  0.8914 -1.2084
13315TIP3   OH261435   0.524   1.601   5.416 -0.0497 -0.3315  0.3208
13315TIP3    H161436   0.566   1.661   5.354  4.5489 -2.0733  1.4898
13315TIP3    H261437   0.513   1.653   5.496  0.5445  0.0172  0.1844
13316TIP3   OH261438   5.885   5.132   0.569  0.5397  0.0066  0.2289
13316TIP3    H161439   5.896   5.037   0.578 -0.1939 -0.1429 -0.3861
13316TIP3    H261440   5.958   5.159   0.514  0.5583 -0.2600  0.1186
13317TIP3   OH261441   4.805   2.054   4.075  0.1519  0.8868  0.2406
13317TIP3    H161442   4.720   2.059   4.119  0.5771 -0.6168  1.2995
13317TIP3    H261443   4.796   1.980   4.014  1.1569 -0.2345  1.4260
13318TIP3   OH261444   3.999   2.321  13.425 -0.1032  0.5811 -0.1183
13318TIP3    H161445   4.092   2.315  13.446 -0.3235 -0.7720  0.5062
13318TIP3    H261446   3.984   2.415  13.411  0.8596  1.0967  2.0790
13319TIP3   OH261447   6.636   6.066  12.287 -0.1252  0.3603 -0.1368
13319TIP3    H161448   6.688   6.130  12.239  2.0762 -0.2770  1.3189
13319TIP3    H261449   6.559   6.116  12.317  1.2141  2.1644  0.3837
13320TIP3   OH261450   5.780   6.320  13.064 -0.3869 -0.3106 -0.6306
13320TIP3    H161451   5.819   6.306  13.151  1.1186 -1.9758 -1.5281
13320TIP3    H261452   5.778   6.233  13.025  3.0591  0.9943 -3.9560
13321TIP3   OH261453   2.057   4.841  17.259 -0.3847 -0.3397 -0.2939
13321TIP3    H161454   2.115   4.913  17.236 -1.0458  0.9195  1.9191
13321TIP3    H261455   1.969   4.874  17.241 -0.6116 -1.2353 -0.9133
13322TIP3   OH261456   6.489   1.540   3.063 -0.0170 -0.1313 -0.2884
13322TIP3    H161457   6.441   1.591   2.998  1.3677 -0.5034 -1.6336
13322TIP3    H261458   6.528   1.468   3.014  0.2425 -0.9945  1.1330
13323TIP3   OH261459   5.223   2.788  14.752 -0.0331  0.1484  0.0416
13323TIP3    H161460   5.168   2.715  14.725 -0.0556  0.0870  0.2532
13323TIP3    H261461   5.238   2.838  14.672 -1.1294  0.6505  0.1280
13324TIP3   OH261462   1.448   0.016   3.028 -0.4811 -0.3798 -0.7215
13324TIP3    H161463   1.356   0.010   3.054  0.3910 -2.0925  2.1766
13324TIP3    H261464   1.475   0.103   3.055 -1.8436  1.0401 -3.7602
13325TIP3   OH261465   4.559   3.246   3.513 -0.0486  0.3294  0.3201
13325TIP3    H161466   4.564   3.229   3.419 -1.4206 -1.5063  0.5651
13325TIP3    H261467   4.475   3.290   3.526 -0.0289  0.2482  0.7454
13326TIP3   OH261468   5.758   2.793   1.174  0.0705 -0.6048 -0.7529
13326TIP3    H161469   5.746   2.873   1.122 -1.4517 -1.0819 -1.1734
13326TIP3    H261470   5.798   2.730   1.114  2.9066  0.3462  0.0647
13327TIP3   OH261471   2.222   6.774   2.244  0.4210 -0.5454 -0.3124
13327TIP3    H161472   2.179   6.733   2.319  0.7549 -0.6728 -0.1887
13327TIP3    H261473   2.151   6.815   2.195  0.3312  0.6415  0.7535
13328TIP3   OH261474   1.201   4.554   2.889  0.1189  0.5954 -0.7405
13328TIP3    H161475   1.172   4.467   2.858 -0.2606  0.6249 -0.4711
13328TIP3    H261476   1.174   4.556   2.981  2.1319  0.1173 -0.1253
13329TIP3   OH261477   6.692   5.813  16.085  0.1221 -1.1743 -0.2647
13329TIP3    H161478   6.755   5.767  16.030  3.3196  1.7642  0.7233
13329TIP3    H261479   6.728   5.806  16.174  1.1469  3.6131 -0.1559
13330TIP3   OH261480   3.036   3.280  12.802 -0.1222 -0.0748  0.4392
13330TIP3    H161481   3.021   3.324  12.718 -0.4999  0.7232  0.9227
13330TIP3    H261482   3.008   3.189  12.787 -0.0321  0.0262 -0.3415
13331TIP3   OH261483   6.119   0.492   3.269 -0.0424  0.9209 -0.3237
13331TIP3    H161484   6.140   0.484   3.176 -0.9089  1.4755 -0.5714
13331TIP3    H261485   6.200   0.524   3.309  0.3860  0.5023 -0.8578
13332TIP3   OH261486   4.918   6.778  10.991 -0.0430  0.2922 -0.3344
13332TIP3    H161487   4.838   6.784  10.940  0.0366 -0.1839 -0.5103
13332TIP3    H261488   4.943   6.686  10.988 -0.6584  0.0376  1.5044
13333TIP3   OH261489   2.288   5.095   3.756  0.4436  0.3031  0.1802
13333TIP3    H161490   2.338   5.019   3.729 -0.0726  0.1797 -0.4344
13333TIP3    H261491   2.353   5.158   3.786  0.7661 -1.2942  3.0599
13334TIP3   OH261492   1.768   2.467   6.086 -0.6289 -0.7585 -0.3386
13334TIP3    H161493   1.803   2.420   6.010 -0.0378  1.2525 -1.3467
13334TIP3    H261494   1.839   2.525   6.113 -1.7913  0.5269  0.0417
13335TIP3   OH261495   1.672   5.822  15.539 -0.0929  0.5801 -0.4034
13335TIP3    H161496   1.688   5.821  15.444 -0.6253  0.8040 -0.5005
13335TIP3    H261497   1.729   5.753  15.574 -1.4738 -1.0045 -1.1552
13336TIP3   OH261498   4.362   4.893  11.305  1.1232 -0.2310  0.5017
13336TIP3    H161499   4.346   4.953  11.378  0.7122 -1.3773  1.3731
13336TIP3    H261500   4.380   4.950  11.230  0.8595  0.9699  1.3398
13337TIP3   OH261501   1.690   1.040   4.364 -0.1906  0.2056  0.0407
13337TIP3    H161502   1.656   1.105   4.427 -0.6724 -0.9791  1.0302
13337TIP3    H261503   1.718   1.092   4.289  0.1391  1.6388  1.1238
13338TIP3   OH261504   5.215   1.556   1.687 -0.0370 -0.2689 -0.5323
13338TIP3    H161505   5.174   1.571   1.602 -0.3709 -0.2541 -0.3726
13338TIP3    H261506   5.289   1.498   1.669 -0.4241 -0.6964 -0.7567
13339TIP3   OH261507   6.131   5.309   2.978  0.1298  0.1670  0.2193
13339TIP3    H161508   6.088   5.261   3.049 -0.6460 -0.3409 -0.5630
13339TIP3    H261509   6.206   5.254   2.954 -0.0300 -0.0286  0.1647
13340TIP3   OH261510   0.858   0.047  12.640  0.0428  0.5942 -0.2925
13340TIP3    H161511   0.831   0.132  12.605  1.5649  1.3906  0.4163
13340TIP3    H261512   0.802   0.034  12.717 -0.1919  0.9398 -0.4027
13341TIP3   OH261513   3.766   5.134   4.493 -0.6754 -0.1662  0.5137
13341TIP3    H161514   3.733   5.223   4.507 -0.3388  0.0272  0.0988
13341TIP3    H261515   3.707   5.096   4.427  0.5805  0.5660 -1.0637
13342TIP3   OH261516   4.552   4.748  16.262  0.4481 -0.1237  0.2540
13342TIP3    H161517   4.555   4.818  16.197 -0.3832 -0.2443  0.0731
13342TIP3    H261518   4.508   4.788  16.337 -1.3127 -0.8487 -0.3656
13343TIP3   OH261519   2.561   5.466   5.965 -0.2128 -0.1687 -0.3266
13343TIP3    H161520   2.621   5.522   6.014 -0.0521 -0.3266 -0.3417
13343TIP3    H261521   2.512   5.418   6.031 -0.0483 -0.3261 -0.3166
13344TIP3   OH261522   3.940   5.502   3.690  0.4139  0.4550 -0.1914
13344TIP3    H161523   3.965   5.437   3.624 -1.1081  1.4968 -1.8241
13344TIP3    H261524   3.960   5.586   3.649 -3.6541  1.2514 -0.6999
13345TIP3   OH261525   0.850   3.024  12.687  0.4297 -0.1238  0.0809
13345TIP3    H161526   0.772   2.974  12.710  1.1215 -1.2738 -0.0458
13345TIP3    H261527   0.875   2.992  12.600  0.0040  1.5232 -0.6775
13346TIP3   OH261528   0.934   3.646  14.845  0.3303  0.1645 -0.6967
13346TIP3    H161529   0.866   3.633  14.911  0.9644 -0.4976 -0.1633
13346TIP3    H261530   0.961   3.737  14.856  0.8691 -0.1201  0.3729
13347TIP3   OH261531   3.091   0.842  15.211 -0.6742  0.3661 -0.4679
13347TIP3    H161532   3.129   0.755  15.225  0.0187  0.7780  0.2654
13347TIP3    H261533   3.084   0.850  15.115  3.8965  1.4274 -0.8339
13348TIP3   OH261534   0.607   0.677   2.122  0.0188 -0.4530  0.2258
13348TIP3    H161535   0.618   0.620   2.197 -0.5376  0.2436  0.8467
13348TIP3    H261536   0.695   0.690   2.088  0.3556 -0.1953  1.1876
13349TIP3   OH261537   0.389   3.104   5.084  0.3902 -0.1384 -0.3502
13349TIP3    H161538   0.479   3.113   5.116 -0.9588 -1.6538  4.3569
13349TIP3    H261539   0.384   3.014   5.051  0.0694 -0.9072  1.6659
13350TIP3   OH261540   4.253   0.042   1.660  0.0440 -0.1099 -0.1930
13350TIP3    H161541   4.224   0.099   1.589 -0.0080  1.8093  1.3139
13350TIP3    H261542   4.186  -0.027   1.664 -0.7416  0.5931 -1.0401
13351TIP3   OH261543   5.668   3.056  14.034  0.2253  0.4402  0.2000
13351TIP3    H161544   5.576   3.061  14.060  0.5227  0.6482  1.2758
13351TIP3    H261545   5.684   2.963  14.021  0.1446  0.2806  1.1480
13352TIP3   OH261546   0.355   3.415   0.623 -0.2333 -0.1091 -0.2717
13352TIP3    H161547   0.389   3.370   0.546 -1.0503  0.7698 -1.1731
13352TIP3    H261548   0.329   3.345   0.683  1.2609 -0.7892 -0.4182
13353TIP3   OH261549   5.980   6.561   2.649 -0.2590 -0.0244  0.2507
13353TIP3    H161550   5.927   6.493   2.608  0.2596 -0.3289  0.0757
13353TIP3    H261551   5.951   6.642   2.608  0.6245 -0.3857 -1.1232
13354TIP3   OH261552   4.962   6.544   5.153 -0.4342 -0.5194  0.3164
13354TIP3    H161553   5.001   6.585   5.230  0.7962  0.8355 -1.0000
13354TIP3    H261554   4.965   6.450   5.172 -2.1965 -0.1242  2.8490
13355TIP3   OH261555   3.191   4.977   5.291  0.3043 -0.0303  0.4393
13355TIP3    H161556   3.261   5.040   5.278  0.4813 -0.2618  0.2697
13355TIP3    H261557   3.228   4.893   5.264 -0.4370  0.0418 -0.8279
13356TIP3   OH261558   1.458   5.742   4.371  0.1583  0.0851 -0.1626
13356TIP3    H161559   1.453   5.800   4.295  3.1625 -0.3997 -0.8168
13356TIP3    H261560   1.411   5.789   4.440  2.1401  3.2019 -0.7976
13357TIP3   OH261561   1.303   1.303  16.913 -0.2359 -0.0550 -0.3972
13357TIP3    H161562   1.221   1.328  16.955 -0.2420 -2.0629  0.8581
13357TIP3    H261563   1.281   1.229  16.857  0.9945 -1.8508  1.4018
13358TIP3   OH261564   0.735   2.100   4.828  0.1063 -0.5579  0.4449
13358TIP3    H161565   0.725   2.167   4.760 -0.5399  0.6778  1.7499
13358TIP3    H261566   0.654   2.103   4.877  0.2749 -1.9762  0.8158
13359TIP3   OH261567   5.553   5.446  17.065  0.6196  0.6740 -0.4531
13359TIP3    H161568   5.564   5.355  17.038  1.4321  0.7230 -0.2950
13359TIP3    H261569   5.550   5.444  17.160 -0.8803  0.6515 -0.4942
13360TIP3   OH261570   2.955   5.481   4.442  0.2271 -0.1588 -0.2802
13360TIP3    H161571   2.890   5.519   4.501 -0.0195 -0.4139 -0.3850
13360TIP3    H261572   3.016   5.434   4.500  0.7870  0.7718 -0.1164
13361TIP3   OH261573   2.235   6.141   0.408  0.3955  0.3069  0.3231
13361TIP3    H161574   2.186   6.088   0.471  0.7049  0.3900  0.6359
13361TIP3    H261575   2.176   6.150   0.333  0.4232 -0.6768  0.1717
13362TIP3   OH261576   5.674   2.835  12.112  0.2934  0.1427  0.3404
13362TIP3    H161577   5.641   2.919  12.145  0.3796 -0.0499  0.9096
13362TIP3    H261578   5.747   2.814  12.169 -0.2906 -0.7655  0.7544
13363TIP3   OH261579   2.926   4.412   0.898  0.1188 -0.3394  0.2971
13363TIP3    H161580   2.850   4.363   0.866  0.4701 -0.9892  0.4613
13363TIP3    H261581   2.888   4.477   0.957 -0.3420 -0.4771  0.1581
13364TIP3   OH261582   4.449   1.991   5.737  0.3119 -0.6091  0.3411
13364TIP3    H161583   4.361   1.958   5.754  0.5406 -0.6108  1.5853
13364TIP3    H261584   4.450   2.078   5.777  0.6235 -0.2976 -0.3529
13365TIP3   OH261585   1.837   4.429  11.352  0.3927 -0.1299  0.0769
13365TIP3    H161586   1.841   4.445  11.257 -0.4946  0.8246  0.1938
13365TIP3    H261587   1.878   4.343  11.363 -0.7191 -0.8566 -1.3310
13366TIP3   OH261588   5.209   1.559  12.668 -0.3104  0.0661 -0.4245
13366TIP3    H161589   5.222   1.654  12.678  1.5708 -0.3415  1.5305
13366TIP3    H261590   5.270   1.534  12.599  0.0057  0.1424 -0.1814
13367TIP3   OH261591   1.236   3.710  15.003  0.0706  0.3911  0.3102
13367TIP3    H161592   1.185   3.777  14.957  1.0458  0.9029 -0.0277
13367TIP3    H261593   1.291   3.759  15.064 -0.0976 -0.1854  0.9299
13368TIP3   OH261594   2.706   3.502   5.111 -0.0411 -0.2844  0.1062
13368TIP3    H161595   2.729   3.594   5.102  1.3156 -0.4096  1.9110
13368TIP3    H261596   2.636   3.501   5.176  0.2068 -0.5478  0.3725
13369TIP3   OH261597   0.432   6.806  16.944  0.0367 -0.1427 -0.4784
13369TIP3    H161598   0.427   6.902  16.946 -3.0966 -0.2744 -0.2853
13369TIP3    H261599   0.453   6.782  17.034  1.6336  0.3606 -0.6888
13370TIP3   OH261600   3.887   6.616   3.194 -0.1187 -0.2150  0.0838
13370TIP3    H161601   3.898   6.580   3.106  0.8161 -0.8461  0.4587
13370TIP3    H261602   3.802   6.660   3.191 -1.3389 -2.5333 -0.3680
13371TIP3   OH261603   1.444   3.218  14.094  0.3657  0.4641 -0.7314
13371TIP3    H161604   1.367   3.258  14.134  0.1477 -2.0515  1.5091
13371TIP3    H261605   1.493   3.292  14.057 -0.8223  2.6141  1.7939
13372TIP3   OH261606   5.187   6.529   1.299  0.2295 -0.1554  0.1484
13372TIP3    H161607   5.151   6.511   1.212 -0.1122  1.1478  0.0112
13372TIP3    H261608   5.166   6.451   1.350  0.4553 -0.9400 -0.9480
13373TIP3   OH261609   2.895   5.934   0.453  0.1104  0.2164  0.8482
13373TIP3    H161610   2.903   5.850   0.497  0.6062  0.9459  2.1779
13373TIP3    H261611   2.883   5.997   0.524 -1.0246  1.1733 -0.1758
13374TIP3   OH261612   4.002   1.175  11.590  0.0088  0.4017 -0.1725
13374TIP3    H161613   3.974   1.185  11.499  0.4107  1.9337 -0.1485
13374TIP3    H261614   3.922   1.189  11.641 -0.0211  0.5739 -0.2649
13375TIP3   OH261615   3.871   3.607   4.829 -0.6190 -0.3656 -0.4064
13375TIP3    H161616   3.825   3.544   4.884 -0.8340  0.9825  0.9865
13375TIP3    H261617   3.843   3.692   4.861  1.1996  0.4692 -0.9468
13376TIP3   OH261618   3.274   6.508  10.521  0.5194  0.4141 -0.0790
13376TIP3    H161619   3.187   6.541  10.543 -0.0163 -0.5090 -0.7616
13376TIP3    H261620   3.259   6.447  10.449  1.7298  0.2234 -0.1827
13377TIP3   OH261621   5.693   6.768  13.706  0.1244  0.6749 -0.3964
13377TIP3    H161622   5.637   6.701  13.745 -0.5968  0.7129 -1.3521
13377TIP3    H261623   5.635   6.844  13.694  0.7189  1.1777 -0.1350
13378TIP3   OH261624   2.416   5.169  14.369  0.0344 -0.5327  0.6402
13378TIP3    H161625   2.476   5.223  14.421  0.4129  2.1744 -2.4272
13378TIP3    H261626   2.368   5.232  14.314 -2.4217 -3.0137 -0.2066
13379TIP3   OH261627   2.672   6.215  16.251 -0.8879 -0.0478  0.3183
13379TIP3    H161628   2.576   6.222  16.246 -0.8048 -0.0833 -2.4426
13379TIP3    H261629   2.702   6.305  16.263 -1.2181  0.1914 -0.5665
13380TIP3   OH261630   2.079   6.808   6.008  0.0937  0.4932  0.1282
13380TIP3    H161631   2.130   6.728   6.025 -0.6982 -0.4419 -1.7467
13380TIP3    H261632   1.992   6.788   6.041 -0.3116  0.2627 -1.0392
13381TIP3   OH261633   2.676   6.309  15.912  0.0973  0.2283  0.1612
13381TIP3    H161634   2.688   6.215  15.916 -0.7968  0.0688 -0.7795
13381TIP3    H261635   2.641   6.326  15.824  1.5753  1.5841 -0.2100
13382TIP3   OH261636   0.014   3.358   4.200  0.1186 -0.1559  0.1453
13382TIP3    H161637   0.088   3.308   4.233  0.6871  0.2506 -0.4916
13382TIP3    H261638  -0.028   3.299   4.137 -1.1449 -1.0404  1.8113
13383TIP3   OH261639   0.374   2.154   2.501  0.5929 -0.1366  0.5973
13383TIP3    H161640   0.369   2.076   2.557  0.5904 -0.3905  0.2419
13383TIP3    H261641   0.345   2.124   2.415  2.7396 -0.2749 -0.1065
13384TIP3   OH261642   5.152   6.769  12.594 -0.3746  0.5041  0.1776
13384TIP3    H161643   5.200   6.758  12.677 -0.8681 -1.0038  0.2807
13384TIP3    H261644   5.211   6.731  12.528 -0.2993  1.0336 -0.0589
13385TIP3   OH261645   2.762   2.630  15.804 -0.0868 -0.1631 -0.7007
13385TIP3    H161646   2.814   2.555  15.833  2.5408  1.0606 -2.1279
13385TIP3    H261647   2.714   2.597  15.728  0.9171 -0.4438 -1.2153
13386TIP3   OH261648   3.413   1.134  12.324 -0.7032 -0.6799 -0.0965
13386TIP3    H161649   3.363   1.104  12.399 -0.4385 -1.0852 -0.0848
13386TIP3    H261650   3.387   1.226  12.313 -0.7284 -0.6153  0.4937
13387TIP3   OH261651   2.594   5.403  11.267 -0.3214  0.0391  0.5781
13387TIP3    H161652   2.662   5.342  11.238 -0.3221  0.5270 -0.4751
13387TIP3    H261653   2.591   5.470  11.199  0.4707  1.8510  2.2555
13388TIP3   OH261654   0.402   4.872  16.749 -0.1566  0.1257  0.6277
13388TIP3    H161655   0.452   4.810  16.695  0.6515  1.2219  0.0834
13388TIP3    H261656   0.459   4.891  16.823 -0.2435  0.5114  0.5969
13389TIP3   OH261657   4.443   0.192  16.371 -0.6518  0.0897 -0.5037
13389TIP3    H161658   4.476   0.103  16.381 -1.2216 -0.3044 -2.0545
13389TIP3    H261659   4.446   0.228  16.460  0.4078 -1.1709 -0.0012
13390TIP3   OH261660   1.456   1.374  15.598 -0.4547  0.2619 -0.0505
13390TIP3    H161661   1.474   1.436  15.528  0.4880  0.1432  0.0865
13390TIP3    H261662   1.514   1.400  15.669 -1.3840  0.3610  0.6789
13391TIP3   OH261663   1.351   3.011   5.748  0.4033  0.1998 -0.3700
13391TIP3    H161664   1.380   3.061   5.824 -0.2068  0.7364 -0.4920
13391TIP3    H261665   1.285   2.950   5.782  1.1848 -0.5710 -0.2113
13392TIP3   OH261666   1.387   6.683  12.703 -0.0694 -0.1513  0.1707
13392TIP3    H161667   1.415   6.613  12.762 -0.7949  0.7960  1.6821
13392TIP3    H261668   1.303   6.712  12.739 -1.2072 -0.4850 -2.1574
13393TIP3   OH261669   5.872   0.493   5.966  0.6153 -0.4819 -0.5945
13393TIP3    H161670   5.820   0.512   6.044  1.2122 -0.4069 -0.2095
13393TIP3    H261671   5.884   0.398   5.966 -0.8127 -0.6796 -1.5208
13394TIP3   OH261672   3.970   1.337  16.328  0.5133 -0.2197 -0.3721
13394TIP3    H161673   3.963   1.353  16.423  1.4202  0.0797 -0.3596
13394TIP3    H261674   4.028   1.406  16.296 -0.9916  0.5995 -1.4060
13395TIP3   OH261675   1.049   1.514  14.973 -0.3908  0.0457  0.0562
13395TIP3    H161676   1.012   1.534  15.058  1.0721  1.0877  0.4502
13395TIP3    H261677   1.032   1.420  14.961 -2.3600  0.3088  0.5931
13396TIP3   OH261678   0.923   2.985  16.784 -0.5413 -0.1842  0.3800
13396TIP3    H161679   0.996   2.933  16.818 -0.6964 -0.1004  0.8427
13396TIP3    H261680   0.953   3.015  16.698  0.6570  1.3170  1.3013
13397TIP3   OH261681   1.428   1.707   3.108 -0.1821 -0.0495  0.0554
13397TIP3    H161682   1.470   1.708   3.023 -1.6506  1.3525 -0.6886
13397TIP3    H261683   1.406   1.615   3.124 -0.6845 -0.2003 -1.4799
13398TIP3   OH261684   6.678   2.950  17.068 -0.5305 -0.3966  0.5116
13398TIP3    H161685   6.732   2.964  16.990 -0.0726  1.0834  1.0734
13398TIP3    H261686   6.589   2.971  17.040 -0.7007 -1.9686 -0.1745
13399TIP3   OH261687   3.083   0.061  17.257 -0.3057 -0.2363 -0.4139
13399TIP3    H161688   3.050   0.142  17.295 -0.1726  0.0298 -0.8529
13399TIP3    H261689   3.012  -0.001  17.266 -0.7410  0.1874 -0.8918
13400TIP3   OH261690   4.796   3.609   5.896 -0.0427 -0.5196  0.0942
13400TIP3    H161691   4.858   3.625   5.967  0.8629 -2.4845 -0.2066
13400TIP3    H261692   4.840   3.641   5.818  0.0140 -0.6398  0.0763
13401TIP3   OH261693   4.156   1.928  14.145 -0.5542 -0.2898 -0.1463
13401TIP3    H161694   4.184   2.019  14.159 -0.9914 -0.0274 -0.9263
13401TIP3    H261695   4.224   1.875  14.187  0.4216  0.3691 -0.8644
13402TIP3   OH261696   2.308   3.800   0.670 -0.3210  0.6539  0.1600
13402TIP3    H161697   2.247   3.836   0.734 -0.6050 -0.2146  0.3844
13402TIP3    H261698   2.371   3.871   0.655 -0.7147  1.1475  0.7914
13403TIP3   OH261699   2.235   3.617  11.836 -0.1715  0.1155  0.3863
13403TIP3    H161700   2.272   3.698  11.871 -0.2412 -0.3991  1.6654
13403TIP3    H261701   2.311   3.566  11.809 -0.0552  0.0302  0.8671
13404TIP3   OH261702   0.884   6.306  15.324 -0.4209  0.0192  0.4389
13404TIP3    H161703   0.962   6.310  15.379 -1.2000 -1.0396  1.6181
13404TIP3    H261704   0.836   6.386  15.346  0.1328  0.4897 -0.0225
13405TIP3   OH261705   3.472   1.572  15.749  0.3097  0.2581  0.1832
13405TIP3    H161706   3.423   1.652  15.764 -0.2572  0.8465 -4.1557
13405TIP3    H261707   3.560   1.601  15.723  0.3880 -0.5422 -0.4724
13406TIP3   OH261708   1.671   1.286   1.188 -0.2817  0.7171 -0.1386
13406TIP3    H161709   1.732   1.343   1.142 -0.2200  1.6948  1.1059
13406TIP3    H261710   1.715   1.202   1.193  0.9985  1.4275  0.8033
13407TIP3   OH261711   6.100   3.838   3.872  0.2401  0.5519  0.6507
13407TIP3    H161712   6.081   3.755   3.829  1.4210  1.1685 -1.1231
13407TIP3    H261713   6.016   3.865   3.910 -0.5458 -0.6149 -0.2138
13408TIP3   OH261714   4.824   2.202   6.389 -0.3398 -0.0795 -0.5231
13408TIP3    H161715   4.821   2.108   6.408 -0.2471  0.0537  0.1650
13408TIP3    H261716   4.917   2.223   6.383 -0.3111  0.2611  0.8528
13409TIP3   OH261717   2.806   5.700  17.160 -0.1873 -0.4568 -0.2355
13409TIP3    H161718   2.863   5.675  17.232 -1.3559  1.2161  1.2963
13409TIP3    H261719   2.830   5.790  17.139  0.1310 -0.9175 -1.9429
13410TIP3   OH261720   4.949   3.214  17.204  0.0107 -0.6111 -0.3262
13410TIP3    H161721   5.027   3.246  17.159  1.0567 -1.4025  0.9094
13410TIP3    H261722   4.980   3.186  17.290 -1.3191 -2.5927 -0.4574
13411TIP3   OH261723   5.582   1.266   3.527  0.0475  0.4522 -0.1640
13411TIP3    H161724   5.608   1.258   3.619  0.9901 -0.3767 -0.4910
13411TIP3    H261725   5.563   1.176   3.500 -1.8440  0.8737 -0.3343
13412TIP3   OH261726   1.749   2.773  17.137  0.0278  0.4216 -0.1851
13412TIP3    H161727   1.668   2.736  17.103 -0.8417  0.6264  1.6116
13412TIP3    H261728   1.799   2.799  17.059 -1.5273  0.0799 -1.2985
13413TIP3   OH261729   2.369   0.557   2.430 -0.6790 -0.0272  0.5061
13413TIP3    H161730   2.461   0.575   2.447 -0.2093 -1.9842  0.2029
13413TIP3    H261731   2.334   0.640   2.398  1.0332  0.6706  0.3645
13414TIP3   OH261732   6.497   2.574  16.969 -0.3612 -0.7565 -0.2293
13414TIP3    H161733   6.433   2.637  17.002 -0.4465 -0.6526 -0.5903
13414TIP3    H261734   6.578   2.597  17.015 -0.0337  0.5572 -1.4222
13415TIP3   OH261735   5.475   3.252  13.357 -0.1719  0.2347  0.5211
13415TIP3    H161736   5.443   3.162  13.351 -0.2369  0.3520 -1.0366
13415TIP3    H261737   5.398   3.304  13.381 -0.1187 -0.1167  1.4919
13416TIP3   OH261738   4.688   2.077   2.254 -0.0381  0.1170  0.2515
13416TIP3    H161739   4.735   2.129   2.189  1.5879 -0.2440  1.1230
13416TIP3    H261740   4.751   2.062   2.324 -1.7955  0.6011  2.0003
13417TIP3   OH261741   5.038   0.150   5.246 -0.0704 -0.2208  0.1722
13417TIP3    H161742   5.001   0.233   5.216 -0.8178 -0.6067  0.0075
13417TIP3    H261743   5.132   0.159   5.231 -0.2842  0.0922 -1.1040
13418TIP3   OH261744   1.099   1.754   5.438 -0.3042 -0.2867  0.4419
13418TIP3    H161745   1.115   1.835   5.390  1.7415 -1.4482 -0.9131
13418TIP3    H261746   1.133   1.770   5.526 -0.0863  0.3997  0.2324
13419TIP3   OH261747   4.034   4.175   4.699 -0.0045 -0.4820 -0.2628
13419TIP3    H161748   3.997   4.087   4.705 -1.4910  0.1392 -0.1831
13419TIP3    H261749   4.085   4.174   4.618 -0.7815 -1.1304 -0.7485
13420TIP3   OH261750   2.723   3.637   1.679  0.3400 -0.1047 -0.3151
13420TIP3    H161751   2.756   3.555   1.642  1.1660  0.0137  0.1507
13420TIP3    H261752   2.700   3.690   1.602  0.0752 -0.6582 -0.6218
13421TIP3   OH261753   2.426   6.774  15.314  0.2873  0.1591  0.3052
13421TIP3    H161754   2.484   6.734  15.380  0.0583  0.4979  0.7083
13421TIP3    H261755   2.365   6.704  15.291  2.6631 -1.1374 -2.2746
13422TIP3   OH261756   6.044   4.580  12.443  0.1764  0.0346  0.3750
13422TIP3    H161757   6.125   4.619  12.411  0.5127 -0.3807  0.7109
13422TIP3    H261758   6.066   4.488  12.457 -0.9794 -0.6054 -1.7701
13423TIP3   OH261759   2.938   6.169   3.273  0.3545 -0.1341  0.1043
13423TIP3    H161760   3.007   6.216   3.320 -0.7247 -0.2307  1.8253
13423TIP3    H261761   2.891   6.121   3.341 -0.0537 -1.8157 -1.3319
13424TIP3   OH261762   1.572   1.807  12.020  0.1424 -0.4285 -0.0838
13424TIP3    H161763   1.515   1.742  11.979  0.0748 -0.3917 -0.0491
13424TIP3    H261764   1.636   1.829  11.952  0.3225 -0.7168 -0.0075
13425TIP3   OH261765   0.799   4.472   3.673  1.3554 -0.5115 -0.1164
13425TIP3    H161766   0.725   4.517   3.632 -0.6178 -1.1649  2.5922
13425TIP3    H261767   0.876   4.506   3.627 -0.6862 -1.0155 -4.1164
13426TIP3   OH261768   5.804   6.187  13.531 -0.0554  0.0770 -0.4091
13426TIP3    H161769   5.741   6.258  13.515 -2.0980 -1.7097 -0.5297
13426TIP3    H261770   5.754   6.122  13.580  1.7368 -1.3883 -0.4940
13427TIP3   OH261771   4.413   0.149   0.911 -0.1331  0.7051  0.1309
13427TIP3    H161772   4.326   0.178   0.883  0.4592  2.3696 -0.0581
13427TIP3    H261773   4.425   0.191   0.997  0.4190  0.3559  0.2253
13428TIP3   OH261774   5.095   1.155   2.670  0.3192  0.7608  0.5182
13428TIP3    H161775   5.132   1.166   2.757  0.9522  0.9325  0.2300
13428TIP3    H261776   5.156   1.098   2.624  0.0352  0.7446  0.1540
13429TIP3   OH261777   3.176   3.332   4.136  0.4576 -0.3210  0.2078
13429TIP3    H161778   3.132   3.254   4.102 -0.1592  0.0992  0.0431
13429TIP3    H261779   3.178   3.393   4.063 -0.2934  0.3359  0.7262
13430TIP3   OH261780   0.432   3.366  11.458 -0.0725 -0.0809  0.3211
13430TIP3    H161781   0.444   3.360  11.552 -0.5286 -1.0480  0.3232
13430TIP3    H261782   0.386   3.449  11.445 -0.5102 -0.2098  1.0009
13431TIP3   OH261783   6.107   0.183   4.226  0.2332  0.8833  0.1196
13431TIP3    H161784   6.045   0.158   4.295  1.9718  1.0633  1.7920
13431TIP3    H261785   6.058   0.245   4.171 -0.7772  1.7496  1.9523
13432TIP3   OH261786   2.490   6.290   5.322 -0.4323  0.1599  0.3288
13432TIP3    H161787   2.580   6.322   5.317 -0.1232 -0.2688  2.7108
13432TIP3    H261788   2.493   6.203   5.284  0.1958  0.0733  0.5846
13433TIP3   OH261789   1.319   4.196   1.714 -0.2235 -0.3874  0.3009
13433TIP3    H161790   1.327   4.167   1.805 -1.4071  0.0806  0.5722
13433TIP3    H261791   1.226   4.216   1.704 -0.3164 -1.5824 -1.3737
13434TIP3   OH261792   6.406   6.155   5.057 -0.2480  0.3747 -0.0295
13434TIP3    H161793   6.315   6.135   5.035  0.2222 -1.4406 -0.4297
13434TIP3    H261794   6.450   6.163   4.972  0.2969 -0.3966  0.1786
13435TIP3   OH261795   1.065   0.121   4.976 -0.2645  0.6452 -0.1839
13435TIP3    H161796   1.058   0.046   4.917  0.8147 -0.2488  0.8127
13435TIP3    H261797   1.074   0.082   5.063 -1.3793  1.9485  0.5412
13436TIP3   OH261798   0.230   0.084   4.306  0.3731  0.4734 -0.1455
13436TIP3    H161799   0.228   0.152   4.238  1.2212  1.4527  0.8035
13436TIP3    H261800   0.234   0.132   4.388 -0.6875 -0.7132  0.6178
13437TIP3   OH261801   1.916   6.130  13.440  0.7014 -0.6230  0.6291
13437TIP3    H161802   1.825   6.155  13.425  0.5206 -1.8771 -0.4164
13437TIP3    H261803   1.959   6.141  13.355  1.6075  0.2743  1.1902
13438TIP3   OH261804   3.377   0.505  13.570  0.4847  0.6958 -0.8538
13438TIP3    H161805   3.382   0.600  13.557  0.9653  1.2126  2.6641
13438TIP3    H261806   3.468   0.479  13.586  0.1951 -0.1674 -0.6365
13439TIP3   OH261807   3.930   5.367  14.417 -0.5926  0.0544 -0.0082
13439TIP3    H161808   3.965   5.343  14.503 -1.4756  0.0833  0.3619
13439TIP3    H261809   3.912   5.283  14.374  1.4437  0.0002 -0.8499
13440TIP3   OH261810   3.043   2.555  16.716 -0.1894  0.8922 -0.3608
13440TIP3    H161811   3.082   2.494  16.779 -0.8756  0.3546 -0.4454
13440TIP3    H261812   3.117   2.586  16.664  0.0014 -0.9741 -1.2588
13441TIP3   OH261813   0.107   6.780  12.414  0.6846 -0.1328  0.1259
13441TIP3    H161814   0.018   6.809  12.437  0.6167 -1.1442  1.2211
13441TIP3    H261815   0.158   6.794  12.494  0.6887 -2.7994  0.6620
13442TIP3   OH261816   5.324   0.247  10.703  0.4327  0.4546  0.3863
13442TIP3    H161817   5.375   0.308  10.756 -3.0968  0.4057  4.0911
13442TIP3    H261818   5.269   0.302  10.648  1.1851  0.4993 -0.3495
13443TIP3   OH261819   2.411   4.462   6.499  0.1099 -0.2502  0.4451
13443TIP3    H161820   2.420   4.536   6.439 -0.4316 -0.4455  0.1141
13443TIP3    H261821   2.332   4.417   6.468 -0.1331 -0.3880  1.2656
13444TIP3   OH261822   3.486   2.152  15.500 -0.0607 -0.0635  0.0097
13444TIP3    H161823   3.552   2.084  15.487  1.3417  0.9099  1.8065
13444TIP3    H261824   3.404   2.104  15.513  0.6686 -1.3562 -0.1147
13445TIP3   OH261825   5.996   4.036   0.309 -0.4594  0.1218 -0.1477
13445TIP3    H161826   5.961   4.034   0.220  0.9478 -1.0543 -0.7024
13445TIP3    H261827   6.089   4.055   0.297 -0.3629  0.4539  1.1089
13446TIP3   OH261828   6.061   5.102   5.831 -0.5933 -0.6069  0.3074
13446TIP3    H161829   6.052   5.190   5.867 -1.4067 -1.2670  1.7818
13446TIP3    H261830   6.153   5.096   5.806 -0.5169  0.6306  0.2674
13447TIP3   OH261831   1.850   6.133   1.527 -0.1891 -0.3925  0.8586
13447TIP3    H161832   1.825   6.130   1.619 -2.1850 -3.4970  0.3064
13447TIP3    H261833   1.788   6.195   1.488 -2.1538 -2.2263  0.9203
13448TIP3   OH261834   2.452   6.133   3.849 -0.5635 -0.8789 -0.7959
13448TIP3    H161835   2.394   6.150   3.774 -0.8163  2.8663  0.1203
13448TIP3    H261836   2.535   6.175   3.825 -0.9956  1.3369  1.4006
13449TIP3   OH261837   6.363   6.529  11.661 -0.0418  0.3805 -0.3260
13449TIP3    H161838   6.407   6.604  11.620 -2.5249  1.7089 -0.6300
13449TIP3    H261839   6.280   6.520  11.614 -0.1771 -2.0146  0.3086
13450TIP3   OH261840   5.551   5.062  12.592  0.2299 -0.5014  0.2354
13450TIP3    H161841   5.585   5.035  12.507 -0.1279  1.9045 -0.7317
13450TIP3    H261842   5.629   5.086  12.642  0.3131  0.4141 -0.3053
13451TIP3   OH261843   3.751   0.594  13.587 -0.6566 -0.2278  0.5468
13451TIP3    H161844   3.724   0.503  13.581  1.1059 -0.6507 -2.0011
13451TIP3    H261845   3.835   0.592  13.633 -1.0006  0.1726  1.1835
13452TIP3   OH261846   5.544   3.787  16.652 -0.7792 -0.5920 -0.1855
13452TIP3    H161847   5.594   3.830  16.721 -0.7462 -0.2244 -0.4411
13452TIP3    H261848   5.500   3.715  16.697  0.8372 -1.5960 -0.1642
13453TIP3   OH261849   5.675   2.761  15.746 -0.4378 -0.2626 -0.1330
13453TIP3    H161850   5.673   2.693  15.814 -3.7125  0.1393  0.2793
13453TIP3    H261851   5.700   2.841  15.792  0.4568 -0.6130 -0.0151
13454TIP3   OH261852   5.103   1.149  15.711  0.1721  0.5895  0.5457
13454TIP3    H161853   5.196   1.153  15.689  0.4605 -2.2021  1.1663
13454TIP3    H261854   5.100   1.120  15.802 -1.3437 -2.7312 -0.4886
13455TIP3   OH261855   6.126   3.231  16.679  0.5705  0.1466 -0.0265
13455TIP3    H161856   6.087   3.308  16.719  0.9620  0.2958  0.0740
13455TIP3    H261857   6.106   3.160  16.740  1.0146  0.3423  0.3577
13456TIP3   OH261858   4.785   1.464   3.262  0.6376 -0.0981  0.5549
13456TIP3    H161859   4.835   1.545   3.266  0.5574 -0.0574  0.7382
13456TIP3    H261860   4.850   1.395   3.280  0.3420  0.0616  2.3898
13457TIP3   OH261861   1.906   5.092   5.253  0.1010  0.1781 -0.1670
13457TIP3    H161862   1.910   5.010   5.302 -2.2335 -0.2282 -0.6109
13457TIP3    H261863   1.870   5.067   5.168 -2.8050  1.9679  0.4752
13458TIP3   OH261864   4.170   5.937  15.796  1.0177 -1.4220 -0.1002
13458TIP3    H161865   4.214   5.975  15.872  0.3907 -1.1804  0.1462
13458TIP3    H261866   4.096   5.996  15.779  1.3335 -1.3006 -1.0860
13459TIP3   OH261867   1.930   1.386  17.160  0.0386  0.3081  0.7834
13459TIP3    H161868   1.866   1.315  17.155  0.5759 -0.1075 -0.4687
13459TIP3    H261869   2.015   1.343  17.150  0.3762  1.1169  0.0542
13460TIP3   OH261870   5.601   6.386  13.528 -0.1625  0.7242  0.1908
13460TIP3    H161871   5.531   6.437  13.487 -1.4548 -0.9879  0.2422
13460TIP3    H261872   5.558   6.340  13.600  1.3957  1.0478  1.3487
13461TIP3   OH261873   3.401   2.779   1.128  0.1563 -0.5231 -0.4305
13461TIP3    H161874   3.331   2.843   1.143  0.3989 -0.6314  1.3293
13461TIP3    H261875   3.481   2.823   1.158  0.3905 -1.4738  0.3615
13462TIP3   OH261876   0.615   2.227  15.378  0.5125  0.0314 -0.5023
13462TIP3    H161877   0.531   2.192  15.348  0.7968 -1.3011  0.1980
13462TIP3    H261878   0.605   2.233  15.473  1.1828 -0.0898 -0.4233
13463TIP3   OH261879   0.948   3.952   5.554 -0.2388 -0.4227  0.2343
13463TIP3    H161880   0.999   4.006   5.614 -1.0963  1.0719 -0.3505
13463TIP3    H261881   1.013   3.899   5.508  0.5498 -0.4700  1.3979
13464TIP3   OH261882   3.898   0.846   2.659  0.5608  0.0026 -0.1174
13464TIP3    H161883   3.848   0.888   2.729  1.0046 -0.3701  0.4270
13464TIP3    H261884   3.832   0.817   2.596  0.2326  1.3837 -0.4344
13465TIP3   OH261885   0.254   5.585   2.213  0.1124  0.3840  0.6827
13465TIP3    H161886   0.178   5.542   2.175  0.7839  0.6350 -0.9986
13465TIP3    H261887   0.318   5.515   2.224  0.3894  0.5309  0.0731
13466TIP3   OH261888   0.782   4.474  13.908 -0.1274  0.0630 -0.0277
13466TIP3    H161889   0.706   4.531  13.910 -0.1440  0.0158  1.5963
13466TIP3    H261890   0.835   4.507  13.836 -0.6367  1.4686  0.2217
13467TIP3   OH261891   1.241   2.755   0.635  0.2519  0.7401  0.3736
13467TIP3    H161892   1.270   2.685   0.693 -0.0968  1.0652  0.9507
13467TIP3    H261893   1.206   2.822   0.694  0.2879  1.2617 -0.1897
13468TIP3   OH261894   5.873   6.812  15.260 -0.4518 -0.3840 -0.4548
13468TIP3    H161895   5.842   6.748  15.324 -0.6685 -1.0552 -1.2289
13468TIP3    H261896   5.934   6.764  15.205  1.3518  0.7335  0.5303
13469TIP3   OH261897   4.902   0.979   0.128 -0.6388  1.4173 -0.9931
13469TIP3    H161898   4.862   0.893   0.117  1.8910  0.0675  0.2220
13469TIP3    H261899   4.925   1.006   0.039  0.7269 -0.2397 -1.1697
13470TIP3   OH261900   4.499   0.496   0.857 -0.1054 -0.8607 -0.2166
13470TIP3    H161901   4.490   0.429   0.789  2.2040 -0.3474 -1.1134
13470TIP3    H261902   4.532   0.573   0.810  0.0401 -0.0089  1.2362
13471TIP3   OH261903   4.184   4.193  15.061  0.5099  0.0115 -0.3201
13471TIP3    H161904   4.139   4.192  14.976  0.4936  0.2129 -0.3125
13471TIP3    H261905   4.234   4.111  15.062  1.8444  0.8080 -1.2357
13472TIP3   OH261906   6.403   4.308  12.207 -0.1046  0.1918  0.0648
13472TIP3    H161907   6.389   4.218  12.236  0.2040 -0.3599 -1.4267
13472TIP3    H261908   6.332   4.324  12.144 -0.9812  1.4828  1.3318
13473TIP3   OH261909   0.805   3.880   2.492 -0.1582  0.0599  0.1699
13473TIP3    H161910   0.809   3.797   2.444 -0.1846 -0.2788  0.7446
13473TIP3    H261911   0.740   3.932   2.446 -1.1942 -0.7915  0.6561
13474TIP3   OH261912   3.259   2.015   1.957  0.5486 -0.0471 -0.6323
13474TIP3    H161913   3.311   2.052   2.028 -0.1191 -0.5472  0.1271
13474TIP3    H261914   3.281   1.922   1.956 -2.0783 -0.7705  1.2937
13475TIP3   OH261915   5.066   5.558   0.620 -0.2306 -0.1007 -0.2750
13475TIP3    H161916   5.143   5.543   0.566 -0.4407 -1.6495 -0.1675
13475TIP3    H261917   5.000   5.497   0.586 -0.9372  0.1737  0.5704
13476TIP3   OH261918   1.108   6.050   0.728 -0.4644 -0.5578  0.3788
13476TIP3    H161919   1.178   6.006   0.777 -0.0722 -0.3684 -0.0088
13476TIP3    H261920   1.085   5.988   0.659 -1.2034 -0.9379  0.9605
13477TIP3   OH261921   0.558   4.612  13.457 -0.5626 -0.7149  0.2973
13477TIP3    H161922   0.581   4.687  13.403  2.6833 -1.7783  0.0538
13477TIP3    H261923   0.492   4.565  13.407 -0.5955  0.4894 -0.8160
13478TIP3   OH261924   1.743   4.669  14.946 -0.1165 -0.0571  0.3680
13478TIP3    H161925   1.737   4.574  14.948  0.8129 -0.1228 -0.1626
13478TIP3    H261926   1.827   4.689  14.987  0.6505  0.4440 -1.4190
13479TIP3   OH261927   4.634   2.886   3.925 -0.0725  0.3768  0.2637
13479TIP3    H161928   4.569   2.955   3.913  0.0684  0.6018  0.7776
13479TIP3    H261929   4.644   2.878   4.020 -0.4256 -0.6712  0.2195
13480TIP3   OH261930   2.854   2.482   0.829  0.1855  0.2403  0.2680
13480TIP3    H161931   2.812   2.397   0.845  0.7383  0.1501  1.2630
13480TIP3    H261932   2.948   2.463   0.830  0.2977  0.7823 -0.0045
13481TIP3   OH261933   6.665   1.085   1.543  0.9282  0.1890  0.2203
13481TIP3    H161934   6.724   1.156   1.517  0.9455  0.3122  0.5877
13481TIP3    H261935   6.666   1.087   1.638  1.4506 -0.7495  0.2386
13482TIP3   OH261936   0.212   0.990   1.861  0.0411 -0.1964  0.2321
13482TIP3    H161937   0.298   0.951   1.869  0.0697 -0.4211 -1.0170
13482TIP3    H261938   0.222   1.055   1.791 -0.7116  0.0047  0.3066
13483TIP3   OH261939   1.194   0.312  11.232  0.4613  0.1930  0.4959
13483TIP3    H161940   1.145   0.393  11.214  0.0358 -0.6331 -2.3465
13483TIP3    H261941   1.249   0.300  11.155  1.4429 -1.5923  1.4528
13484TIP3   OH261942   5.909   1.202  13.176  0.1648  0.3772 -0.5041
13484TIP3    H161943   5.904   1.139  13.105  0.2430  0.8441 -0.9255
13484TIP3    H261944   6.000   1.196  13.207 -0.1047 -0.4774  0.1648
13485TIP3   OH261945   2.015   2.880  11.036  0.3530  0.9843  0.1703
13485TIP3    H161946   2.028   2.954  11.095  0.2945  1.0255  0.1323
13485TIP3    H261947   1.936   2.836  11.069  0.1383  1.1903 -0.0618
13486TIP3   OH261948   2.266   3.972  12.626 -0.1046  1.3351  0.0381
13486TIP3    H161949   2.178   3.990  12.660  0.5767  2.7867  1.0413
13486TIP3    H261950   2.255   3.891  12.575 -1.3929 -0.1645  2.6100
13487TIP3   OH261951   4.894   4.073  13.253 -0.2190 -0.2959 -0.3748
13487TIP3    H161952   4.953   4.148  13.247 -0.2049 -0.1339  1.4733
13487TIP3    H261953   4.821   4.104  13.306 -0.6080 -1.3405 -0.2949
13488TIP3   OH261954   0.825   0.645  13.851  0.5339  0.2989  0.0014
13488TIP3    H161955   0.887   0.575  13.830  0.4996  0.9723 -2.5258
13488TIP3    H261956   0.740   0.602  13.855  1.0958 -0.6826  3.7464
13489TIP3   OH261957   5.587   1.400  15.365 -0.2626 -0.1710 -0.3645
13489TIP3    H161958   5.509   1.442  15.329 -0.2079 -0.3093 -0.6484
13489TIP3    H261959   5.563   1.376  15.454 -0.6583 -0.5123 -0.5611
13490TIP3   OH261960   1.030   0.559  15.928  0.2328  0.0051 -0.2836
13490TIP3    H161961   1.006   0.619  15.858  0.4094 -0.1146 -0.4495
13490TIP3    H261962   1.117   0.589  15.957 -0.2725  0.6605  0.5574
13491TIP3   OH261963   3.138   2.484   4.288 -0.5338  0.2255  0.1774
13491TIP3    H161964   3.167   2.570   4.320  3.0175 -1.8348  2.8898
13491TIP3    H261965   3.077   2.453   4.355 -1.2199  0.2722 -0.4176
13492TIP3   OH261966   5.520   3.720  12.062  0.4394  0.4284  0.1128
13492TIP3    H161967   5.549   3.630  12.046  1.9658  1.3477 -2.5286
13492TIP3    H261968   5.532   3.732  12.156  1.9521 -1.5284  0.2022
13493TIP3   OH261969   4.355   1.802  12.657  0.0123  0.2744 -0.0623
13493TIP3    H161970   4.322   1.721  12.619  1.9525 -0.1546 -0.9186
13493TIP3    H261971   4.448   1.804  12.632  0.4644  1.7728  1.6126
13494TIP3   OH261972   0.973   3.028  11.134  0.3407 -0.5118 -0.1610
13494TIP3    H161973   0.933   3.114  11.119 -0.5347 -1.0394 -0.9346
13494TIP3    H261974   0.939   2.973  11.063 -0.3159 -1.8940  1.1781
13495TIP3   OH261975   6.264   3.980   4.891 -0.4236  0.4400  0.6158
13495TIP3    H161976   6.200   4.046   4.864 -1.8755 -1.0171  0.4518
13495TIP3    H261977   6.218   3.897   4.884  1.8602 -0.7745 -0.7449
13496TIP3   OH261978   6.652   0.167   5.658  0.0317  0.0906  0.1230
13496TIP3    H161979   6.709   0.191   5.730  1.3874 -1.9101 -0.2403
13496TIP3    H261980   6.591   0.240   5.649  2.2683  2.0689  0.7813
13497TIP3   OH261981   5.499   2.448  15.332  0.5954 -0.6980 -0.8109
13497TIP3    H161982   5.501   2.513  15.402  1.2913  0.1489 -1.5994
13497TIP3    H261983   5.572   2.388  15.352  1.2661 -0.0236 -1.2065
13498TIP3   OH261984   5.831   5.446  14.995  0.1395 -0.0248  0.2270
13498TIP3    H161985   5.764   5.418  15.058 -0.3057  0.0445 -0.2106
13498TIP3    H261986   5.802   5.532  14.965 -0.0869 -0.4119 -0.6822
13499TIP3   OH261987   3.693   3.381   2.112 -0.0642  0.0493 -0.5105
13499TIP3    H161988   3.692   3.453   2.050 -1.1608 -0.0620 -0.6324
13499TIP3    H261989   3.646   3.413   2.188 -1.4348 -0.8551 -0.9495
13500TIP3   OH261990   2.420   2.763  14.308  0.0478  0.1477 -0.3217
13500TIP3    H161991   2.398   2.848  14.269 -0.7869  0.2003  0.2386
13500TIP3    H261992   2.512   2.771  14.333 -0.3934  1.4072  1.0100
13501TIP3   OH261993   3.296   3.944  12.854 -0.4446  0.4913  0.3284
13501TIP3    H161994   3.219   3.891  12.875 -0.5174 -0.0362 -1.2611
13501TIP3    H261995   3.262   4.033  12.846 -1.1195  0.0764 -1.6256
13502TIP3   OH261996   4.419   6.396  13.262  0.2885 -0.0399 -0.3292
13502TIP3    H161997   4.417   6.359  13.350  1.2398 -0.0548 -0.3119
13502TIP3    H261998   4.500   6.362  13.223  0.2630  0.5841 -0.9400
13503TIP3   OH261999   1.635   1.663  12.269 -0.0380 -0.2538  0.7213
13503TIP3    H162000   1.636   1.740  12.212  2.2287 -1.6196 -1.2167
13503TIP3    H262001   1.691   1.687  12.343 -0.0699  0.2899  0.5695
13504TIP3   OH262002   2.067   5.383   0.422  0.1599  0.8584 -0.1077
13504TIP3    H162003   2.144   5.374   0.367  1.1834  1.3862  1.2008
13504TIP3    H262004   2.017   5.455   0.384  0.9388  1.3213 -0.2518
13505TIP3   OH262005   1.869   0.755   1.281 -0.0576  0.0544 -0.7971
13505TIP3    H162006   1.831   0.727   1.364 -2.8325  1.7871 -1.4312
13505TIP3    H262007   1.812   0.717   1.214  0.5946  0.8994 -1.8574
13506TIP3   OH262008   0.719   2.131  11.296 -0.2868  0.0083  0.7939
13506TIP3    H162009   0.762   2.216  11.302 -1.1742  0.6268 -1.2004
13506TIP3    H262010   0.639   2.140  11.348 -0.7240  0.6347  0.0279
13507TIP3   OH262011   5.705   3.160  13.463  0.0938 -0.0483 -0.5035
13507TIP3    H162012   5.754   3.241  13.480 -0.3176  0.0832  0.0814
13507TIP3    H262013   5.623   3.190  13.424 -0.9223 -0.0274  1.5872
13508TIP3   OH262014   4.443   2.383  16.521 -0.0823  0.2533  0.2341
13508TIP3    H162015   4.426   2.417  16.433  0.7721 -0.3962 -0.1910
13508TIP3    H262016   4.409   2.294  16.519 -0.1859  0.2836  0.6024
13509TIP3   OH262017   4.093   5.447   5.504  0.2817  0.4229  0.0126
13509TIP3    H162018   4.100   5.353   5.519  1.4882 -0.0704 -3.3032
13509TIP3    H262019   4.181   5.481   5.521 -0.2421  1.0706  1.5973
13510TIP3   OH262020   4.127   0.711   3.651 -0.1495  0.3866 -0.5873
13510TIP3    H162021   4.207   0.754   3.619  0.5677  0.4037  1.1706
13510TIP3    H262022   4.092   0.667   3.574  1.2694  0.8206 -1.5164
13511TIP3   OH262023   6.632   2.506   6.447 -0.3775  0.5253  0.7318
13511TIP3    H162024   6.721   2.536   6.463 -1.3188  3.4869  0.5763
13511TIP3    H262025   6.620   2.433   6.509  1.6863  0.9508  1.6720
13512TIP3   OH262026   5.630   0.879  12.023  0.0817 -0.5445  0.9778
13512TIP3    H162027   5.545   0.923  12.033 -0.9374 -1.9696 -1.0503
13512TIP3    H262028   5.659   0.901  11.935  0.5003 -2.2772  0.6574
13513TIP3   OH262029   1.310   3.673  16.234  0.2345  0.1113 -0.2720
13513TIP3    H162030   1.304   3.706  16.323 -0.5669 -0.1822 -0.2103
13513TIP3    H262031   1.401   3.686  16.209 -0.0558  2.3741 -0.2622
13514TIP3   OH262032   0.374   6.411  16.566 -0.0530  0.1741  0.2173
13514TIP3    H162033   0.344   6.502  16.561 -1.8545 -0.4517 -1.1892
13514TIP3    H262034   0.301   6.361  16.530  1.0055 -1.8145  0.7994
13515TIP3   OH262035   3.666   1.187   2.118 -0.1379  0.1493  0.6838
13515TIP3    H162036   3.712   1.109   2.087  0.0887  0.1142  1.1082
13515TIP3    H262037   3.723   1.260   2.095  1.0352 -0.0335  2.8843
13516TIP3   OH262038   3.037   4.769  13.387  0.0259 -0.1642  0.0425
13516TIP3    H162039   3.085   4.712  13.327  2.2287  1.1109  0.5316
13516TIP3    H262040   3.018   4.713  13.463 -1.9220 -1.4998 -1.3789
13517TIP3   OH262041   2.481   0.159   0.122  0.6601 -0.3301 -0.8905
13517TIP3    H162042   2.524   0.240   0.096 -0.3269  0.1515 -1.0420
13517TIP3    H262043   2.458   0.173   0.214  1.1746 -0.7331 -0.7025
13518TIP3   OH262044   3.113   4.536   3.279 -0.4398  0.0793 -0.3494
13518TIP3    H162045   3.172   4.544   3.203 -1.4306  0.9853 -1.0400
13518TIP3    H262046   3.167   4.496   3.347  1.0993  1.2382 -0.8443
13519TIP3   OH262047   4.368   3.913  16.017  0.1932 -0.3457 -0.3736
13519TIP3    H162048   4.362   3.924  15.922  0.6656  0.1957 -0.3507
13519TIP3    H262049   4.278   3.905  16.047 -0.0411  1.0655 -0.6916
13520TIP3   OH262050   0.646   1.283   4.101 -0.0702 -0.5374 -0.0860
13520TIP3    H162051   0.717   1.322   4.051 -1.1408  0.1366 -1.1070
13520TIP3    H262052   0.615   1.354   4.158 -1.6160 -0.0562 -1.4993
13521TIP3   OH262053   0.126   2.767  11.730  0.0158 -0.4517 -0.7131
13521TIP3    H162054   0.181   2.777  11.807 -1.4377  1.7636  0.1054
13521TIP3    H262055   0.175   2.809  11.659 -0.0245  0.3627 -0.2693
13522TIP3   OH262056   1.237   0.497  12.310 -0.1913  0.0250 -0.5673
13522TIP3    H162057   1.220   0.544  12.229 -0.5357  2.0894  0.6550
13522TIP3    H262058   1.234   0.404  12.286 -0.4324  0.6034 -2.8565
13523TIP3   OH262059   6.511   0.147   3.045 -0.7141  0.6582 -0.1272
13523TIP3    H162060   6.503   0.053   3.058  3.4553  0.1784 -0.3942
13523TIP3    H262061   6.427   0.183   3.075 -3.1815 -3.2695 -2.0101
13524TIP3   OH262062   5.418   4.279  11.740 -0.0110 -0.4594 -0.1964
13524TIP3    H162063   5.506   4.252  11.766 -0.1876 -1.5246 -0.6870
13524TIP3    H262064   5.414   4.260  11.647 -0.4102  0.5663 -0.3966
13525TIP3   OH262065   1.378   5.606   5.910 -0.7325 -0.5577  0.2141
13525TIP3    H162066   1.433   5.570   5.980  0.7790  1.4921  0.1284
13525TIP3    H262067   1.310   5.656   5.955 -0.9319 -0.8816  0.2697
13526TIP3   OH262068   5.595   1.546  15.912  0.3331 -0.6088 -0.7299
13526TIP3    H162069   5.553   1.460  15.912 -1.6871  0.3365 -0.0523
13526TIP3    H262070   5.670   1.536  15.854 -0.3702 -2.5955 -1.3407
13527TIP3   OH262071   1.413   3.889  11.783  0.0711  0.4604 -0.6190
13527TIP3    H162072   1.330   3.930  11.759 -0.4186 -0.2742 -0.2097
13527TIP3    H262073   1.445   3.852  11.700 -1.8137 -2.4072 -0.1396
13528TIP3   OH262074   2.366   0.123   3.775  0.6796 -0.6981  0.2356
13528TIP3    H162075   2.283   0.165   3.797 -0.4591 -1.3366 -2.6636
13528TIP3    H262076   2.415   0.190   3.726  1.7898 -0.4275  1.6598
13529TIP3   OH262077   0.769   2.552  16.319  0.1538 -0.4067  0.2250
13529TIP3    H162078   0.801   2.562  16.409  0.8553  0.5009 -0.1097
13529TIP3    H262079   0.710   2.477  16.323  2.0747 -1.9228  0.9364
13530TIP3   OH262080   6.816   0.531  10.806  0.0540 -0.7058  0.3787
13530TIP3    H162081   6.738   0.580  10.779  0.8105  0.6693  0.6288
13530TIP3    H262082   6.867   0.594  10.857  1.6417 -1.3728 -0.3553
13531TIP3   OH262083   5.370   1.215   0.430 -0.0926  0.1273  0.0583
13531TIP3    H162084   5.428   1.163   0.486 -2.0529 -0.8779  1.2256
13531TIP3    H262085   5.327   1.151   0.374 -1.4645  0.6289  0.5109
13532TIP3   OH262086   2.293   5.391  17.044  0.7810 -0.1371  0.0610
13532TIP3    H162087   2.276   5.459  16.977  0.8133 -0.9991 -0.8343
13532TIP3    H262088   2.238   5.416  17.118 -0.9330 -0.3563 -1.1064
13533TIP3   OH262089   3.769   4.899  14.293  0.1975  0.9577 -0.2696
13533TIP3    H162090   3.685   4.854  14.280  1.2795 -0.7986 -1.4390
13533TIP3    H262091   3.834   4.835  14.265  1.9164  2.4548  0.2535
13534TIP3   OH262092   1.035   4.455   0.752  0.1218  0.1248  0.2976
13534TIP3    H162093   1.042   4.550   0.749  0.4984  0.0507 -2.2576
13534TIP3    H262094   1.120   4.424   0.782 -0.1600  0.6018  1.6021
13535TIP3   OH262095   1.501   5.791   1.834  0.0560  0.1180  0.5797
13535TIP3    H162096   1.523   5.801   1.927  0.0628  1.2005  0.4695
13535TIP3    H262097   1.515   5.878   1.796 -4.3575  0.9531  0.5185
13536TIP3   OH262098   6.157   1.806   5.286 -0.0392  0.2539  0.8258
13536TIP3    H162099   6.131   1.817   5.377 -5.2059  1.5253 -0.6393
13536TIP3    H262100   6.104   1.870   5.238  3.0334  0.1073 -3.0459
13537TIP3   OH262101   3.493   2.348  16.063  0.1144 -0.0122 -0.2316
13537TIP3    H162102   3.532   2.324  15.979 -0.2535 -2.4176  0.2585
13537TIP3    H262103   3.407   2.385  16.041  0.0416 -0.5896 -0.9100
13538TIP3   OH262104   2.802   3.463  15.546 -0.0941 -0.1052 -0.2797
13538TIP3    H162105   2.744   3.537  15.565 -0.2226 -0.2611 -0.0680
13538TIP3    H262106   2.746   3.386  15.556  0.4012 -0.3163  0.9057
13539TIP3   OH262107   5.793   6.191   4.045  0.1864  0.1151 -0.0191
13539TIP3    H162108   5.714   6.242   4.065 -0.7390 -0.9479 -0.9054
13539TIP3    H262109   5.762   6.118   3.992  1.9698  0.4405 -1.5672
13540TIP3   OH262110   2.859   6.098   4.289 -0.3787 -0.2948  0.4821
13540TIP3    H162111   2.776   6.146   4.280  0.7360  1.7926  1.1148
13540TIP3    H262112   2.863   6.073   4.381 -0.3520 -0.4883  0.4287
13541TIP3   OH262113   2.569   4.671   2.152 -0.1791  0.3926 -0.3413
13541TIP3    H162114   2.664   4.674   2.161 -0.2259 -1.3005  1.0964
13541TIP3    H262115   2.553   4.614   2.076 -0.0451 -0.1732  0.0487
13542TIP3   OH262116   0.682   5.011   0.236 -0.0800 -0.2833  0.0229
13542TIP3    H162117   0.720   5.090   0.273 -2.5214  0.3996  1.1893
13542TIP3    H262118   0.624   5.042   0.167  1.4805 -1.3114 -1.8041
13543TIP3   OH262119   3.074   3.162   0.757 -0.1117 -0.1257 -0.1252
13543TIP3    H162120   3.026   3.085   0.726 -2.7840  1.2196  0.5428
13543TIP3    H262121   3.137   3.127   0.821 -2.1400 -1.6586  1.1060
13544TIP3   OH262122   3.406   5.405  16.076  0.1782  0.0444 -0.2130
13544TIP3    H162123   3.351   5.374  16.005 -0.1220 -0.2872  0.1596
13544TIP3    H262124   3.449   5.483  16.041 -0.2081  0.0618 -0.6494
13545TIP3   OH262125   3.006   3.849  11.028  0.1350 -0.4988  0.7115
13545TIP3    H162126   3.018   3.909  10.954 -2.4212  0.5129  1.0470
13545TIP3    H262127   3.014   3.762  10.991  1.8285  0.0230 -0.1849
13546TIP3   OH262128   3.456   3.017   6.342  0.0642 -0.9547 -0.0960
13546TIP3    H162129   3.466   2.977   6.429  0.2157 -0.0407  0.3098
13546TIP3    H262130   3.425   2.945   6.287  0.7693 -1.7567  0.5218
13547TIP3   OH262131   0.983   4.932   0.262 -0.0345 -0.9263 -0.0146
13547TIP3    H162132   1.061   4.978   0.231  0.0386 -0.7531  0.4164
13547TIP3    H262133   0.914   4.998   0.259  0.3585 -0.3735  1.8912
13548TIP3   OH262134   6.025   6.348  14.740 -0.2053  0.3031  0.1652
13548TIP3    H162135   6.072   6.427  14.766  0.6502  0.0242 -0.5452
13548TIP3    H262136   5.944   6.380  14.701 -0.3694  0.7939  0.8980
13549TIP3   OH262137   4.610   3.029   2.842  0.2508 -0.1121 -0.3793
13549TIP3    H162138   4.560   3.073   2.774 -0.3032  0.4709  0.3893
13549TIP3    H262139   4.700   3.030   2.810  0.1430  1.0080 -0.6698
13550TIP3   OH262140   3.908   2.764   5.673 -0.0244 -0.6800 -0.5779
13550TIP3    H162141   3.967   2.837   5.691  0.4350 -1.1091 -0.2958
13550TIP3    H262142   3.821   2.803   5.667  0.2119 -0.1218 -0.3821
13551TIP3   OH262143   2.623   0.946   2.792  0.3548  0.2352  0.0813
13551TIP3    H162144   2.584   1.027   2.761 -0.8058  0.0556  1.0355
13551TIP3    H262145   2.716   0.966   2.802 -0.3597  2.3004  3.0622
13552TIP3   OH262146   6.549   6.566  12.925  0.4505  0.4965  0.4340
13552TIP3    H162147   6.640   6.595  12.919  1.2584 -1.8869  0.4192
13552TIP3    H262148   6.553   6.485  12.975 -1.3960 -0.7063 -1.2678
13553TIP3   OH262149   2.917   5.814   2.293 -0.2128  0.3153  0.2517
13553TIP3    H162150   2.925   5.902   2.331  2.3010 -0.2844  1.1994
13553TIP3    H262151   2.823   5.798   2.291 -0.8356  3.6732 -1.4608
13554TIP3   OH262152   5.915   1.126  15.756  0.2209 -0.5659 -0.1183
13554TIP3    H162153   5.964   1.107  15.676  0.9593  2.0759 -0.3490
13554TIP3    H262154   5.904   1.041  15.798  3.1080 -1.5212 -1.1779
13555TIP3   OH262155   5.891   6.609  12.390 -0.2321 -0.9142 -0.1545
13555TIP3    H162156   5.862   6.521  12.414 -1.4469 -0.2521  0.8935
13555TIP3    H262157   5.916   6.602  12.298  0.6925 -2.5872  0.1883
13556TIP3   OH262158   4.305   1.768   5.089 -0.1347 -0.2596  0.0606
13556TIP3    H162159   4.243   1.783   5.160  0.0980  0.7490  0.0616
13556TIP3    H262160   4.253   1.728   5.019 -1.0184  1.5604 -0.3380
13557TIP3   OH262161   0.313   2.849   0.610  0.5021  0.2732  0.5465
13557TIP3    H162162   0.341   2.843   0.702 -0.4341 -0.2851  0.8089
13557TIP3    H262163   0.349   2.770   0.569 -2.4697 -1.6078  1.3989
13558TIP3   OH262164   5.332   3.887   5.348  0.7536  0.3461 -0.0705
13558TIP3    H162165   5.387   3.809   5.338 -0.6524 -0.6894  0.0767
13558TIP3    H262166   5.284   3.872   5.429  0.4121  1.3337 -0.0869
13559TIP3   OH262167   2.294   4.905   2.504  0.0482  0.7450 -0.2983
13559TIP3    H162168   2.287   4.863   2.418 -1.1219 -0.3551  0.3070
13559TIP3    H262169   2.297   4.832   2.566  1.3107  1.5275  0.5711
13560TIP3   OH262170   3.254   3.467  14.613  0.4908  0.9394 -0.3969
13560TIP3    H162171   3.294   3.449  14.528  0.8937 -2.8344  0.4913
13560TIP3    H262172   3.313   3.426  14.677 -2.4092 -0.7913  1.2792
13561TIP3   OH262173   5.428   0.609  11.836  0.2956 -0.4926  0.1684
13561TIP3    H162174   5.363   0.674  11.863  0.7649  0.2468 -0.4528
13561TIP3    H262175   5.386   0.524  11.851  0.2000 -0.0870  2.3448
13562TIP3   OH262176   0.343   5.536   5.469  0.1704 -0.0868 -0.3926
13562TIP3    H162177   0.294   5.582   5.537 -1.4870 -0.2045 -1.4493
13562TIP3    H262178   0.336   5.444   5.492 -0.9207 -0.1750 -1.0262
13563TIP3   OH262179   0.590   0.624   1.262  0.2559 -0.3060 -0.2249
13563TIP3    H162180   0.651   0.694   1.287 -0.9188  0.3781  0.7592
13563TIP3    H262181   0.597   0.620   1.166  0.5222  0.9822 -0.2681
13564TIP3   OH262182   3.324   1.054   4.320 -0.7291 -0.2997 -0.0691
13564TIP3    H162183   3.352   1.087   4.405 -0.8029  0.1521 -0.2163
13564TIP3    H262184   3.405   1.030   4.275 -0.8061 -2.7103  0.9857
13565TIP3   OH262185   2.250   5.330  16.089  0.4408  0.3406  0.6998
13565TIP3    H162186   2.184   5.356  16.153 -1.0196 -1.2489 -0.1104
13565TIP3    H262187   2.213   5.253  16.046  1.7221  0.9142 -1.5303
13566TIP3   OH262188   2.751   6.431   3.131 -0.1180 -0.5671  0.1507
13566TIP3    H162189   2.831   6.380   3.115  2.6268  3.0106  1.7235
13566TIP3    H262190   2.718   6.399   3.215  0.9011 -0.5743  0.5507
13567TIP3   OH262191   0.732   5.688  15.200  0.0846 -0.1835  0.0012
13567TIP3    H162192   0.645   5.728  15.196  0.5177  0.7820  0.1241
13567TIP3    H262193   0.729   5.632  15.277 -0.7968 -1.0470 -0.6477
13568TIP3   OH262194   2.733   0.517   5.497  0.4361 -0.0807 -0.4703
13568TIP3    H162195   2.686   0.482   5.573 -0.5781  2.0303 -0.0832
13568TIP3    H262196   2.814   0.553   5.534 -1.0773  3.0120  0.0408
13569TIP3   OH262197   1.209   6.529  14.973  0.3248  0.5972  0.4221
13569TIP3    H162198   1.295   6.547  14.935  0.0418 -0.1708 -0.5691
13569TIP3    H262199   1.184   6.443  14.940 -1.8605  1.7930 -1.1552
13570TIP3   OH262200   6.265   0.069  12.778 -0.2111 -0.2011 -0.2414
13570TIP3    H162201   6.279  -0.025  12.764  0.6693  0.1404 -1.7523
13570TIP3    H262202   6.172   0.082  12.759 -0.1839 -0.6541 -0.6934
13571TIP3   OH262203   2.460   1.539  13.755 -0.1200  0.7633  0.1310
13571TIP3    H162204   2.419   1.478  13.816 -0.1865  1.6373  0.9757
13571TIP3    H262205   2.416   1.522  13.672 -1.9311  1.4026  0.9299
13572TIP3   OH262206   0.908   3.768   5.929  0.4499  0.5437  0.1915
13572TIP3    H162207   0.957   3.750   5.848 -2.3273 -2.4742 -0.9078
13572TIP3    H262208   0.847   3.838   5.905  0.3618  0.3947 -0.0178
13573TIP3   OH262209   6.749   2.486   4.569  0.2616  0.2632  0.1822
13573TIP3    H162210   6.842   2.471   4.553  0.0715 -0.5757 -0.1408
13573TIP3    H262211   6.745   2.515   4.661  0.7071 -1.0993  0.6493
13574TIP3   OH262212   4.450   2.270   1.501 -0.6098  0.4824 -0.2316
13574TIP3    H162213   4.485   2.357   1.517  0.7868 -0.2088  0.6112
13574TIP3    H262214   4.477   2.250   1.411  1.8402 -0.3017  0.6180
13575TIP3   OH262215   3.018   5.602  16.372  0.2573 -0.3481  0.0724
13575TIP3    H162216   3.101   5.558  16.354  1.3837  1.2431  1.2198
13575TIP3    H262217   3.035   5.694  16.352 -1.2166  0.0018  0.3804
13576TIP3   OH262218   5.702   5.090   2.888 -0.0762 -0.3841  0.0296
13576TIP3    H162219   5.629   5.145   2.915 -0.0972 -0.7140  0.6562
13576TIP3    H262220   5.756   5.082   2.966  0.1684 -0.8753 -0.1877
13577TIP3   OH262221   2.929   3.223  11.203 -0.6974  0.1077  0.2944
13577TIP3    H162222   2.952   3.315  11.194  0.5182 -0.2351 -0.2195
13577TIP3    H262223   2.943   3.186  11.116 -0.1356 -0.7905  0.7652
13578TIP3   OH262224   3.097   5.861   3.662  0.4347  0.6884 -0.0418
13578TIP3    H162225   3.096   5.919   3.738  2.0062  1.0894 -0.3105
13578TIP3    H262226   3.152   5.906   3.598  0.7271 -0.5590 -0.6842
13579TIP3   OH262227   3.413   4.369   5.720 -0.2824  0.5595 -0.2288
13579TIP3    H162228   3.474   4.440   5.701  1.8864 -1.0355  0.5454
13579TIP3    H262229   3.340   4.383   5.660  1.0841  2.2127 -1.5599
13580TIP3   OH262230   0.840   4.742   4.799 -0.1821  0.0602 -0.4955
13580TIP3    H162231   0.877   4.688   4.729  0.7294 -1.7812  1.3548
13580TIP3    H262232   0.869   4.831   4.778  1.0672 -0.6267 -1.8045
13581TIP3   OH262233   0.633   0.891   0.419  0.3087  0.6868 -0.0379
13581TIP3    H162234   0.618   0.985   0.417 -1.2798  0.4567  0.3821
13581TIP3    H262235   0.576   0.855   0.351  0.2146 -0.0555  0.4186
13582TIP3   OH262236   6.360   4.702   1.329  0.1793 -0.0925  0.1658
13582TIP3    H162237   6.290   4.653   1.287  0.1736  0.8170 -0.8920
13582TIP3    H262238   6.353   4.678   1.422 -0.9900 -0.6532 -0.0581
13583TIP3   OH262239   2.860   4.850   2.033  0.1238 -0.2542  0.2940
13583TIP3    H162240   2.825   4.859   2.122 -0.4313 -1.8524  0.2487
13583TIP3    H262241   2.888   4.759   2.027  0.4737 -0.0723 -1.0683
13584TIP3   OH262242   0.686   4.071   1.579 -0.6406 -0.1424 -0.0958
13584TIP3    H162243   0.733   4.123   1.644 -0.6679  0.4445 -0.5461
13584TIP3    H262244   0.745   4.066   1.504 -0.4619 -1.1202  0.0950
13585TIP3   OH262245   6.043   4.787   4.458  0.4642  0.1039  0.1584
13585TIP3    H162246   6.130   4.795   4.497  1.5226  0.2463 -2.1560
13585TIP3    H262247   6.010   4.703   4.491  1.8608 -0.3982  0.3319
13586TIP3   OH262248   0.820   5.821   4.901  0.2906 -0.2864 -0.0094
13586TIP3    H162249   0.822   5.854   4.811 -0.8441 -0.4495 -0.1100
13586TIP3    H262250   0.911   5.811   4.926  0.6241 -2.7840 -2.0905
13587TIP3   OH262251   5.297   1.791   1.340  0.5496  0.7710  0.3801
13587TIP3    H162252   5.212   1.835   1.333  0.1801  0.5778  3.1263
13587TIP3    H262253   5.275   1.698   1.344  1.0094  0.6190 -0.4711
13588TIP3   OH262254   1.017   5.465   4.445 -0.2153  0.2947  0.0370
13588TIP3    H162255   1.082   5.403   4.477 -1.0893  0.1463  1.5909
13588TIP3    H262256   1.055   5.551   4.460 -0.3280  0.2042  0.8227
13589TIP3   OH262257   0.248   5.691   1.952 -0.1341  0.0836  0.0052
13589TIP3    H162258   0.252   5.660   2.042  2.1826  0.3760  0.0125
13589TIP3    H262259   0.279   5.617   1.900 -2.7134 -0.5654 -0.7209
13590TIP3   OH262260   0.123   2.334  12.622 -0.2517 -0.2603  0.2456
13590TIP3    H162261   0.084   2.393  12.558  1.1375  0.4780  0.0778
13590TIP3    H262262   0.185   2.281  12.572  0.4342 -0.0590  0.8808
13591TIP3   OH262263   5.561   4.920   5.148 -0.3148 -0.1790  0.7050
13591TIP3    H162264   5.595   4.902   5.061 -0.0005  0.3462  0.7142
13591TIP3    H262265   5.631   4.969   5.192 -1.3897  1.6564  0.4310
13592TIP3   OH262266   2.612   0.920   1.074 -0.3096 -0.7703 -0.5129
13592TIP3    H162267   2.624   0.922   0.979 -2.2240  1.2408 -0.7381
13592TIP3    H262268   2.700   0.939   1.108  0.4598 -1.7750 -1.8507
13593TIP3   OH262269   5.382   6.041  17.253 -0.3192 -0.1983  0.3760
13593TIP3    H162270   5.445   6.098  17.210 -2.8777  1.3803 -1.4256
13593TIP3    H262271   5.429   6.006  17.329  3.1889 -0.3622 -1.7860
13594TIP3   OH262272   0.905   6.582   4.719  0.5650  0.0887  0.1377
13594TIP3    H162273   0.927   6.591   4.626  2.8210 -0.2864  0.5920
13594TIP3    H262274   0.893   6.671   4.750 -2.2979  0.1247 -0.9623
13595TIP3   OH262275   5.009   2.012  10.971 -0.0234  0.0442  0.1333
13595TIP3    H162276   5.038   2.103  10.984  1.2647 -0.1634 -1.1700
13595TIP3    H262277   4.923   2.020  10.930  0.6480  0.7018 -1.1884
13596TIP3   OH262278   4.344   5.285  15.476  0.1116  0.1062  0.2213
13596TIP3    H162279   4.266   5.289  15.419 -0.2047 -0.5448  0.6040
13596TIP3    H262280   4.389   5.368  15.460 -1.6897  1.3601  1.4521
13597TIP3   OH262281   1.285   4.736   6.216 -0.9148  0.2271 -0.3219
13597TIP3    H162282   1.223   4.682   6.264 -2.3268  0.3303 -1.9568
13597TIP3    H262283   1.368   4.725   6.262 -1.8936 -0.8158  1.2291
13598TIP3   OH262284   5.842   3.647   5.954 -0.8109  0.3958 -0.0180
13598TIP3    H162285   5.828   3.563   5.910 -0.7910  0.9109 -1.0250
13598TIP3    H262286   5.794   3.639   6.037  1.1954 -1.4935  1.0057
13599TIP3   OH262287   0.433   0.550  13.575  0.1735  0.2278 -0.2892
13599TIP3    H162288   0.517   0.509  13.554  0.2621  0.3889 -0.2425
13599TIP3    H262289   0.440   0.573  13.668  0.7160  1.8107 -0.7228
13600TIP3   OH262290   4.332   5.852  17.241  0.1200  0.0532  0.4375
13600TIP3    H162291   4.376   5.771  17.267 -2.1631 -2.1489 -2.2629
13600TIP3    H262292   4.366   5.871  17.154 -1.6863  0.1960 -0.2642
13601TIP3   OH262293   5.181   2.083  17.063 -0.0500 -0.2570  0.6942
13601TIP3    H162294   5.217   2.158  17.016 -3.4576  1.6773  0.9985
13601TIP3    H262295   5.150   2.024  16.994 -1.6909  0.8656  0.4426
13602TIP3   OH262296   0.584   6.707   1.057 -0.1580 -0.1217 -0.0186
13602TIP3    H162297   0.644   6.642   1.022  1.4468 -0.7707  3.7266
13602TIP3    H262298   0.640   6.779   1.085 -1.3993  0.4486  1.0366
13603TIP3   OH262299   0.746   2.224   0.640  1.0939  0.4083  0.6297
13603TIP3    H162300   0.682   2.296   0.632  0.3533 -0.3540 -0.4590
13603TIP3    H262301   0.752   2.188   0.552  0.9486 -1.3145  1.3190
13604TIP3   OH262302   3.859   1.042  14.440 -0.4584 -0.0996 -0.3018
13604TIP3    H162303   3.789   1.028  14.504  0.0093 -0.6381  0.1022
13604TIP3    H262304   3.890   1.131  14.459  0.6243 -0.7590  1.1903
13605TIP3   OH262305   5.716   3.716  16.287  0.3690 -0.0175  0.2397
13605TIP3    H162306   5.766   3.650  16.239  0.1128  0.2060 -0.3399
13605TIP3    H262307   5.744   3.705  16.379 -1.5497 -2.6818  0.5791
13606TIP3   OH262308   6.083   1.004  16.090 -0.8649  0.6032  0.0510
13606TIP3    H162309   6.119   0.943  16.155  0.6360 -1.5628 -2.6927
13606TIP3    H262310   6.012   0.955  16.049 -1.0666  1.5214 -0.7088
13607TIP3   OH262311   3.113   2.661  11.637  0.6112 -0.1458  0.2742
13607TIP3    H162312   3.135   2.753  11.618  0.9225 -0.0718  0.9582
13607TIP3    H262313   3.117   2.617  11.553  1.1102  0.3451  0.0396
13608TIP3   OH262314   6.611   2.939   3.311  0.2003 -0.1603 -0.1712
13608TIP3    H162315   6.523   2.903   3.309 -0.3264  1.1415 -1.3407
13608TIP3    H262316   6.642   2.922   3.400 -0.7163 -1.8069 -0.1402
13609TIP3   OH262317   3.705   6.451   4.362  0.2309 -0.0316  0.7089
13609TIP3    H162318   3.751   6.535   4.353  1.7102 -0.8120  0.8989
13609TIP3    H262319   3.768   6.394   4.406 -1.2258 -0.8825  1.7030
13610TIP3   OH262320   1.544   3.478  16.873  0.1714 -0.4260  0.8476
13610TIP3    H162321   1.632   3.484  16.912 -0.3963 -1.8831  2.4438
13610TIP3    H262322   1.489   3.533  16.929 -0.1134 -0.3215  0.4602
13611TIP3   OH262323   3.963   0.816  11.492 -0.0567  0.0999 -0.0707
13611TIP3    H162324   3.874   0.797  11.523 -0.8081 -0.1013 -2.1878
13611TIP3    H262325   3.958   0.905  11.459 -0.2785 -0.8211 -2.7165
13612TIP3   OH262326   4.312   0.206  10.665  0.0251  0.0769  0.2265
13612TIP3    H162327   4.336   0.299  10.663  0.8407 -0.0985  1.3858
13612TIP3    H262328   4.392   0.161  10.638  0.7989 -0.4633  3.2053
13613TIP3   OH262329   4.177   2.012   2.057 -0.2581  0.0370  0.2049
13613TIP3    H162330   4.213   2.098   2.037 -2.1599  0.8075 -0.0633
13613TIP3    H262331   4.128   1.988   1.979 -1.5766 -0.2677  1.0913
13614TIP3   OH262332   4.940   5.736   3.645  0.3743 -0.6959  0.1008
13614TIP3    H162333   4.955   5.748   3.551 -0.1712 -0.4634  0.0393
13614TIP3    H262334   4.991   5.805   3.686 -2.1889  1.4798 -0.2223
13615TIP3   OH262335   3.337   5.588  11.199 -0.2114  0.6408 -0.4236
13615TIP3    H162336   3.384   5.615  11.278 -0.4500  2.1478 -0.7786
13615TIP3    H262337   3.245   5.588  11.224 -0.1817 -0.2827 -0.3063
13616TIP3   OH262338   3.753   5.287  14.091  0.0728 -0.6239 -0.1738
13616TIP3    H162339   3.698   5.265  14.016 -0.0828 -0.8511  0.0065
13616TIP3    H262340   3.692   5.298  14.163  0.1020  0.7768 -0.3296
13617TIP3   OH262341   3.363   1.228  15.362 -0.0155 -0.7720  0.0944
13617TIP3    H162342   3.271   1.202  15.368  0.3150 -1.5783  2.0313
13617TIP3    H262343   3.378   1.282  15.440  0.6703  0.9465 -1.1907
13618TIP3   OH262344   3.485   3.765   5.357  0.1430  0.1812 -0.4378
13618TIP3    H162345   3.505   3.673   5.368  0.0248  0.1773 -0.2529
13618TIP3    H262346   3.430   3.787   5.432  2.5219  1.0906  1.0783
13619TIP3   OH262347   2.991   5.380  14.890  0.4650  0.0074  0.2441
13619TIP3    H162348   3.070   5.419  14.927  0.8454 -0.5540  0.0307
13619TIP3    H262349   2.950   5.334  14.963  0.4575  0.1056  0.3020
13620TIP3   OH262350   1.012   3.669  11.694  0.1340 -0.2521 -0.6668
13620TIP3    H162351   1.027   3.762  11.714 -1.4623  0.0365 -0.7543
13620TIP3    H262352   1.082   3.623  11.740  1.5889  1.0769 -1.5038
13621TIP3   OH262353   3.780   5.930   3.190 -0.1727  0.2352  0.1902
13621TIP3    H162354   3.817   6.012   3.222  1.4753 -0.7616  0.9718
13621TIP3    H262355   3.831   5.862   3.235 -1.4842 -1.2110 -0.4509
13622TIP3   OH262356   3.007   6.539   3.899  0.3820 -0.0612  0.1506
13622TIP3    H162357   2.960   6.597   3.839  0.2192  0.5580  0.8664
13622TIP3    H262358   3.079   6.503   3.847  0.4495  0.7465 -0.3151
13623TIP3   OH262359   6.339   2.565   3.161  0.2863  0.0065  0.6474
13623TIP3    H162360   6.289   2.599   3.087  1.5313  0.5236  0.0381
13623TIP3    H262361   6.285   2.494   3.195  0.0532 -0.7596 -1.2388
13624TIP3   OH262362   1.408   5.762  12.193 -0.5205  0.5194 -0.1106
13624TIP3    H162363   1.418   5.848  12.152  0.3329  0.8120  0.6789
13624TIP3    H262364   1.442   5.774  12.281 -2.0704 -0.1787  0.5896
13625TIP3   OH262365   3.400   1.475   5.858 -0.4037 -0.7551  0.3209
13625TIP3    H162366   3.385   1.385   5.885  1.0643 -0.3144  2.7681
13625TIP3    H262367   3.323   1.498   5.806 -1.0730 -3.2041  0.1874
13626TIP3   OH262368   0.240   2.202  15.179  0.6253 -0.6501 -0.0775
13626TIP3    H162369   0.175   2.271  15.194  2.1912  0.9842 -0.7406
13626TIP3    H262370   0.264   2.172  15.267  1.5663  1.1843  0.3010
13627TIP3   OH262371   1.805   3.182  12.748  0.1406  0.3386  1.2823
13627TIP3    H162372   1.738   3.179  12.680  1.0496 -0.1372  0.3882
13627TIP3    H262373   1.883   3.216  12.704  0.8309 -0.2788  2.0056
13628TIP3   OH262374   1.033   2.146  17.047 -0.3984  0.2716  0.3627
13628TIP3    H162375   0.946   2.158  17.009 -0.1336  0.2373 -0.2509
13628TIP3    H262376   1.075   2.081  16.990  0.2459  0.7353  0.3089
13629TIP3   OH262377   1.721   4.452  11.079 -0.6712 -0.4333  1.1645
13629TIP3    H162378   1.700   4.400  11.001  1.8910  0.8127 -0.4300
13629TIP3    H262379   1.673   4.534  11.067 -1.9021 -1.0286  1.9353
13630TIP3   OH262380   4.876   5.609  14.926  0.1307 -0.1517  0.5533
13630TIP3    H162381   4.873   5.705  14.921  0.7835 -0.1668 -0.2437
13630TIP3    H262382   4.951   5.585  14.872  0.5708 -1.0589  1.5587
13631TIP3   OH262383   3.397   5.707   4.159 -0.4890  0.1312  0.0671
13631TIP3    H162384   3.341   5.684   4.233 -1.7949  0.6422 -0.7356
13631TIP3    H262385   3.394   5.802   4.155  0.6547  0.1730  0.1714
13632TIP3   OH262386   2.838   0.368  11.348 -0.4219 -0.4155 -0.7618
13632TIP3    H162387   2.747   0.375  11.377  0.0170  0.9666  0.3254
13632TIP3    H262388   2.845   0.279  11.313 -2.0831 -0.6668 -0.4920
13633TIP3   OH262389   4.074   6.298  14.407  0.1273 -0.2489  0.1340
13633TIP3    H162390   4.046   6.381  14.445 -1.4560 -1.2152  1.1797
13633TIP3    H262391   4.093   6.318  14.316  2.0979  1.7258  0.9518
13634TIP3   OH262392   1.824   6.395  10.196 -0.5450 -0.1039  0.3861
13634TIP3    H162393   1.773   6.352  10.265 -0.3811  1.5135  1.5537
13634TIP3    H262394   1.771   6.470  10.171  0.6874  0.9066  0.7553
13635TIP3   OH262395   0.520   3.543  12.091 -0.3102 -0.0721 -0.6368
13635TIP3    H162396   0.520   3.610  12.022  0.2714 -1.4131 -1.9550
13635TIP3    H262397   0.445   3.488  12.071  0.2007 -0.8098 -0.5450
13636TIP3   OH262398   3.373   2.948  12.435  0.1872  0.2700  0.2771
13636TIP3    H162399   3.387   2.947  12.340 -1.9117  0.0239 -0.0472
13636TIP3    H262400   3.434   2.882  12.468  0.3949 -0.1887 -0.9720
13637TIP3   OH262401   6.110   4.039   1.997  0.4084 -0.2175  0.2474
13637TIP3    H162402   6.145   4.014   1.912 -0.1113 -1.5857  0.4216
13637TIP3    H262403   6.066   3.960   2.029 -1.3704  0.9611  0.7785
13638TIP3   OH262404   2.616   4.506   5.667 -0.0522  0.5251  0.2070
13638TIP3    H162405   2.653   4.464   5.589 -1.3783 -1.7246  0.7461
13638TIP3    H262406   2.556   4.572   5.631 -0.2217 -0.1015 -0.6988
13639TIP3   OH262407   6.786   4.928   2.390  0.3141  0.1385  0.5293
13639TIP3    H162408   6.692   4.946   2.393  0.0078 -1.3531  0.2254
13639TIP3    H262409   6.801   4.870   2.464  1.0662  0.6532  0.7811
13640TIP3   OH262410   3.008   0.111   6.005  0.2127  0.0803 -0.0234
13640TIP3    H162411   2.987   0.017   6.012  0.3580  0.0699  0.2822
13640TIP3    H262412   3.004   0.129   5.911  1.1631 -0.4543 -0.1705
13641TIP3   OH262413   0.148   1.432   4.734  0.2579 -0.0115  0.2908
13641TIP3    H162414   0.094   1.511   4.732 -0.8262 -0.7536 -0.9371
13641TIP3    H262415   0.214   1.449   4.800 -1.4968  0.9268  1.8374
13642TIP3   OH262416   2.596   0.317   2.601  0.1352 -0.1399 -0.1174
13642TIP3    H162417   2.664   0.272   2.550  0.8661 -0.9383  1.5254
13642TIP3    H262418   2.515   0.276   2.572  0.6854 -1.7090  0.4585
13643TIP3   OH262419   6.296   1.723  12.723 -0.1979 -0.0016 -0.2457
13643TIP3    H162420   6.242   1.675  12.660 -0.8792  0.1370  0.2331
13643TIP3    H262421   6.386   1.708  12.693 -0.5529  0.6705 -1.6880
13644TIP3   OH262422   4.175   0.022   3.846 -0.4659  0.3621 -0.3125
13644TIP3    H162423   4.087   0.044   3.876 -1.3725 -3.4421 -0.0259
13644TIP3    H262424   4.168   0.016   3.751 -0.6110 -0.4045 -0.2507
13645TIP3   OH262425   1.399   1.988  10.559  0.1886 -0.1892  0.0417
13645TIP3    H162426   1.484   1.946  10.566 -0.3168 -1.4283 -1.0349
13645TIP3    H262427   1.376   2.011  10.649  1.0705 -1.0057  0.4826
13646TIP3   OH262428   3.350   5.310   4.667 -0.3329  0.6054  0.6280
13646TIP3    H162429   3.260   5.307   4.633  0.6738  0.4638 -2.1407
13646TIP3    H262430   3.368   5.403   4.678 -0.4471  0.6803  0.1826
13647TIP3   OH262431   4.446   3.296  12.194  0.3750  0.4099 -0.2603
13647TIP3    H162432   4.426   3.256  12.110 -0.5491 -0.7156  0.4891
13647TIP3    H262433   4.361   3.324  12.228  0.5526 -0.5611  1.0064
13648TIP3   OH262434   4.248   6.294  16.547  0.2272 -0.1680  0.8462
13648TIP3    H162435   4.273   6.234  16.617  0.7952 -3.0697 -1.6939
13648TIP3    H262436   4.153   6.299  16.553  0.0710 -2.2049  0.4750
13649TIP3   OH262437   4.793   3.806  16.134 -0.3973 -0.1447 -0.5775
13649TIP3    H162438   4.850   3.754  16.191 -1.7083  0.2589  1.1288
13649TIP3    H262439   4.810   3.897  16.158 -2.2198 -0.0454  0.4013
13650TIP3   OH262440   3.397   0.455   2.347  0.2752  0.0039 -0.4250
13650TIP3    H162441   3.446   0.374   2.333  1.3380  0.7562 -1.1204
13650TIP3    H262442   3.317   0.445   2.296  1.4729  0.3367 -2.4109
13651TIP3   OH262443   0.063   5.104   0.802 -0.0263  0.0242 -0.3700
13651TIP3    H162444   0.058   5.018   0.843  0.4256 -0.5546 -1.4889
13651TIP3    H262445   0.109   5.159   0.865  0.2153 -0.7157  0.1001
13652TIP3   OH262446   2.697   4.986  15.368  0.3653 -0.0916  0.1026
13652TIP3    H162447   2.709   4.901  15.411 -0.6090 -1.2437 -1.8229
13652TIP3    H262448   2.623   4.972  15.308  0.5442  1.9657 -0.6358
13653TIP3   OH262449   4.772   2.647   3.928  0.2315 -0.4682 -0.3887
13653TIP3    H162450   4.750   2.614   4.015 -1.2835 -1.7352 -1.2202
13653TIP3    H262451   4.717   2.724   3.917  0.4744 -0.2686 -0.1827
13654TIP3   OH262452   2.868   0.211  11.803  0.0331 -0.1160 -0.5416
13654TIP3    H162453   2.784   0.208  11.756  1.2722 -0.3689 -2.8387
13654TIP3    H262454   2.881   0.304  11.823 -0.1815  0.1109 -1.3980
13655TIP3   OH262455   0.569   6.089   4.795  0.6263 -0.1060 -0.1741
13655TIP3    H162456   0.566   6.182   4.818 -0.0890  0.1942 -1.4422
13655TIP3    H262457   0.580   6.044   4.879  4.6504  1.2818  0.1798
13656TIP3   OH262458   2.126   5.789  17.259 -0.2552 -0.6226 -0.0150
13656TIP3    H162459   2.089   5.798  17.347 -0.5597 -3.1252  0.1416
13656TIP3    H262460   2.051   5.771  17.203 -0.0372  0.7832 -0.7660
13657TIP3   OH262461   1.026   1.452  12.165  0.5829 -0.4648 -0.7642
13657TIP3    H162462   0.972   1.404  12.228  1.6776 -1.6411 -0.6994
13657TIP3    H262463   1.116   1.432  12.191  1.0546 -0.8326 -2.5943
13658TIP3   OH262464   1.417   3.344   5.384 -0.3916 -0.8650 -0.3865
13658TIP3    H162465   1.479   3.328   5.455  0.9045 -1.9021 -1.7175
13658TIP3    H262466   1.368   3.262   5.376 -1.7752 -0.1503  0.4664
13659TIP3   OH262467   2.055   0.881   0.337  0.4104  0.7116 -0.0484
13659TIP3    H162468   2.023   0.842   0.256  2.9076 -0.0473 -0.7364
13659TIP3    H262469   2.012   0.832   0.407  0.1902 -0.3651 -0.9357
13660TIP3   OH262470   1.663   5.810   3.484  0.0034 -0.9200 -0.7271
13660TIP3    H162471   1.687   5.901   3.467 -0.7840 -0.8361 -1.4422
13660TIP3    H262472   1.740   5.760   3.458  0.1479 -0.5104 -1.1016
13661TIP3   OH262473   4.699   1.172  15.093 -0.0421 -0.0775  0.0494
13661TIP3    H162474   4.689   1.181  14.998  0.1987 -0.2476  0.0081
13661TIP3    H262475   4.617   1.132  15.123 -0.3333  0.4647 -0.0195
13662TIP3   OH262476   1.087   2.713  11.874  0.8618 -0.4827 -0.4118
13662TIP3    H162477   1.178   2.734  11.853  0.6361  1.2850  0.2703
13662TIP3    H262478   1.046   2.798  11.889 -0.6502 -1.3165  0.3080
13663TIP3   OH262479   2.788   5.840  15.606  0.1045  0.3880 -0.4012
13663TIP3    H162480   2.760   5.783  15.534  1.5638 -0.3593 -0.4116
13663TIP3    H262481   2.734   5.918  15.598  0.0378  0.1876 -2.1380
13664TIP3   OH262482   5.409   2.139   2.494  0.3238 -0.2858 -0.3649
13664TIP3    H162483   5.345   2.089   2.545  0.0895  0.8746  0.5189
13664TIP3    H262484   5.441   2.206   2.555  0.6266  0.6391 -1.5059
13665TIP3   OH262485   5.545   0.183   1.755 -0.8274 -0.4984  0.2266
13665TIP3    H162486   5.548   0.107   1.814  0.7388 -0.6679 -0.0595
13665TIP3    H262487   5.503   0.252   1.806  2.4536  0.0303  2.3654
13666TIP3   OH262488   4.542   0.343  11.663 -0.2668  0.2535  0.2267
13666TIP3    H162489   4.458   0.372  11.628 -0.0495 -1.1393 -1.5351
13666TIP3    H262490   4.535   0.247  11.667  0.7780  0.2046  1.2647
13667TIP3   OH262491   1.140   6.243   3.874  0.0677  0.5068  0.0226
13667TIP3    H162492   1.189   6.316   3.835  1.1757  0.2892  0.9721
13667TIP3    H262493   1.053   6.279   3.890 -0.2956  0.7121 -2.2745
13668TIP3   OH262494   1.298   4.662  16.067  0.2510 -0.0841  0.4922
13668TIP3    H162495   1.322   4.746  16.029  2.0311 -0.6375  0.3222
13668TIP3    H262496   1.227   4.681  16.127 -0.7864  1.2197 -1.1020
13669TIP3   OH262497   3.396   2.009   3.491  0.2746 -0.3232 -0.2186
13669TIP3    H162498   3.358   1.960   3.564 -0.1125 -1.2191 -1.0058
13669TIP3    H262499   3.472   2.053   3.529 -0.9625  0.6672  1.1221
13670TIP3   OH262500   3.506   3.805  12.768 -0.0582  0.4837  0.2577
13670TIP3    H162501   3.427   3.858  12.774 -0.0487  0.8657 -2.3060
13670TIP3    H262502   3.560   3.850  12.703  0.9165 -1.4522 -0.3176
13671TIP3   OH262503   0.883   2.149   0.014 -0.3634  0.0408 -0.7382
13671TIP3    H162504   0.895   2.242  -0.005 -1.5179  0.4399  0.4652
13671TIP3    H262505   0.965   2.123   0.057  0.8781 -0.0635 -3.0661
13672TIP3   OH262506   2.802   4.927  12.715  0.1669 -0.4238  0.3129
13672TIP3    H162507   2.716   4.967  12.704  0.4457  0.6384  1.7568
13672TIP3    H262508   2.784   4.836  12.738 -0.5213 -0.7266 -1.3784
13673TIP3   OH262509   6.360   2.793   0.542 -0.1589  0.1850  0.2732
13673TIP3    H162510   6.455   2.803   0.541 -0.0703 -0.7518 -1.8888
13673TIP3    H262511   6.327   2.875   0.505 -0.0719 -0.5678 -1.5128
13674TIP3   OH262512   2.250   3.984  13.448 -0.2982  0.2911  0.0421
13674TIP3    H162513   2.183   3.930  13.407  0.6004  0.0676 -1.1364
13674TIP3    H262514   2.307   3.921  13.494  0.0128  0.3474 -0.2676
13675TIP3   OH262515   4.725   5.935  13.784  0.0476  0.3448 -0.3126
13675TIP3    H162516   4.762   6.021  13.807  1.0128 -0.2850  0.5518
13675TIP3    H262517   4.762   5.875  13.849  0.7276 -1.0411 -1.9335
13676TIP3   OH262518   0.823   1.992   1.927  0.1996 -0.6909 -0.2734
13676TIP3    H162519   0.748   2.047   1.907 -0.4540 -1.7644 -0.8380
13676TIP3    H262520   0.876   1.993   1.847  0.2740 -0.7504 -0.2254
13677TIP3   OH262521   5.316   5.010   1.553 -0.0519  0.2931 -0.3184
13677TIP3    H162522   5.357   4.924   1.567 -0.8561 -0.1026 -0.4027
13677TIP3    H262523   5.252   4.995   1.484 -1.4567  0.5570  0.8948
13678TIP3   OH262524   1.664   5.262  12.037 -0.0712  0.5007 -0.4395
13678TIP3    H162525   1.631   5.238  12.123 -0.1362  0.4595 -0.4747
13678TIP3    H262526   1.656   5.181  11.985 -0.1464  0.5575 -0.5162
13679TIP3   OH262527   6.501   0.202   3.466 -0.4863  0.1115 -0.3588
13679TIP3    H162528   6.504   0.148   3.545 -2.7517  0.6194  0.1129
13679TIP3    H262529   6.467   0.143   3.398  1.1569 -0.2356 -0.9053
13680TIP3   OH262530   4.582   5.703   3.261  0.2423 -0.0795  0.3454
13680TIP3    H162531   4.579   5.794   3.232 -1.2127 -0.3354 -0.3498
13680TIP3    H262532   4.627   5.657   3.190 -2.2568 -0.5001 -1.0453
13681TIP3   OH262533   4.087   3.957  12.123  0.3840 -0.8820  0.7737
13681TIP3    H162534   4.023   3.916  12.182 -1.5014 -0.8165 -1.1470
13681TIP3    H262535   4.076   3.911  12.040  0.5055  1.3439 -0.5298
13682TIP3   OH262536   2.675   4.524  15.501 -0.2070 -0.2821 -0.6037
13682TIP3    H162537   2.756   4.476  15.482 -0.5385 -1.1959  0.2561
13682TIP3    H262538   2.611   4.491  15.438 -0.5201 -1.2059  0.1920
13683TIP3   OH262539   6.157   3.857  13.913  0.2442 -0.2126  0.1513
13683TIP3    H162540   6.158   3.952  13.920  1.2075 -0.2394  0.3737
13683TIP3    H262541   6.240   3.828  13.951  1.8379 -0.8766 -3.5830
13684TIP3   OH262542   2.221   1.715   1.015  0.6918  0.1678  0.1358
13684TIP3    H162543   2.165   1.689   1.087  0.5641  0.7627  0.2541
13684TIP3    H262544   2.187   1.800   0.987  0.4012 -0.2990 -0.9752
13685TIP3   OH262545   2.964   6.785  13.006  0.3884 -0.5676  0.3549
13685TIP3    H162546   2.994   6.848  13.071  1.2755 -1.2795  0.6459
13685TIP3    H262547   3.026   6.794  12.933 -1.1690  0.9198 -0.8217
13686TIP3   OH262548   6.373   3.506  14.263 -0.8292  0.0562  0.1173
13686TIP3    H162549   6.452   3.468  14.224 -0.8518 -0.7013  0.8030
13686TIP3    H262550   6.301   3.458  14.222 -0.8937 -0.0118  0.3103
13687TIP3   OH262551   1.497   5.115   0.152 -0.2959  0.3769  0.0940
13687TIP3    H162552   1.568   5.150   0.205  0.1840 -0.5957  0.1015
13687TIP3    H262553   1.496   5.170   0.073 -0.2056  1.0335  0.5481
13688TIP3   OH262554   1.777   3.464   6.501 -0.3397 -0.2975  0.3056
13688TIP3    H162555   1.774   3.386   6.557 -0.4074  0.1503  0.9362
13688TIP3    H262556   1.688   3.499   6.504 -0.0568  0.3957  0.8902
13689TIP3   OH262557   3.736   5.630   5.088  0.5398  0.0435 -0.3020
13689TIP3    H162558   3.799   5.638   5.017  0.5469 -0.3279 -0.3412
13689TIP3    H262559   3.665   5.577   5.050 -0.3334  1.4117 -0.6215
13690TIP3   OH262560   6.560   4.601  11.448 -0.8159  0.1665 -0.1034
13690TIP3    H162561   6.481   4.548  11.463 -0.0102 -1.5448 -1.7474
13690TIP3    H262562   6.604   4.559  11.374  1.9700  0.7411  1.1625
13691TIP3   OH262563   3.519   1.497   3.239 -0.4310 -0.2256  0.1237
13691TIP3    H162564   3.472   1.417   3.217  0.2891 -0.6776  0.2036
13691TIP3    H262565   3.454   1.566   3.231 -0.8462 -0.7108 -0.8151
13692TIP3   OH262566   1.969   2.138  12.195  0.0026 -0.1156 -0.2978
13692TIP3    H162567   2.003   2.227  12.197  0.6038 -0.3627  0.4157
13692TIP3    H262568   2.045   2.084  12.177  0.1358 -0.7436  2.0742
13693TIP3   OH262569   3.396   2.427  17.191 -0.2573  0.0687  0.0012
13693TIP3    H162570   3.350   2.506  17.165 -0.6615 -0.1808 -0.0526
13693TIP3    H262571   3.454   2.454  17.262  1.2087  0.8491 -1.4792
13694TIP3   OH262572   0.618   5.772   0.668 -0.2223  0.3900  0.2212
13694TIP3    H162573   0.541   5.798   0.617 -1.9018 -0.9870  2.0066
13694TIP3    H262574   0.681   5.843   0.653 -1.1797  0.7043 -2.6077
13695TIP3   OH262575   0.299   0.751   3.270 -0.6794 -0.4112 -0.2429
13695TIP3    H162576   0.312   0.845   3.280 -0.8143 -0.3641 -0.5140
13695TIP3    H262577   0.386   0.713   3.282 -0.3322 -0.1182 -1.8055
13696TIP3   OH262578   1.296   3.937   0.362  0.3921  0.2009 -0.1631
13696TIP3    H162579   1.365   3.876   0.335 -0.7590 -0.6874 -1.2372
13696TIP3    H262580   1.326   4.022   0.332  0.9209 -0.2147 -0.8507
13697TIP3   OH262581   2.443   1.365   5.449 -0.0562 -0.5354  0.1336
13697TIP3    H162582   2.386   1.395   5.520  0.3053  2.5223 -0.7650
13697TIP3    H262583   2.467   1.276   5.473 -1.7373 -0.3573  2.7087
13698TIP3   OH262584   4.116   2.439   4.110  0.4369  0.2137  1.0902
13698TIP3    H162585   4.174   2.515   4.105  1.1289 -0.3072  1.0081
13698TIP3    H262586   4.176   2.365   4.120 -0.1911 -0.3947  0.3573
13699TIP3   OH262587   6.262   3.449  13.641 -0.9029 -0.1662  0.5437
13699TIP3    H162588   6.292   3.359  13.654 -0.6511 -0.0730  0.6224
13699TIP3    H262589   6.302   3.498  13.714  1.5396  0.5949 -1.2294
13700TIP3   OH262590   2.197   1.371   0.731 -0.0078  0.0361  0.7721
13700TIP3    H162591   2.226   1.462   0.735  0.1816 -0.0399  1.2138
13700TIP3    H262592   2.259   1.329   0.671  1.1627 -0.2504  2.1646
13701TIP3   OH262593   3.491   6.754  14.780  0.1008  0.3316  0.4324
13701TIP3    H162594   3.400   6.725  14.786  0.3885 -0.4127  1.2329
13701TIP3    H262595   3.543   6.676  14.800  0.8745  1.3404  2.4755
13702TIP3   OH262596   6.596   4.430   4.701 -0.5380 -0.7749 -0.1603
13702TIP3    H162597   6.504   4.409   4.719 -0.8264  0.4506 -0.1713
13702TIP3    H262598   6.602   4.525   4.712  0.8515 -0.9137  0.3637
13703TIP3   OH262599   6.440   3.355   5.356 -0.3153 -0.3295 -0.1696
13703TIP3    H162600   6.403   3.390   5.275 -0.8554 -0.8766 -0.1609
13703TIP3    H262601   6.531   3.385   5.356 -1.1384  2.2974  0.5481
13704TIP3   OH262602   0.348   4.109  13.239 -0.5236 -0.0433 -0.5722
13704TIP3    H162603   0.340   4.204  13.229 -0.1137  0.1774  0.9755
13704TIP3    H262604   0.317   4.092  13.328  1.0611 -1.1263 -0.1920
13705TIP3   OH262605   2.948   1.980  14.328  0.5576 -0.6633 -0.0052
13705TIP3    H162606   2.904   2.064  14.345  0.5230 -0.7965  0.5801
13705TIP3    H262607   2.880   1.914  14.341  0.5519 -0.7722 -0.6022
13706TIP3   OH262608   0.616   0.300   4.922 -0.3428  1.0473  0.5265
13706TIP3    H162609   0.665   0.373   4.960 -2.5602  2.4238  0.8257
13706TIP3    H262610   0.650   0.292   4.833 -0.3337  2.7055  0.3590
13707TIP3   OH262611   2.857   2.383  16.364  1.2270 -0.4455  0.3979
13707TIP3    H162612   2.947   2.406  16.386  1.6583 -0.6488 -1.0986
13707TIP3    H262613   2.831   2.448  16.298  0.1952 -0.2260  1.0119
13708TIP3   OH262614   0.783   5.654  16.012 -0.0128  0.2093  0.1926
13708TIP3    H162615   0.771   5.661  16.107  0.6886 -0.0263  0.3017
13708TIP3    H262616   0.849   5.720  15.991  0.0407  0.0674 -0.0946
13709TIP3   OH262617   3.015   4.660  14.120 -0.0467 -0.0891 -0.2184
13709TIP3    H162618   3.072   4.736  14.135  0.0442  0.2497 -2.1294
13709TIP3    H262619   2.942   4.696  14.069  0.0943 -1.3270 -1.3007
13710TIP3   OH262620   0.758   2.091   6.032 -0.1788  0.6856 -0.3102
13710TIP3    H162621   0.776   2.124   6.119  0.5643 -1.8956  0.5510
13710TIP3    H262622   0.720   2.004   6.046 -0.4733  0.4162 -2.5343
13711TIP3   OH262623   3.607   0.330  13.096 -0.3066  0.1592  0.1396
13711TIP3    H162624   3.521   0.302  13.126 -1.2032  0.7418 -1.8313
13711TIP3    H262625   3.664   0.255  13.116 -0.8987  0.4026  2.9556
13712TIP3   OH262626   3.687   4.508   0.814 -0.3100  0.0348 -0.4143
13712TIP3    H162627   3.692   4.586   0.759 -1.1865  1.1079  1.0039
13712TIP3    H262628   3.596   4.480   0.808 -0.1621 -0.4660 -0.3377
13713TIP3   OH262629   6.553   1.051   5.077  0.1145  0.3324 -0.4391
13713TIP3    H162630   6.494   1.117   5.043 -1.7528 -2.8991 -3.7991
13713TIP3    H262631   6.620   1.041   5.010  0.6806 -0.7926  0.2691
13714TIP3   OH262632   6.417   4.276  11.641  0.5995  0.2111  0.0128
13714TIP3    H162633   6.423   4.228  11.558  1.0920  0.5230 -0.1370
13714TIP3    H262634   6.509   4.295  11.664  0.4232  0.7976  0.2358
13715TIP3   OH262635   2.254   0.790  17.070 -0.4709 -0.8937 -0.0463
13715TIP3    H162636   2.237   0.696  17.065  0.5197 -1.0392 -0.8095
13715TIP3    H262637   2.203   0.828  16.998 -1.0602 -0.8077  0.4082
13716TIP3   OH262638   6.468   0.324   1.911 -0.0479  0.4709 -0.8502
13716TIP3    H162639   6.521   0.275   1.974 -0.3298 -0.1606 -1.1046
13716TIP3    H262640   6.497   0.415   1.922 -0.8879  0.5324  0.9726
13717TIP3   OH262641   6.548   0.867  14.445  0.3294 -0.0003 -0.0144
13717TIP3    H162642   6.624   0.823  14.484 -0.6284 -0.2891  1.5819
13717TIP3    H262643   6.549   0.954  14.484  0.5608  0.4305 -0.9669
13718TIP3   OH262644   5.705   0.778  17.220 -0.2772 -0.1251  0.1169
13718TIP3    H162645   5.768   0.722  17.265  0.6045  0.2516 -0.6313
13718TIP3    H262646   5.658   0.720  17.161  1.6508  0.1560 -1.7396
13719TIP3   OH262647   4.620   4.246  14.717  0.6727  0.4367 -0.2856
13719TIP3    H162648   4.546   4.208  14.765  0.4420  1.6452  0.3471
13719TIP3    H262649   4.674   4.171  14.692 -1.0014 -0.5163 -1.1592
13720TIP3   OH262650   3.158   5.823   4.446  0.1630 -0.1540  0.0523
13720TIP3    H162651   3.126   5.741   4.410 -1.1329  0.2305  0.3090
13720TIP3    H262652   3.086   5.857   4.499  0.3505  1.5557 -0.7249
13721TIP3   OH262653   0.814   0.393  12.236 -0.1564 -0.6382  0.3851
13721TIP3    H162654   0.867   0.411  12.314  2.3870  0.3268 -1.5121
13721TIP3    H262655   0.821   0.298  12.224  0.6091 -0.5991  0.5135
13722TIP3   OH262656   0.324   3.467  10.690 -0.0534 -0.4347  0.3213
13722TIP3    H162657   0.265   3.446  10.763 -0.1610 -0.7019  0.1560
13722TIP3    H262658   0.302   3.403  10.622  0.7039 -0.7853  0.4105
13723TIP3   OH262659   1.806   5.048   1.169 -0.0600  0.3084 -0.0471
13723TIP3    H162660   1.838   5.137   1.152 -1.5126  0.4808 -2.0019
13723TIP3    H262661   1.754   5.026   1.092 -2.4718 -0.9767  1.8858
13724TIP3   OH262662   0.516   0.849  13.534 -0.1110 -0.1409  0.1944
13724TIP3    H162663   0.587   0.840  13.597 -1.1621 -1.5429  1.2170
13724TIP3    H262664   0.489   0.759  13.516 -1.2394  0.3498 -0.6276
13725TIP3   OH262665   1.979   3.622  12.715  0.1599 -0.1906  0.1827
13725TIP3    H162666   1.911   3.688  12.726 -0.0695 -0.2346 -0.9693
13725TIP3    H262667   2.053   3.655  12.767  0.1692  1.1420 -0.6651
13726TIP3   OH262668   6.118   1.168   4.208 -0.0604  0.4814 -0.2995
13726TIP3    H162669   6.174   1.230   4.253  0.0927 -0.4387  0.7832
13726TIP3    H262670   6.034   1.175   4.253  0.1689 -0.6267  0.3122
13727TIP3   OH262671   2.029   0.697  14.114  0.4448  0.4991  0.1330
13727TIP3    H162672   2.005   0.678  14.205  0.3531 -0.6474 -0.1188
13727TIP3    H262673   2.090   0.770  14.120 -0.0206  0.8208  1.0742
13728TIP3   OH262674   3.164   0.229   3.804  0.2395 -0.3611 -0.0857
13728TIP3    H162675   3.128   0.173   3.873  1.9073 -0.7336  0.4986
13728TIP3    H262676   3.149   0.318   3.835  2.3657 -0.5370  1.5026
13729TIP3   OH262677   4.325   6.496  13.547 -0.1084  0.3512 -0.1022
13729TIP3    H162678   4.264   6.479  13.475  0.0856 -1.0418  0.0562
13729TIP3    H262679   4.270   6.495  13.625 -0.2347  1.3482 -0.1674
13730TIP3   OH262680   5.419   2.190  15.410 -0.0503  0.2215 -0.0747
13730TIP3    H162681   5.370   2.259  15.365 -1.8014  0.4692  2.1031
13730TIP3    H262682   5.456   2.234  15.487  0.5494 -0.8071  0.2337
13731TIP3   OH262683   5.701   3.320  11.840  0.0312  0.6641 -0.5451
13731TIP3    H162684   5.754   3.335  11.762 -0.5724 -1.6627 -1.4514
13731TIP3    H262685   5.750   3.257  11.892 -1.6626 -1.3317 -1.2773
13732TIP3   OH262686   0.174   3.984   5.100 -0.0276 -0.6552 -0.0660
13732TIP3    H162687   0.098   4.025   5.058 -0.3499  0.3292  1.4333
13732TIP3    H262688   0.232   3.961   5.027 -0.9845  0.1604 -1.1128
13733TIP3   OH262689   6.326   6.396  17.120  0.6631 -0.4546 -0.3311
13733TIP3    H162690   6.415   6.429  17.128 -0.1944  1.6115  1.2293
13733TIP3    H262691   6.271   6.472  17.138 -1.4278 -1.4932 -2.1562
13734TIP3   OH262692   0.449   3.693   5.896  0.0722 -0.3240  0.2579
13734TIP3    H162693   0.512   3.764   5.912 -0.0904 -0.3860  1.2145
13734TIP3    H262694   0.369   3.723   5.938  0.2880 -1.5167  1.5681
13735TIP3   OH262695   3.388   3.268   2.408 -0.0683 -0.3398  0.0555
13735TIP3    H162696   3.453   3.296   2.472  1.6697 -1.1743 -1.3074
13735TIP3    H262697   3.375   3.175   2.426  0.0484 -0.4609 -0.4877
13736TIP3   OH262698   0.025   1.744   4.851 -0.7445 -0.0035  0.0561
13736TIP3    H162699   0.098   1.797   4.882 -0.9676  0.0774  0.4396
13736TIP3    H262700   0.048   1.723   4.760 -0.8120  1.0264 -0.2055
13737TIP3   OH262701   5.067   2.179  16.252 -0.5194  0.0142  0.3040
13737TIP3    H162702   5.135   2.170  16.185 -0.3064  1.0405  0.3826
13737TIP3    H262703   5.058   2.091  16.289  0.1340 -0.3172 -0.3202
13738TIP3   OH262704   1.732   1.560   4.023  0.2102  0.2800 -0.0170
13738TIP3    H162705   1.706   1.641   3.980 -0.8873 -0.3301 -0.5299
13738TIP3    H262706   1.671   1.551   4.097  0.1041 -0.2369 -0.1598
13739TIP3   OH262707   1.843   2.508  16.400 -0.3546  0.0699 -0.0303
13739TIP3    H162708   1.881   2.485  16.485 -0.4972  1.8201  0.5270
13739TIP3    H262709   1.762   2.457  16.395  1.1169 -2.3285 -0.4556
13740TIP3   OH262710   2.130   6.222   4.270  0.4523 -0.1757 -0.4786
13740TIP3    H162711   2.136   6.317   4.271 -0.1436 -0.1254 -1.2635
13740TIP3    H262712   2.147   6.197   4.179 -1.4188 -0.6653 -0.7216
13741TIP3   OH262713   0.531   3.201   0.170 -0.1078 -1.3784 -0.5611
13741TIP3    H162714   0.473   3.127   0.185 -0.4843 -0.8617  0.5923
13741TIP3    H262715   0.603   3.188   0.233 -1.1071  0.1975  0.9541
13742TIP3   OH262716   4.882   4.015  12.918  0.3729 -0.4583 -0.2118
13742TIP3    H162717   4.815   4.031  12.985  1.2194 -1.6230  0.9215
13742TIP3    H262718   4.848   3.942  12.866  0.1594 -0.1747 -0.4779
13743TIP3   OH262719   5.086   0.556  13.381  0.1857 -0.2698 -0.1280
13743TIP3    H162720   5.029   0.526  13.310  0.7552 -0.3869 -0.5412
13743TIP3    H262721   5.052   0.642  13.404 -0.0653 -0.2729 -0.4784
13744TIP3   OH262722   5.114   1.212   1.310 -0.4831  0.4535 -0.0445
13744TIP3    H162723   5.024   1.244   1.302 -1.2574 -1.6914 -0.2218
13744TIP3    H262724   5.110   1.145   1.378  0.4283 -1.6291 -1.9836
13745TIP3   OH262725   5.758   2.761  15.191  0.0590 -0.1669  0.3086
13745TIP3    H162726   5.710   2.733  15.269  0.2154 -1.2805  0.0161
13745TIP3    H262727   5.721   2.709  15.120  0.1416  0.6062 -0.3074
13746TIP3   OH262728   5.687   0.860  14.223 -0.0692 -0.7330  1.0853
13746TIP3    H162729   5.613   0.921  14.223  0.2950 -0.1301 -2.9746
13746TIP3    H262730   5.647   0.774  14.235 -1.7195 -0.5787 -2.5506
13747TIP3   OH262731   1.495   3.056   2.023  0.0590  0.3193  0.0857
13747TIP3    H162732   1.516   3.143   2.057  0.9959  0.7835 -1.6059
13747TIP3    H262733   1.562   2.999   2.061  1.7886  1.0284 -1.7790
13748TIP3   OH262734   3.661   4.563  12.771  0.0868 -0.2689 -0.7845
13748TIP3    H162735   3.602   4.487  12.766  0.4340 -0.6653  0.9495
13748TIP3    H262736   3.632   4.620  12.699 -1.3298 -1.2270 -1.0021
13749TIP3   OH262737   1.352   1.091  15.703  0.0696  0.0260  0.7589
13749TIP3    H162738   1.435   1.101  15.751  0.4341 -1.8781  0.5361
13749TIP3    H262739   1.378   1.087  15.611 -0.5617  2.7024  0.4190
13750TIP3   OH262740   6.014   5.015  14.070  0.0255  0.5056 -0.5525
13750TIP3    H162741   5.953   5.088  14.075 -1.1686 -0.5794  1.1584
13750TIP3    H262742   6.101   5.056  14.077 -0.4943  2.0142 -2.6489
13751TIP3   OH262743   4.930   4.589   1.185 -0.3721 -0.2789  0.1531
13751TIP3    H162744   4.994   4.520   1.174 -0.8433 -0.5657 -0.8383
13751TIP3    H262745   4.979   4.670   1.170  0.2134 -0.3778  1.4740
13752TIP3   OH262746   6.214   6.092  13.496 -0.2147  0.0392 -0.0403
13752TIP3    H162747   6.157   6.064  13.425 -1.4725  0.4679  0.7827
13752TIP3    H262748   6.164   6.074  13.576  0.9512  0.0767  0.7104
13753TIP3   OH262749   4.705   2.594   2.870  0.5047  0.2138  0.0652
13753TIP3    H162750   4.648   2.613   2.795  0.1076 -1.2552 -0.0266
13753TIP3    H262751   4.793   2.589   2.832  0.1807 -1.5842 -0.5189
13754TIP3   OH262752   0.914   2.117   2.159  0.2419  0.6200  0.5072
13754TIP3    H162753   0.874   2.085   2.078 -0.4645  2.4282  0.1159
13754TIP3    H262754   0.999   2.152   2.131  0.8661 -0.5740  0.8790
13755TIP3   OH262755   6.765   0.997  13.978 -0.1345  0.6730  0.7475
13755TIP3    H162756   6.728   1.054  13.911  0.0605  1.0425  0.9545
13755TIP3    H262757   6.781   0.914  13.932 -1.1709  0.5189  0.6497
13756TIP3   OH262758   3.858   2.604   3.200  0.4923 -0.0719  0.3016
13756TIP3    H162759   3.776   2.651   3.188 -1.2024 -3.0845 -0.4598
13756TIP3    H262760   3.895   2.597   3.112  1.2444  0.7350  0.5549
13757TIP3   OH262761   3.354   0.737  15.865 -0.2657 -0.1081  0.4434
13757TIP3    H162762   3.432   0.749  15.918  0.1502 -0.9334  0.0244
13757TIP3    H262763   3.336   0.643  15.869  0.0197 -0.2450 -1.2049
13758TIP3   OH262764   6.457   3.850   5.528 -0.6084 -0.3004  0.4185
13758TIP3    H162765   6.473   3.905   5.604  2.0436  0.6190 -0.7541
13758TIP3    H262766   6.544   3.827   5.496 -1.6596 -3.8238 -0.1105
13759TIP3   OH262767   4.430   6.646  16.280  0.2500  0.1404  0.4369
13759TIP3    H162768   4.474   6.676  16.201  0.8090  0.5599  0.9039
13759TIP3    H262769   4.339   6.674  16.269  0.5957  1.2862  0.5048
13760TIP3   OH262770   2.643   6.675  11.825 -0.1535  0.5560 -0.2382
13760TIP3    H162771   2.690   6.634  11.752 -1.2357  0.9334 -1.1535
13760TIP3    H262772   2.642   6.608  11.894  2.9790  1.0224  0.3632
13761TIP3   OH262773   1.988   3.096  11.199 -0.1288  0.1288  0.0690
13761TIP3    H162774   2.008   3.160  11.131 -0.0655 -1.6024 -1.5874
13761TIP3    H262775   1.938   3.144  11.264 -2.3002  1.2602 -2.3653
13762TIP3   OH262776   2.127   4.830   3.098  0.4697  0.0014  0.1453
13762TIP3    H162777   2.051   4.877   3.131  0.9179  0.3147  0.7389
13762TIP3    H262778   2.192   4.898   3.080  0.6287 -0.2686 -0.3167
13763TIP3   OH262779   4.165   0.884   1.028  0.5112 -0.2268  0.1034
13763TIP3    H162780   4.234   0.928   0.979  0.5896 -1.9912 -1.3940
13763TIP3    H262781   4.210   0.814   1.076  0.0388 -0.2009  0.5952
13764TIP3   OH262782   3.587   0.731   5.148 -0.3434 -0.1942  0.2030
13764TIP3    H162783   3.562   0.694   5.064 -2.5520  1.2515  0.1746
13764TIP3    H262784   3.674   0.696   5.165  0.3692 -0.0983 -2.9270
13765TIP3   OH262785   2.232   1.958  16.845 -0.2910  0.3648  0.1504
13765TIP3    H162786   2.304   1.897  16.856  0.0332  0.8990  1.0274
13765TIP3    H262787   2.199   1.941  16.757 -1.6727 -2.6416  1.1811
13766TIP3   OH262788   6.163   3.414  17.205  0.4987 -0.1033 -0.3262
13766TIP3    H162789   6.151   3.504  17.174 -0.8490 -0.3370 -0.5184
13766TIP3    H262790   6.199   3.367  17.129 -0.5166 -0.1326 -0.7917
13767TIP3   OH262791   6.171   0.831  14.144  0.3564 -0.2632 -0.3256
13767TIP3    H162792   6.248   0.786  14.177 -0.4139 -0.7621  0.8619
13767TIP3    H262793   6.165   0.806  14.052  1.0862 -0.9617 -0.1911
13768TIP3   OH262794   3.461   3.392  16.545 -0.1114  0.2091 -0.4617
13768TIP3    H162795   3.445   3.449  16.470 -0.9996 -0.1716 -0.5681
13768TIP3    H262796   3.374   3.379  16.584  0.1410 -0.7437 -0.2054
13769TIP3   OH262797   0.406   1.835  13.531  0.3759 -0.0436 -0.0308
13769TIP3    H162798   0.422   1.880  13.448  0.8083  0.2865  0.2237
13769TIP3    H262799   0.311   1.832  13.540  0.3416  0.8252 -0.0537
13770TIP3   OH262800   0.248   2.522  12.299  0.2340  0.5940 -0.3975
13770TIP3    H162801   0.170   2.528  12.354 -0.3783  0.0688 -1.2038
13770TIP3    H262802   0.271   2.613  12.281 -0.0209  0.7548  0.0756
13771TIP3   OH262803   5.911   3.950   5.098 -0.0364  0.2673  0.2157
13771TIP3    H162804   5.966   4.012   5.146  0.0088 -0.1041  0.6428
13771TIP3    H262805   5.857   3.908   5.165  0.8328 -1.0819  0.0872
13772TIP3   OH262806   5.682   6.768   4.400 -0.2938  0.0524 -0.7132
13772TIP3    H162807   5.713   6.685   4.364 -2.6191 -0.5192 -1.4660
13772TIP3    H262808   5.608   6.745   4.455 -1.4592  1.7018 -1.5670
13773TIP3   OH262809   5.775   2.538   2.612 -0.5000  0.0216 -0.3079
13773TIP3    H162810   5.755   2.483   2.537  0.6491 -0.4773 -0.2660
13773TIP3    H262811   5.799   2.623   2.574  0.9586 -0.4960 -0.5632
13774TIP3   OH262812   6.286   3.771  16.617 -0.4990 -0.2387  0.1159
13774TIP3    H162813   6.218   3.828  16.653 -0.6677 -0.3460 -0.0376
13774TIP3    H262814   6.265   3.684  16.652  0.5442  0.0277  1.4842
13775TIP3   OH262815   6.168   4.740   0.632  0.1041  0.2568  0.6819
13775TIP3    H162816   6.252   4.741   0.679  1.1240 -0.1572 -1.0812
13775TIP3    H262817   6.181   4.677   0.562 -1.3899  0.8929 -0.1834
13776TIP3   OH262818   4.093   0.518   6.005  0.1493  0.1515 -0.5864
13776TIP3    H162819   4.150   0.595   6.007  0.9569 -0.3708 -2.6908
13776TIP3    H262820   4.015   0.547   5.958  0.4443 -0.3129 -1.3590
13777TIP3   OH262821   1.518   1.262   2.927 -0.3743 -0.4173  0.4295
13777TIP3    H162822   1.436   1.213   2.934 -0.5450 -0.1774  0.1310
13777TIP3    H262823   1.491   1.353   2.912 -0.0567 -0.2725  0.7345
13778TIP3   OH262824   3.844   5.871  17.077  0.8501 -0.0728 -0.2217
13778TIP3    H162825   3.785   5.796  17.078  2.4359 -1.4003  2.9180
13778TIP3    H262826   3.895   5.861  16.997 -1.6825 -0.0782 -1.8701
13779TIP3   OH262827   2.768   2.379  11.411  0.1022  0.3012  0.0603
13779TIP3    H162828   2.828   2.306  11.399  0.0184  0.2272  0.0829
13779TIP3    H262829   2.726   2.360  11.495  0.7587  0.8668  0.5130
13780TIP3   OH262830   0.265   1.742   1.771 -0.8289 -0.3324 -0.0596
13780TIP3    H162831   0.201   1.812   1.759  0.5680  0.6141 -2.3697
13780TIP3    H262832   0.245   1.679   1.702  0.7578  0.0425 -0.8997
13781TIP3   OH262833   1.643   6.039   2.065  0.0817  0.2537 -0.4095
13781TIP3    H162834   1.596   5.962   2.098  0.4155  0.9103  1.7221
13781TIP3    H262835   1.577   6.108   2.063  0.7965  1.1039  2.3159
13782TIP3   OH262836   1.632   3.956   4.806 -0.3282  0.0740  0.5849
13782TIP3    H162837   1.578   3.965   4.884 -1.2721  0.4701 -0.1022
13782TIP3    H262838   1.685   4.036   4.804 -1.1964  0.6491  0.1553
13783TIP3   OH262839   5.136   4.410   1.139  0.3233  0.2457  0.1758
13783TIP3    H162840   5.134   4.376   1.049 -0.1465  0.2610  0.1796
13783TIP3    H262841   5.229   4.422   1.158  0.4020  0.7995 -0.5224
13784TIP3   OH262842   2.901   1.755   2.833  0.0073 -0.1163 -0.1299
13784TIP3    H162843   2.971   1.741   2.897 -0.0498 -0.9317 -0.2485
13784TIP3    H262844   2.886   1.850   2.835 -0.2748 -0.1788  1.3718
13785TIP3   OH262845   1.255   3.759   5.775 -0.7765 -0.1557 -0.2022
13785TIP3    H162846   1.243   3.670   5.741  1.9231 -0.1522 -1.2074
13785TIP3    H262847   1.283   3.746   5.866  1.2536 -0.3933 -0.8469
13786TIP3   OH262848   0.865   6.049   1.890  0.2978  0.3995  0.1548
13786TIP3    H162849   0.778   6.026   1.857  1.6873 -1.3500 -2.4762
13786TIP3    H262850   0.876   6.141   1.869 -0.0848  0.0746 -1.4625
13787TIP3   OH262851   6.719   6.776   2.543 -0.1466 -0.2267  0.0808
13787TIP3    H162852   6.810   6.770   2.513 -0.0327 -1.0444  0.5574
13787TIP3    H262853   6.724   6.765   2.638 -0.7664 -0.6171  0.0755
13788TIP3   OH262854   6.819   1.005   4.650 -0.0460 -0.5305 -0.4373
13788TIP3    H162855   6.733   0.997   4.610 -0.5720  0.2435  0.5115
13788TIP3    H262856   6.845   1.096   4.634  0.2122 -0.5186  0.0281
13789TIP3   OH262857   1.081   0.781  13.969 -0.2162  0.2048  0.6542
13789TIP3    H162858   1.061   0.717  14.037  1.0249  2.1323  2.9152
13789TIP3    H262859   1.124   0.730  13.899 -1.7332 -1.8376  1.1602
13790TIP3   OH262860   4.501   1.144   0.441  0.2075  0.3098  0.0282
13790TIP3    H162861   4.582   1.185   0.472 -0.3858  1.3533  0.2075
13790TIP3    H262862   4.526   1.101   0.359  1.2801 -0.6408  0.8476
13791TIP3   OH262863   4.981   3.129  11.149  0.3984  0.5696 -0.2085
13791TIP3    H162864   4.887   3.135  11.132 -0.1977 -2.4729  1.8015
13791TIP3    H262865   5.022   3.155  11.066 -2.2207  0.6178 -1.5177
13792TIP3   OH262866   2.712   6.499  11.636 -0.1660 -0.5054 -0.4505
13792TIP3    H162867   2.643   6.439  11.664 -0.7913 -0.2033 -1.3146
13792TIP3    H262868   2.666   6.568  11.589  0.6593  0.0677 -0.4251
13793TIP3   OH262869   1.335   1.253   0.816 -0.0812 -0.1755  0.0151
13793TIP3    H162870   1.395   1.213   0.878  0.0046 -0.2194 -0.0965
13793TIP3    H262871   1.384   1.257   0.734  0.2631  1.0645  0.2659
13794TIP3   OH262872   3.838   2.252   3.316 -0.6599  0.0946  0.0704
13794TIP3    H162873   3.890   2.303   3.378 -1.2506  0.0107  0.6498
13794TIP3    H262874   3.828   2.166   3.358 -0.3534 -0.2332 -0.5260
13795TIP3   OH262875   6.049   2.049   0.324  0.0831 -0.0754 -0.2587
13795TIP3    H162876   5.980   2.113   0.340 -1.2281 -1.4027 -0.3864
13795TIP3    H262877   6.053   2.042   0.229  2.4913  2.1633 -0.3627
13796TIP3   OH262878   5.654   4.731   0.076 -0.0403 -0.0203  0.6349
13796TIP3    H162879   5.690   4.642   0.078 -1.9976 -0.8977 -0.6739
13796TIP3    H262880   5.586   4.731   0.143 -0.7328  0.1677 -0.0631
13797TIP3   OH262881   5.964   3.144  10.594  0.3024  0.4414 -0.9018
13797TIP3    H162882   6.058   3.155  10.579  0.6999 -0.0575  1.0493
13797TIP3    H262883   5.956   3.055  10.630 -0.6901  1.1039  0.5995
13798TIP3   OH262884   4.209   2.263  12.045 -0.4185 -0.0434  0.1574
13798TIP3    H162885   4.257   2.180  12.041 -0.9256 -0.2732 -1.4872
13798TIP3    H262886   4.278   2.330  12.051 -0.0255 -0.5947  2.0653
13799TIP3   OH262887   6.252   3.425   0.182 -0.3674 -0.6650 -0.5601
13799TIP3    H162888   6.344   3.451   0.177 -0.6277  0.4864  0.3705
13799TIP3    H262889   6.225   3.412   0.090  0.4934 -0.1883 -0.8829
13800TIP3   OH262890   0.197   4.078   6.342  0.4569 -0.4530 -0.4178
13800TIP3    H162891   0.183   4.007   6.405  0.5185  2.7738  3.4813
13800TIP3    H262892   0.283   4.114   6.366  0.4375  0.9054 -2.2845
13801TIP3   OH262893   5.493   5.513  10.888 -0.0059 -0.2646  0.0998
13801TIP3    H162894   5.527   5.433  10.848  1.8919  1.2401 -1.3913
13801TIP3    H262895   5.462   5.565  10.813 -0.4007  0.7838  0.9765
13802TIP3   OH262896   5.929   1.313   5.978 -0.5773  0.1797 -0.0861
13802TIP3    H162897   5.913   1.219   5.977  0.0137  0.0820 -1.2287
13802TIP3    H262898   5.863   1.348   6.037 -1.5156 -0.8291 -0.5212
13803TIP3   OH262899   0.364   4.753  12.274  0.0831  0.2385  0.4798
13803TIP3    H162900   0.346   4.828  12.331 -1.4225 -0.4679  0.9720
13803TIP3    H262901   0.307   4.767  12.198 -0.5642 -0.6447  0.7937
13804TIP3   OH262902   5.778   1.189  12.271  0.2055  0.0687 -0.3265
13804TIP3    H162903   5.769   1.180  12.176 -0.7244  1.2546 -0.3683
13804TIP3    H262904   5.768   1.100  12.305 -0.4441 -0.2272 -1.2707
13805TIP3   OH262905   4.925   5.133  13.565 -0.2172  0.3926  0.1944
13805TIP3    H162906   4.970   5.209  13.602 -1.8542  0.8479  1.3316
13805TIP3    H262907   4.832   5.147  13.588 -0.8701 -0.7243 -1.6963
13806TIP3   OH262908   0.188   4.179   3.197  0.5754 -0.1861 -0.0887
13806TIP3    H162909   0.210   4.173   3.104  0.3437 -0.2389 -0.1401
13806TIP3    H262910   0.146   4.264   3.206  0.8257 -0.0711  0.0169
13807TIP3   OH262911   0.551   6.141   0.573 -0.1610 -0.2166 -0.0591
13807TIP3    H162912   0.604   6.220   0.563 -1.4121  0.9292  1.9784
13807TIP3    H262913   0.462   6.170   0.556 -0.9200 -0.6568  2.9964
13808TIP3   OH262914   5.082   0.035  13.401 -0.5199 -0.2086 -0.4129
13808TIP3    H162915   5.056   0.125  13.420  1.2066  0.5957 -1.7670
13808TIP3    H262916   5.175   0.031  13.420 -0.1599 -1.1686 -2.2699
13809TIP3   OH262917   0.227   4.162   5.459 -0.1182 -0.0593 -0.3071
13809TIP3    H162918   0.178   4.240   5.433  1.1493  1.8147  2.5378
13809TIP3    H262919   0.319   4.188   5.449  0.3078 -1.4482 -0.0399
13810TIP3   OH262920   5.731   6.598   3.051  0.3358  0.0795  0.1058
13810TIP3    H162921   5.671   6.566   3.119  1.0224 -1.4160  0.0350
13810TIP3    H262922   5.674   6.614   2.976  0.3192 -4.0284 -0.8754
13811TIP3   OH262923   6.564   0.004  16.186  0.7421  0.0605  0.1583
13811TIP3    H162924   6.620  -0.074  16.188  0.6214 -0.0179  0.6577
13811TIP3    H262925   6.534   0.010  16.095  1.7781  0.2552 -0.1806
13812TIP3   OH262926   6.294   5.945   1.362  0.0160 -0.3174  0.3184
13812TIP3    H162927   6.309   5.857   1.397 -1.9828 -0.3409  1.2203
13812TIP3    H262928   6.289   6.001   1.440 -1.6292  0.0959 -0.0511
13813TIP3   OH262929   4.997   4.621   0.759 -0.1011 -0.2320 -0.3571
13813TIP3    H162930   4.932   4.671   0.807 -0.8859  0.2778 -1.9059
13813TIP3    H262931   4.957   4.606   0.673  1.2625 -1.1054 -0.8590
13814TIP3   OH262932   4.956   6.640   1.713 -0.0611  0.4525  0.1731
13814TIP3    H162933   4.954   6.719   1.768 -1.1824  1.0964 -0.7880
13814TIP3    H262934   4.920   6.668   1.629  2.2770 -0.3544 -1.1597
13815TIP3   OH262935   3.526   5.157   4.843 -0.0616 -0.1251 -0.2310
13815TIP3    H162936   3.465   5.158   4.769  0.0057 -0.8941 -0.2960
13815TIP3    H262937   3.537   5.064   4.864  1.2443 -0.0014 -0.3484
13816TIP3   OH262938   6.194   2.878  12.753  0.2980 -0.0995  0.4550
13816TIP3    H162939   6.186   2.784  12.768 -0.2730  0.0589  1.1482
13816TIP3    H262940   6.284   2.890  12.724  1.2298 -0.4897  3.0915
13817TIP3   OH262941   1.672   4.191   2.931  0.1231  0.1970  0.0145
13817TIP3    H162942   1.716   4.165   2.850  1.9158  2.3150  0.2638
13817TIP3    H262943   1.735   4.169   3.000 -0.7272 -0.1162  0.6938
13818TIP3   OH262944   1.237   3.733  13.068  0.1670 -0.3109  0.2082
13818TIP3    H162945   1.244   3.653  13.119 -0.1878 -0.2145  0.4108
13818TIP3    H262946   1.143   3.741  13.048 -0.1726  1.3569  2.2844
13819TIP3   OH262947   0.321   5.645  13.020 -0.3220 -0.6302 -0.2972
13819TIP3    H162948   0.386   5.709  13.049 -1.0976 -0.2580  0.6316
13819TIP3    H262949   0.305   5.668  12.928  0.2322 -0.1972 -0.2904
13820TIP3   OH262950   0.354   5.280   3.863  0.1819 -0.1918  0.1977
13820TIP3    H162951   0.407   5.211   3.902  0.1542 -0.8308 -0.8931
13820TIP3    H262952   0.417   5.347   3.837  0.1531  0.4892  1.8234
13821TIP3   OH262953   6.039   0.060   0.363  0.4296  0.0190  0.5413
13821TIP3    H162954   6.020  -0.032   0.383  2.3975 -0.4555  0.3801
13821TIP3    H262955   6.053   0.101   0.449  1.0084 -0.1821  0.5459
13822TIP3   OH262956   3.150   6.043   0.185 -0.0913 -0.2396 -0.2234
13822TIP3    H162957   3.110   6.032   0.098 -0.7283  1.5641 -0.1783
13822TIP3    H262958   3.166   6.137   0.193 -0.2197 -0.3517  1.6930
13823TIP3   OH262959   6.549   1.638   1.072  0.2483  0.1567  0.1327
13823TIP3    H162960   6.590   1.579   1.135 -0.2925 -0.1467  0.2077
13823TIP3    H262961   6.470   1.592   1.043 -0.7410  1.2821  0.9832
13824TIP3   OH262962   2.480   2.636  15.054 -0.1544  0.0138 -0.3442
13824TIP3    H162963   2.462   2.660  15.145  0.1956  0.1285 -0.3044
13824TIP3    H262964   2.430   2.700  15.002 -0.0774  0.1643 -0.2338
13825TIP3   OH262965   4.790   5.918  16.229  0.6893  0.1857  0.3317
13825TIP3    H162966   4.770   5.944  16.319  0.3167  1.0931 -0.0022
13825TIP3    H262967   4.828   5.997  16.190  0.7189 -0.1639 -0.3454
13826TIP3   OH262968   2.032   1.971  11.859 -0.3695  0.0288 -0.2866
13826TIP3    H162969   2.099   2.039  11.852  1.5981 -2.0267 -2.2564
13826TIP3    H262970   2.056   1.907  11.792 -1.8786 -2.8281  1.8143
13827TIP3   OH262971   0.599   6.039  12.514 -0.0438  0.1475 -0.5787
13827TIP3    H162972   0.667   5.971  12.516 -0.6777 -0.5265 -1.5018
13827TIP3    H262973   0.613   6.084  12.430 -0.7895 -0.0453 -0.8058
13828TIP3   OH262974   5.354   2.404  13.812  0.6133  0.3480  0.6458
13828TIP3    H162975   5.318   2.323  13.850 -0.1432  0.8381  0.9966
13828TIP3    H262976   5.280   2.443  13.766  1.2297  0.3643 -0.3384
13829TIP3   OH262977   3.650   0.367  11.075 -0.2236 -0.0389  0.0612
13829TIP3    H162978   3.656   0.273  11.093 -1.3935  0.0423  0.9537
13829TIP3    H262979   3.701   0.379  10.995  0.2222 -1.3818  0.1225
13830TIP3   OH262980   3.483   2.573   2.859  0.0412  0.0355 -0.3901
13830TIP3    H162981   3.417   2.538   2.919  0.2121 -0.6231 -0.5841
13830TIP3    H262982   3.565   2.532   2.886  0.2650  0.3768 -0.5457
13831TIP3   OH262983   5.205   2.567  16.156  0.4836 -0.3396 -0.7020
13831TIP3    H162984   5.288   2.528  16.180  0.1494  0.1610  1.3236
13831TIP3    H262985   5.139   2.513  16.199 -0.0367  1.6086  1.0608
13832TIP3   OH262986   1.055   6.079  17.237  0.1066 -0.4744  0.5435
13832TIP3    H162987   1.079   6.168  17.210  0.3936 -0.3426  1.2398
13832TIP3    H262988   0.960   6.075  17.226 -0.2568  0.7700  3.0331
13833TIP3   OH262989   5.873   1.601   0.319  0.0066 -0.4862 -0.2305
13833TIP3    H162990   5.928   1.667   0.361  1.1912 -0.6970 -1.4196
13833TIP3    H262991   5.935   1.547   0.269 -1.0561 -1.9249 -0.0084
13834TIP3   OH262992   6.593   0.903  11.208 -0.3793 -0.8529  0.2638
13834TIP3    H162993   6.679   0.943  11.203 -0.7887  0.0246  0.0948
13834TIP3    H262994   6.589   0.844  11.132 -0.1884 -0.3812 -0.1104
13835TIP3   OH262995   0.373   4.941   0.399  0.2417 -0.0277  1.2569
13835TIP3    H162996   0.311   4.972   0.466 -1.4999  2.2900 -1.3098
13835TIP3    H262997   0.348   4.850   0.385 -1.5131  0.3884  1.4922
13836TIP3   OH262998   4.638   6.187  11.360 -0.4693  0.5277 -0.5266
13836TIP3    H162999   4.620   6.278  11.383  0.6294  1.1533 -2.0377
13836TIP3    H263000   4.723   6.168  11.401 -0.4655  0.3335 -0.6226
13837TIP3   OH263001   5.688   5.942  15.908 -0.5460  0.2075 -0.1421
13837TIP3    H163002   5.627   5.873  15.936 -0.9550  0.1943 -1.0476
13837TIP3    H263003   5.749   5.897  15.849  0.8390  0.0474  1.3676
13838TIP3   OH263004   5.860   5.054   3.130 -0.1024 -0.0786  0.1880
13838TIP3    H163005   5.943   5.096   3.152  0.0938 -0.0571 -0.5951
13838TIP3    H263006   5.827   5.022   3.214 -0.7173  2.4586  0.9649
13839TIP3   OH263007   2.509   1.783   3.478  0.1637 -0.1002 -0.1996
13839TIP3    H163008   2.473   1.865   3.513  0.5082 -0.5757  1.3342
13839TIP3    H263009   2.432   1.727   3.466 -0.1064  0.5345 -1.5384
13840TIP3   OH263010   1.548   4.476  14.307  0.0346  0.4346  0.3074
13840TIP3    H163011   1.608   4.537  14.350 -0.7884  1.6160 -0.1998
13840TIP3    H263012   1.462   4.517  14.316 -0.6564 -1.0563  0.6892
13841TIP3   OH263013   5.002   4.809  10.738 -0.1210  0.2925 -0.5638
13841TIP3    H163014   4.919   4.773  10.707 -0.1393 -0.2929  0.1290
13841TIP3    H263015   5.016   4.888  10.686 -1.3444  0.6488 -0.3596
13842TIP3   OH263016   1.830   5.564  15.172 -0.3993  0.1754 -0.2332
13842TIP3    H163017   1.810   5.505  15.100  1.2956  1.3454 -1.6989
13842TIP3    H263018   1.759   5.629  15.169 -2.6051 -2.0335  1.7633
13843TIP3   OH263019   6.447   4.205  14.159  0.0659  0.0021  0.6666
13843TIP3    H163020   6.492   4.151  14.095  1.5661  0.7405  1.0826
13843TIP3    H263021   6.360   4.165  14.167  0.8673 -1.8406  0.3683
13844TIP3   OH263022   3.812   2.920  12.638  0.1655  0.5378  0.5227
13844TIP3    H163023   3.824   3.006  12.677 -0.9524  1.1158 -0.3904
13844TIP3    H263024   3.850   2.859  12.701 -0.6102  1.5560  1.9797
13845TIP3   OH263025   0.154   0.533  14.398  0.4292 -0.3456  0.1481
13845TIP3    H163026   0.184   0.501  14.483  0.4261  1.2643  0.7747
13845TIP3    H263027   0.207   0.611  14.383 -2.3403  1.6583  0.5327
13846TIP3   OH263028   1.523   2.277  13.726  0.0089 -0.7183 -0.0509
13846TIP3    H163029   1.553   2.348  13.781 -2.7433  1.1987 -0.9129
13846TIP3    H263030   1.477   2.218  13.786 -2.4969  1.0796 -0.1240
13847TIP3   OH263031   2.379   2.482  13.244 -0.1263  0.5045  0.3446
13847TIP3    H163032   2.385   2.563  13.194 -0.0380 -0.7897 -1.7894
13847TIP3    H263033   2.467   2.468  13.279 -0.1941  1.4129  0.9109
13848TIP3   OH263034   0.801   2.745   4.648 -0.2784 -0.3983 -0.5972
13848TIP3    H163035   0.803   2.663   4.696 -0.9974  0.5173  1.0461
13848TIP3    H263036   0.878   2.793   4.679 -0.6262  0.1115 -0.5162
13849TIP3   OH263037   1.419   6.365  14.935 -0.4782 -0.7009 -0.4506
13849TIP3    H163038   1.496   6.418  14.914 -1.0065  0.6641  0.9434
13849TIP3    H263039   1.450   6.275  14.935  1.3008 -0.1064  0.9143
13850TIP3   OH263040   0.911   3.953   3.941  0.1687 -0.1808  0.5717
13850TIP3    H163041   0.938   4.041   3.968 -0.8797  0.0730  0.8390
13850TIP3    H263042   0.867   3.917   4.019 -1.5344 -0.0241 -0.2949
13851TIP3   OH263043   3.487   6.785   6.367 -0.5342 -0.1350 -0.0099
13851TIP3    H163044   3.485   6.861   6.309  0.8330  0.3057  0.4884
13851TIP3    H263045   3.557   6.804   6.429 -1.0694 -1.2096  0.9523
13852TIP3   OH263046   5.222   5.930   2.416 -0.0929 -0.1598 -0.2559
13852TIP3    H163047   5.303   5.906   2.461 -1.5362 -3.9131  0.4587
13852TIP3    H263048   5.168   5.972   2.483 -0.4210 -1.5516  0.3560
13853TIP3   OH263049   2.914   5.247  13.499 -0.1605 -0.7696 -0.0777
13853TIP3    H163050   2.953   5.168  13.462 -1.1507 -0.7770 -1.1141
13853TIP3    H263051   2.988   5.294  13.538  0.3787 -2.3438  0.8162
13854TIP3   OH263052   3.278   5.206  11.852 -0.2518  0.0953  0.1045
13854TIP3    H163053   3.330   5.163  11.920 -0.2156 -0.2253 -0.1206
13854TIP3    H263054   3.287   5.149  11.776  2.4266  2.1659 -1.2084
13855TIP3   OH263055   4.328   2.212   2.681  0.0196  0.1116 -0.6562
13855TIP3    H163056   4.304   2.127   2.719  2.1419 -0.5513 -0.7380
13855TIP3    H263057   4.324   2.273   2.755 -0.7931 -0.1838 -0.4442
13856TIP3   OH263058   0.845   6.176  13.829 -0.0389  0.7240 -0.1850
13856TIP3    H163059   0.823   6.191  13.921  0.9008  0.7603  0.0354
13856TIP3    H263060   0.769   6.210  13.781 -0.8025  0.1461  0.5936
13857TIP3   OH263061   5.845   1.497  15.474 -0.3583 -0.1569 -0.3696
13857TIP3    H163062   5.774   1.445  15.436 -1.1937  0.7317 -0.0394
13857TIP3    H263063   5.803   1.576  15.506  0.7998  0.4258 -0.2426
13858TIP3   OH263064   5.073   0.199   3.620  0.4295  0.1947  0.1818
13858TIP3    H163065   5.114   0.285   3.632  1.1896 -0.3664  1.8568
13858TIP3    H263066   4.983   0.212   3.649  0.3948  0.5694 -0.0895
13859TIP3   OH263067   0.072   6.734   3.194  0.0018 -0.3299 -1.4051
13859TIP3    H163068   0.083   6.826   3.217 -0.5868 -0.5945  0.0155
13859TIP3    H263069  -0.017   6.713   3.223  0.4688 -1.5867 -0.8646
13860TIP3   OH263070   0.143   1.353  11.969  0.2365 -0.2942 -0.3788
13860TIP3    H163071   0.152   1.259  11.987  1.5031 -0.0770  0.1826
13860TIP3    H263072   0.067   1.380  12.020  0.5534 -0.7900  0.3669
13861TIP3   OH263073   2.400   5.780   2.881  0.0878  0.0668 -0.1091
13861TIP3    H163074   2.455   5.835   2.937  0.9259 -1.0983  0.2312
13861TIP3    H263075   2.409   5.692   2.918 -0.5814 -0.4424 -1.1475
13862TIP3   OH263076   3.902   5.461  15.130  0.0956 -0.2261  0.4822
13862TIP3    H163077   3.837   5.448  15.198  0.4825  0.6848  1.0335
13862TIP3    H263078   3.958   5.384  15.135 -0.6990 -0.8173  0.2745
13863TIP3   OH263079   4.335   2.933  12.442  0.5445 -0.2426  0.2543
13863TIP3    H163080   4.370   2.901  12.358 -1.4570 -0.2003 -0.6196
13863TIP3    H263081   4.340   2.857  12.500  1.8430 -0.3035  0.0753
13864TIP3   OH263082   6.335   3.073  16.529  0.3818 -0.0020  0.3321
13864TIP3    H163083   6.419   3.113  16.551  0.5094  0.6507 -1.2904
13864TIP3    H263084   6.281   3.089  16.607  1.1830  1.2095  0.6669
13865TIP3   OH263085   1.931   3.289  11.390 -0.1601  0.2709  0.3782
13865TIP3    H163086   1.942   3.358  11.325  1.4324 -1.0523 -0.8312
13865TIP3    H263087   1.955   3.330  11.473 -0.8047  1.5977 -0.0767
13866TIP3   OH263088   4.921   1.872  11.201 -0.4100 -0.2313 -0.1162
13866TIP3    H163089   4.859   1.942  11.223 -2.5976 -1.6748 -1.5062
13866TIP3    H263090   4.971   1.908  11.128 -0.0010  0.7053  0.6028
13867TIP3   OH263091   6.733   2.246   2.668 -0.4937  0.3075  0.2931
13867TIP3    H163092   6.696   2.223   2.754 -1.7026  0.2303 -0.2352
13867TIP3    H263093   6.674   2.205   2.605  2.3836 -2.7038 -0.5950
13868TIP3   OH263094   5.821   4.144   2.551 -0.1239 -0.1424  0.0094
13868TIP3    H163095   5.858   4.183   2.631 -0.8947 -1.2638  0.9252
13868TIP3    H263096   5.877   4.068   2.533 -0.3120 -0.2359 -0.1834
13869TIP3   OH263097   2.193   4.427   1.287 -0.5230 -0.3710  0.1852
13869TIP3    H163098   2.165   4.395   1.201 -1.6837 -0.6525  0.6542
13869TIP3    H263099   2.111   4.449   1.332  0.0307 -0.8610  1.4600
13870TIP3   OH263100   2.578   6.098  14.674  0.0229 -0.3021 -0.2590
13870TIP3    H163101   2.616   6.173  14.629 -1.1569  1.8294  2.1349
13870TIP3    H263102   2.491   6.128  14.701  0.3103 -1.7837  2.5235
13871TIP3   OH263103   4.816   6.368  11.112 -0.2041 -0.0235 -0.8108
13871TIP3    H163104   4.810   6.277  11.142  1.6998 -0.0560 -0.5293
13871TIP3    H263105   4.845   6.417  11.189  1.8755  0.3286 -1.8033
13872TIP3   OH263106   3.239   4.682   1.500 -0.1847  0.2565  0.7385
13872TIP3    H163107   3.330   4.665   1.526 -0.4120  2.3742  3.1193
13872TIP3    H263108   3.194   4.600   1.519  0.5148  0.3963  3.2070
13873TIP3   OH263109   6.051   6.490  13.495 -0.9684  0.5370  0.2689
13873TIP3    H163110   5.967   6.531  13.476 -0.6850  0.1982 -1.9020
13873TIP3    H263111   6.080   6.455  13.410  1.2500  0.4763  1.0151
13874TIP3   OH263112   0.732   1.349   3.809 -0.0009  0.3495  0.0332
13874TIP3    H163113   0.654   1.400   3.788  0.2848  0.7228 -0.1268
13874TIP3    H263114   0.805   1.398   3.771  0.2040 -0.5672 -0.7873
13875TIP3   OH263115   4.845   3.711  13.529  0.2102 -0.2881 -0.4901
13875TIP3    H163116   4.880   3.639  13.581  1.4042  0.0817 -0.7685
13875TIP3    H263117   4.849   3.679  13.439  0.5597  0.0522 -0.5960
13876TIP3   OH263118   0.607   3.952   5.904  0.0931 -0.0044 -0.5745
13876TIP3    H163119   0.638   3.961   5.813 -1.4469  1.5215 -0.9692
13876TIP3    H263120   0.530   4.008   5.909 -0.4814 -0.9288  1.4017
13877TIP3   OH263121   0.161   4.437   1.480  0.1137  0.3340  0.3932
13877TIP3    H163122   0.071   4.466   1.466  0.5530  0.4666 -2.4465
13877TIP3    H263123   0.153   4.343   1.497 -0.5925  0.4429  0.7171
13878TIP3   OH263124   5.938   1.575  13.799  0.2266  0.0162 -0.2146
13878TIP3    H163125   6.026   1.541  13.813 -0.3372 -1.4063 -0.0561
13878TIP3    H263126   5.880   1.511  13.842 -0.8700  1.0169 -0.1644
13879TIP3   OH263127   0.776   0.702   0.848 -0.1532  0.3929 -0.0690
13879TIP3    H163128   0.817   0.774   0.896  0.3727 -0.6499  1.0596
13879TIP3    H263129   0.791   0.724   0.756  1.2587  1.0058  0.2874
13880TIP3   OH263130   1.953   0.626  16.678 -0.1888 -0.3159 -0.1819
13880TIP3    H163131   1.879   0.658  16.626 -0.0617 -2.9056 -2.0236
13880TIP3    H263132   2.025   0.617  16.615  0.1698 -2.8122  0.5249
13881TIP3   OH263133   4.205   3.118   0.640  0.1685  0.3345 -0.8583
13881TIP3    H163134   4.180   3.170   0.564 -0.2642 -0.7737 -1.4712
13881TIP3    H263135   4.195   3.027   0.613 -1.6023 -0.0846  1.0342
13882TIP3   OH263136   4.235   3.748   2.269 -0.1667  0.6353  0.4715
13882TIP3    H163137   4.170   3.788   2.211 -1.8291 -1.7198  0.6294
13882TIP3    H263138   4.308   3.725   2.211 -1.6779 -1.4044 -0.7139
13883TIP3   OH263139   5.541   5.071  15.584 -0.7891  0.0188 -0.0697
13883TIP3    H163140   5.470   5.007  15.574 -2.2778  1.6273 -0.0601
13883TIP3    H263141   5.584   5.047  15.666 -0.7539 -1.5052 -0.5143
13884TIP3   OH263142   2.369   2.113  15.847 -0.1166  0.1238  0.3936
13884TIP3    H163143   2.376   2.020  15.870  0.5053  1.0293  4.2643
13884TIP3    H263144   2.291   2.143  15.893  0.5937  1.8701  0.5124
13885TIP3   OH263145   1.350   6.210  13.717  0.0922  0.0526  0.4402
13885TIP3    H163146   1.432   6.242  13.680 -0.7253 -0.9612 -2.3864
13885TIP3    H263147   1.376   6.134  13.770  1.3868  2.0801  2.8049
13886TIP3   OH263148   3.325   4.098   2.908  0.0556  0.5865  0.2792
13886TIP3    H163149   3.247   4.042   2.913 -0.3173  1.0101 -0.6513
13886TIP3    H263150   3.295   4.176   2.862  0.6776  1.3869  1.2263
13887TIP3   OH263151   3.741   2.199   1.126  0.1707  0.5350 -0.0573
13887TIP3    H163152   3.803   2.272   1.136 -0.0315  0.7274 -0.1889
13887TIP3    H263153   3.662   2.240   1.090  0.4197  0.0765 -1.1447
13888TIP3   OH263154   3.933   2.344   3.580 -0.1375 -0.3996  0.1737
13888TIP3    H163155   3.996   2.381   3.642  0.8450 -0.3662 -0.8269
13888TIP3    H263156   3.863   2.310   3.635  0.1911  0.6161  1.2423
13889TIP3   OH263157   6.139   1.323   4.768  0.3073  1.1577  1.0219
13889TIP3    H163158   6.138   1.416   4.745  1.7491  0.4225 -2.2415
13889TIP3    H263159   6.058   1.289   4.730  1.7039  0.3513 -1.3809
13890TIP3   OH263160   3.370   6.571   0.204 -0.2626 -0.6746 -0.1174
13890TIP3    H163161   3.418   6.641   0.159 -1.3350 -0.1747 -0.5212
13890TIP3    H263162   3.387   6.586   0.297 -1.9909  1.3161 -0.0600
13891TIP3   OH263163   0.824   0.745  13.607  0.8921 -0.0346 -0.1949
13891TIP3    H163164   0.824   0.691  13.685  0.2761 -0.1062 -0.2464
13891TIP3    H263165   0.849   0.685  13.536 -0.0566 -0.3157 -0.2953
13892TIP3   OH263166   3.990   4.527   1.741  0.2703  0.0471  0.6750
13892TIP3    H163167   4.007   4.544   1.834  0.8129  2.3422  0.1718
13892TIP3    H263168   4.076   4.511   1.703  0.2467  0.9161  0.2328
13893TIP3   OH263169   5.194   4.804   2.093  0.1868  0.5987 -0.5970
13893TIP3    H163170   5.261   4.802   2.024  0.5982  1.9938 -0.2584
13893TIP3    H263171   5.143   4.883   2.074 -0.8282 -0.0058 -0.3553
13894TIP3   OH263172   5.109   3.132  14.049  0.0655 -0.2089 -0.2217
13894TIP3    H163173   5.118   3.052  14.102 -1.0436 -0.8733 -1.0283
13894TIP3    H263174   5.193   3.141  14.005  0.7588 -0.0381  1.1052
13895TIP3   OH263175   1.310   5.790  16.468 -0.2411 -0.6280 -0.6269
13895TIP3    H163176   1.395   5.747  16.455  0.7192  0.4452  1.7990
13895TIP3    H263177   1.277   5.753  16.550 -1.5391 -0.0911 -0.9037
13896TIP3   OH263178   4.871   5.236   6.110  0.0357  0.3051 -0.0576
13896TIP3    H163179   4.923   5.310   6.079 -0.9165  0.3156 -1.7239
13896TIP3    H263180   4.780   5.264   6.099 -0.3498 -1.2726 -1.2266
13897TIP3   OH263181   0.783   2.799   1.267  0.0262  0.0828 -0.4970
13897TIP3    H163182   0.726   2.857   1.318  1.4753 -0.7150  2.1337
13897TIP3    H263183   0.855   2.855   1.239  0.1916  0.1089 -0.0287
13898TIP3   OH263184   3.732   0.337  16.984  0.3279 -0.0011  0.2770
13898TIP3    H163185   3.786   0.268  16.945  0.2765 -0.6044  1.2595
13898TIP3    H263186   3.792   0.410  16.997  0.1519  0.5528 -1.7591
13899TIP3   OH263187   5.381   3.696   2.193  0.3087  0.4012  0.2010
13899TIP3    H163188   5.292   3.661   2.197 -0.3186  1.9602  0.0768
13899TIP3    H263189   5.435   3.626   2.231 -0.9905 -0.4279  0.5845
13900TIP3   OH263190   5.732   0.591   4.909  0.1129 -0.6200  0.0241
13900TIP3    H163191   5.691   0.639   4.836 -0.4152 -2.1836 -0.7169
13900TIP3    H263192   5.821   0.625   4.913 -0.1085  0.0708 -0.8179
13901TIP3   OH263193   5.053   1.877   1.710  0.1873  0.2680  0.1382
13901TIP3    H163194   5.146   1.856   1.712  0.0818 -0.1645  0.7900
13901TIP3    H263195   5.010   1.792   1.698 -0.0908  0.5434 -0.7944
13902TIP3   OH263196   5.573   6.020   6.478  0.0339  0.1439  0.7303
13902TIP3    H163197   5.509   5.979   6.420 -0.3159 -0.1513  1.3197
13902TIP3    H263198   5.521   6.062   6.546  0.3956  1.5213  0.1745
13903TIP3   OH263199   2.258   6.560  13.954  0.2577 -0.2755  0.7796
13903TIP3    H163200   2.238   6.575  13.862 -1.3016 -1.2277  0.9327
13903TIP3    H263201   2.200   6.620  14.001  0.2406 -0.5964  1.1714
13904TIP3   OH263202   6.667   2.631  10.972  0.3197 -0.1019 -0.6617
13904TIP3    H163203   6.743   2.666  11.019 -0.4891 -0.0570  0.6341
13904TIP3    H263204   6.611   2.707  10.957 -0.8182 -0.5874  0.9787
13905TIP3   OH263205   0.504   1.431   0.977 -0.5990 -0.3555  0.6086
13905TIP3    H163206   0.582   1.458   1.025  0.2487 -0.0112 -0.9292
13905TIP3    H263207   0.469   1.513   0.941 -2.6275 -0.2736  2.6615
13906TIP3   OH263208   2.327   6.666  11.914  0.2958  0.1548  0.1151
13906TIP3    H163209   2.382   6.587  11.920  0.0334  0.0011  0.5132
13906TIP3    H263210   2.390   6.738  11.921  0.4662 -0.0209  0.4445
13907TIP3   OH263211   0.490   6.394  12.493 -0.4596 -0.1893  0.1139
13907TIP3    H163212   0.485   6.310  12.540 -1.1423 -0.3661 -0.2750
13907TIP3    H263213   0.531   6.454  12.556  0.7074 -0.9951  0.1314
13908TIP3   OH263214   2.068   5.159  13.509 -0.4216 -0.0991 -0.3321
13908TIP3    H163215   2.051   5.092  13.442  1.3861  1.2140 -2.1700
13908TIP3    H263216   2.163   5.157  13.522 -0.6058  0.5661  1.2616
13909TIP3   OH263217   6.235   2.168  16.830  0.0104 -0.0258  0.0211
13909TIP3    H163218   6.193   2.140  16.748  0.6056  0.0583 -0.3213
13909TIP3    H263219   6.274   2.088  16.865 -0.4118 -0.0981  0.3195
13910TIP3   OH263220   4.240   4.662   0.091 -0.2009 -0.4156 -0.0937
13910TIP3    H163221   4.292   4.742   0.079 -2.4046  1.1946  0.8059
13910TIP3    H263222   4.206   4.670   0.180 -0.6262 -2.2633 -0.0888
13911TIP3   OH263223   5.081   5.259   5.715  0.5560  0.1319 -0.8291
13911TIP3    H163224   5.126   5.277   5.798 -0.4595  2.0062 -0.6613
13911TIP3    H263225   5.126   5.314   5.651  1.5231 -1.5217 -1.6054
13912TIP3   OH263226   2.390   6.740  16.626 -0.4113  0.0626 -0.0983
13912TIP3    H163227   2.393   6.726  16.721 -2.1461 -2.8495 -0.4407
13912TIP3    H263228   2.470   6.790  16.608  0.7408 -0.6228  2.6814
13913TIP3   OH263229   5.043   3.439   1.090 -0.3483 -0.8786 -0.4022
13913TIP3    H163230   4.997   3.376   1.145  0.0695 -0.3644  0.5637
13913TIP3    H263231   4.983   3.513   1.084  0.0407 -0.5007  0.2621
13914TIP3   OH263232   5.287   3.807   2.927  0.2053 -0.4028 -0.2772
13914TIP3    H163233   5.340   3.743   2.878  0.0723 -0.3951 -0.4341
13914TIP3    H263234   5.343   3.834   2.999 -0.6316 -2.5514  1.2501
13915TIP3   OH263235   0.154   2.364  16.326 -0.0873 -0.1570 -0.3428
13915TIP3    H163236   0.206   2.441  16.301 -1.0449  0.5791 -0.0941
13915TIP3    H263237   0.147   2.369  16.421 -1.5316  0.3648 -0.4568
13916TIP3   OH263238   0.533   6.805  11.904  0.5890  0.0241  0.3837
13916TIP3    H163239   0.629   6.804  11.907  0.5912  0.7296  0.4845
13916TIP3    H263240   0.509   6.898  11.902 -0.0483 -0.1562 -1.0366
13917TIP3   OH263241   1.467   4.219   6.606  0.5748 -0.4681 -0.0433
13917TIP3    H163242   1.415   4.230   6.526 -0.4403  0.5177  0.7583
13917TIP3    H263243   1.410   4.170   6.665  1.8553 -2.4872 -0.4234
13918TIP3   OH263244   3.895   2.998  13.274 -0.0162  0.2846  0.1413
13918TIP3    H163245   3.831   3.063  13.305 -0.5472  1.1217 -2.5331
13918TIP3    H263246   3.846   2.916  13.270 -0.8956  0.8721 -1.6550
13919TIP3   OH263247   2.895   5.009  12.463 -0.4506 -0.0497 -0.4164
13919TIP3    H163248   2.833   4.972  12.401 -0.8524  0.9129 -0.6095
13919TIP3    H263249   2.855   4.994  12.549 -0.7503  0.1856 -0.5118
13920TIP3   OH263250   6.770   3.439   2.632 -0.2092 -0.5387 -0.3067
13920TIP3    H163251   6.678   3.455   2.654 -0.2715  0.3453 -1.1306
13920TIP3    H263252   6.814   3.522   2.651  0.4052 -0.9406  0.0289
13921TIP3   OH263253   6.531   0.601  15.612 -1.1252 -0.1498 -0.5267
13921TIP3    H163254   6.468   0.635  15.549 -2.5853 -0.0097  0.9651
13921TIP3    H263255   6.596   0.670  15.622 -1.8978  0.5803 -0.5121
13922TIP3   OH263256   5.118   5.314   5.178 -0.3021 -0.1340  0.3799
13922TIP3    H163257   5.110   5.224   5.210 -1.5890  0.5697  2.1351
13922TIP3    H263258   5.161   5.361   5.250 -0.4056  0.8260 -0.1737
13923TIP3   OH263259   2.055   1.271   4.688 -0.8963 -0.3887  0.3693
13923TIP3    H163260   2.061   1.362   4.714 -1.4614  0.0825 -1.0793
13923TIP3    H263261   2.030   1.274   4.596  0.0465 -1.9937  0.0376
13924TIP3   OH263262   1.372   1.235   5.611 -0.4373  0.7172 -0.2134
13924TIP3    H163263   1.458   1.227   5.653 -0.4787 -3.0501 -0.6712
13924TIP3    H263264   1.391   1.245   5.518 -0.4657 -1.1622 -0.4399
13925TIP3   OH263265   4.941   2.511  12.479 -0.1996  0.0530 -0.2155
13925TIP3    H163266   5.030   2.504  12.512 -0.6645  1.8026  1.4848
13925TIP3    H263267   4.912   2.420  12.468  1.8131 -0.5327 -0.9030
13926TIP3   OH263268   0.629   3.222  17.042 -0.0904 -0.4052  0.1884
13926TIP3    H163269   0.594   3.285  17.106 -1.7312 -3.0236  1.9979
13926TIP3    H263270   0.722   3.242  17.037 -0.3730  1.4060  1.6060
13927TIP3   OH263271   1.897   5.616   2.882 -0.4504 -0.4251  0.0686
13927TIP3    H163272   1.875   5.618   2.975 -0.3169  2.0742  0.0804
13927TIP3    H263273   1.842   5.684   2.843  2.1690  1.1484 -1.0245
13928TIP3   OH263274   0.609   3.735  16.009 -0.1799  0.4102  0.7924
13928TIP3    H163275   0.695   3.738  16.051 -0.4678 -1.7794  1.6060
13928TIP3    H263276   0.616   3.663  15.946 -1.8375 -0.7107  1.8599
13929TIP3   OH263277   3.910   5.853  14.779  0.0213  0.2294  0.4309
13929TIP3    H163278   3.890   5.773  14.827 -0.4814  1.4367  2.2679
13929TIP3    H263279   3.834   5.869  14.724 -0.8498  0.6582  1.7437
13930TIP3   OH263280   4.450   3.128   3.058  0.3015  0.8583 -0.3589
13930TIP3    H163281   4.364   3.097   3.029  0.2906 -1.3495  1.7729
13930TIP3    H263282   4.507   3.115   2.982 -0.5410 -0.9196 -0.7202
13931TIP3   OH263283   4.727   4.479  11.386 -0.5588 -0.3289  0.2270
13931TIP3    H163284   4.767   4.566  11.381  0.5895 -0.8785 -0.4624
13931TIP3    H263285   4.636   4.495  11.409 -0.1631  1.0135  0.9116
13932TIP3   OH263286   2.501   3.120  16.720  0.1669 -0.6861 -0.7630
13932TIP3    H163287   2.457   3.203  16.703  0.8182 -0.4044 -1.1167
13932TIP3    H263288   2.431   3.057  16.733 -0.3387  0.0504  0.1653
13933TIP3   OH263289   2.419   2.617  11.931 -0.3338 -0.3630 -0.1825
13933TIP3    H163290   2.392   2.706  11.909 -0.7992 -0.4716 -0.0637
13933TIP3    H263291   2.384   2.563  11.859 -0.0212 -0.4466 -0.2757
13934TIP3   OH263292   0.264   0.860   4.831  0.8168 -0.0086  0.1597
13934TIP3    H163293   0.285   0.918   4.904  0.0595  0.5158 -0.0317
13934TIP3    H263294   0.208   0.913   4.774  0.1108 -0.9267 -0.0155
13935TIP3   OH263295   4.780   4.581   3.057  0.3246 -0.5993 -0.4316
13935TIP3    H163296   4.838   4.645   3.016 -1.9012  0.8206 -1.4696
13935TIP3    H263297   4.779   4.507   2.996  0.3402 -0.2536 -0.8525
13936TIP3   OH263298   1.642   4.516   0.364 -0.1597 -0.6890  0.2727
13936TIP3    H163299   1.589   4.591   0.337 -0.9462 -1.1704  0.4571
13936TIP3    H263300   1.721   4.522   0.310 -0.7646 -0.4375 -0.6016
13937TIP3   OH263301   1.562   5.264   3.612  0.6576 -0.8922  0.2494
13937TIP3    H163302   1.489   5.324   3.629  0.2138 -1.9142  2.0620
13937TIP3    H263303   1.553   5.240   3.520 -0.2758  0.3205  0.0104
13938TIP3   OH263304   6.698   4.304   7.027 -0.3276  0.2918 -0.4633
13938TIP3    H163305   6.787   4.305   7.062 -0.7348 -1.3378  0.6797
13938TIP3    H263306   6.667   4.215   7.043 -2.2353  0.9029 -0.6523
13939TIP3   OH263307   4.436   1.764  14.801 -0.0233  0.1975  0.9530
13939TIP3    H163308   4.374   1.837  14.811 -1.1453 -0.4346 -1.1670
13939TIP3    H263309   4.380   1.686  14.798  1.0181 -0.5438  0.7692
13940TIP3   OH263310   4.111   2.733  14.745  0.2210 -0.0019  0.1919
13940TIP3    H163311   4.113   2.644  14.781 -0.1485 -0.1438 -0.1359
13940TIP3    H263312   4.183   2.778  14.790 -0.5025 -0.0544  1.4209
13941TIP3   OH263313   5.491   0.307   0.846  0.3304 -0.2003  0.2110
13941TIP3    H163314   5.435   0.364   0.792  0.5908  0.6741  0.8526
13941TIP3    H263315   5.505   0.357   0.926  2.1960 -0.3165 -0.0222
13942TIP3   OH263316   0.209   0.785   1.225  0.1343  0.1613  0.0234
13942TIP3    H163317   0.225   0.823   1.139  1.4414 -2.6163 -1.0184
13942TIP3    H263318   0.155   0.708   1.208  0.0827 -0.1945  1.7159
13943TIP3   OH263319   3.482   2.125   1.809 -0.0561 -0.2386 -0.2622
13943TIP3    H163320   3.419   2.096   1.876  0.6176 -0.8313  0.1169
13943TIP3    H263321   3.433   2.122   1.727 -0.9739  0.7400  0.2260
13944TIP3   OH263322   2.321   3.460   5.770  0.1725  0.1800 -0.0744
13944TIP3    H163323   2.286   3.530   5.716 -0.6614 -0.6277 -0.5700
13944TIP3    H263324   2.296   3.379   5.726 -1.7285 -0.5334  2.2254
13945TIP3   OH263325   0.613   0.380   3.303  0.2040 -0.3578 -0.3517
13945TIP3    H163326   0.559   0.320   3.353  2.6037 -1.4144  1.0174
13945TIP3    H263327   0.567   0.464   3.309 -1.7946 -1.4440 -0.0876
13946TIP3   OH263328   0.614   3.935  12.435  0.8285  0.2409  0.1095
13946TIP3    H163329   0.685   3.975  12.485  0.5050  0.3502  0.4897
13946TIP3    H263330   0.560   3.892  12.501  0.2790  0.5657 -0.1221
13947TIP3   OH263331   0.282   2.425  12.867 -0.0803 -0.1328  0.0372
13947TIP3    H163332   0.195   2.419  12.828 -0.2435 -1.2521  0.5571
13947TIP3    H263333   0.302   2.519  12.868 -1.1854  0.1066 -0.2918
13948TIP3   OH263334   2.331   1.604  12.184  0.0579  0.2689  0.0957
13948TIP3    H163335   2.243   1.570  12.202 -0.1070 -0.0708 -1.2801
13948TIP3    H263336   2.317   1.693  12.153  0.3040  0.6948  1.1969
13949TIP3   OH263337   6.003   6.488  15.600  0.1768 -0.3788  0.9462
13949TIP3    H163338   6.069   6.526  15.543 -0.2081 -0.0302  0.7310
13949TIP3    H263339   5.923   6.490  15.548  0.0586 -1.0721  1.0967
13950TIP3   OH263340   5.344   3.797   0.032  0.5904 -0.0365  0.9037
13950TIP3    H163341   5.323   3.731   0.098  1.6221  0.0277  1.3104
13950TIP3    H263342   5.433   3.824   0.053  0.5041  0.8304  0.1835
13951TIP3   OH263343   1.705   6.672   5.024  0.0017 -0.4038 -0.0559
13951TIP3    H163344   1.794   6.648   4.998 -0.1041  0.4779 -1.3209
13951TIP3    H263345   1.659   6.589   5.032  0.6652 -0.8177 -0.4838
13952TIP3   OH263346   4.885   0.025  15.910 -0.0455  0.0341 -0.0951
13952TIP3    H163347   4.841   0.066  15.984  0.0021  1.2981 -0.7430
13952TIP3    H263348   4.971   0.067  15.908  0.2537 -0.5934 -0.3586
13953TIP3   OH263349   6.744   1.584  16.395 -0.3718  0.1465  0.5471
13953TIP3    H163350   6.680   1.566  16.327 -0.6732  1.0284  0.5887
13953TIP3    H263351   6.712   1.664  16.437  0.7768  0.6125  0.5386
13954TIP3   OH263352   3.404   4.613  15.206  0.1551 -0.3742  0.0101
13954TIP3    H163353   3.412   4.566  15.123  1.8938 -1.2729  0.6681
13954TIP3    H263354   3.397   4.544  15.272 -0.7799  0.3312  0.6576
13955TIP3   OH263355   2.301   5.570  16.836 -0.6915 -0.5855 -0.2205
13955TIP3    H163356   2.346   5.600  16.757  1.5538 -1.4396  0.6571
13955TIP3    H263357   2.337   5.625  16.906 -1.2191 -1.1088  0.4598
13956TIP3   OH263358   4.676   3.253   4.260 -0.5215  0.0367  0.3894
13956TIP3    H163359   4.651   3.203   4.182 -0.9833 -1.5619  1.5324
13956TIP3    H263360   4.638   3.204   4.333  0.2987  1.2519  1.6554
13957TIP3   OH263361   3.731   5.160  14.958  0.0190  0.3070 -0.2065
13957TIP3    H163362   3.730   5.070  14.926  0.8297  0.5983 -1.0693
13957TIP3    H263363   3.695   5.154  15.047 -2.3107 -0.4802 -1.1899
13958TIP3   OH263364   4.155   1.580   6.448 -0.1803  0.5742 -0.1476
13958TIP3    H163365   4.107   1.590   6.531 -0.5764 -0.6191 -0.2232
13958TIP3    H263366   4.137   1.661   6.400 -0.8495  0.8052  0.4770
13959TIP3   OH263367   4.924   4.358  12.456 -0.1037  0.2047  1.0045
13959TIP3    H163368   5.009   4.326  12.427 -0.2554  0.5150  0.1862
13959TIP3    H263369   4.862   4.291  12.428 -0.6867  2.1398 -2.6589
13960TIP3   OH263370   0.562   5.013  13.051 -0.3579  0.0548 -0.6258
13960TIP3    H163371   0.509   4.986  12.976 -1.2322  2.0816 -0.7728
13960TIP3    H263372   0.520   5.093  13.082 -0.5109 -1.1588  2.5233
13961TIP3   OH263373   6.333   4.568   4.339 -0.0285 -0.2890 -0.1571
13961TIP3    H163374   6.339   4.545   4.432  1.0565 -0.7399 -0.3185
13961TIP3    H263375   6.347   4.662   4.336  1.4283 -0.4737  0.0358
13962TIP3   OH263376   0.806   1.724   6.759  0.2912 -0.5296  0.1175
13962TIP3    H163377   0.722   1.688   6.731  0.6592 -1.1668 -0.1733
13962TIP3    H263378   0.871   1.661   6.728  0.9468  0.4023 -0.4340
13963TIP3   OH263379   2.048   6.810   3.880  0.1643 -0.0139  0.1922
13963TIP3    H163380   2.082   6.728   3.915 -1.0012 -0.8713 -0.6665
13963TIP3    H263381   2.053   6.872   3.954 -1.6347 -1.6047  1.6919
13964TIP3   OH263382   1.007   2.906  15.212  0.4065 -0.6176 -0.1694
13964TIP3    H163383   1.085   2.961  15.218  0.3959 -0.7388  1.1119
13964TIP3    H263384   1.023   2.834  15.273 -0.6764 -0.6725  0.0608
13965TIP3   OH263385   4.013   6.554  14.446  0.5787 -0.2794  0.2816
13965TIP3    H163386   3.970   6.596  14.520  0.7959  0.0570  0.2150
13965TIP3    H263387   3.960   6.577  14.370  1.8679  1.6487 -0.0828
13966TIP3   OH263388   5.688   4.141   4.816  0.1833 -0.3414 -0.2105
13966TIP3    H163389   5.594   4.157   4.817  0.2873  0.2183  0.7942
13966TIP3    H263390   5.708   4.125   4.724 -0.7605  0.2928 -0.5367
13967TIP3   OH263391   5.092   5.133   0.176 -0.0033 -0.4281  0.4489
13967TIP3    H163392   5.136   5.133   0.091  1.8071  1.5132  1.3273
13967TIP3    H263393   5.087   5.040   0.200  0.4116 -0.9191 -1.2913
13968TIP3   OH263394   5.395   4.642   4.050 -0.1501 -0.3884 -0.3543
13968TIP3    H163395   5.453   4.630   3.976  1.3006 -4.4063  1.3139
13968TIP3    H263396   5.390   4.737   4.062  2.2128  0.1853 -3.4749
13969TIP3   OH263397   5.650   4.022   1.873 -0.6645 -0.7578 -0.5816
13969TIP3    H163398   5.637   3.991   1.784 -1.7047  1.1325 -1.1181
13969TIP3    H263399   5.656   3.942   1.926 -0.6357 -1.8777 -2.2396
13970TIP3   OH263400   3.853   5.978  13.530  0.2491  0.0998  0.6774
13970TIP3    H163401   3.759   5.979  13.547  0.1188  1.2964 -0.1070
13970TIP3    H263402   3.889   5.925  13.601 -0.9662 -0.0073  1.2251
13971TIP3   OH263403   1.104   3.423  15.413 -0.7694  0.0459 -0.4143
13971TIP3    H163404   1.158   3.352  15.449 -1.2610  1.3572  3.1114
13971TIP3    H263405   1.045   3.379  15.352  0.2946 -2.2921  0.1710
13972TIP3   OH263406   5.973   0.269  11.512  0.2342 -0.1804  0.3348
13972TIP3    H163407   5.888   0.228  11.522 -0.5660  0.6492 -2.6869
13972TIP3    H263408   5.956   0.363  11.522  0.9616 -0.0887  0.7588
13973TIP3   OH263409   5.796   6.739  12.813  0.1685  0.3858 -0.0623
13973TIP3    H163410   5.750   6.681  12.752  0.8655  0.5271 -0.7419
13973TIP3    H263411   5.881   6.756  12.770 -0.4945  2.8734 -0.4832
13974TIP3   OH263412   5.613   5.089  14.603  0.1047  1.3500  0.5170
13974TIP3    H163413   5.577   5.088  14.692 -2.0429  1.7062 -0.3205
13974TIP3    H263414   5.644   4.999  14.589  0.3588  1.2612  1.5733
13975TIP3   OH263415   2.051   5.896   4.556  0.4477 -0.5695 -0.1685
13975TIP3    H163416   2.036   5.836   4.483  1.7282  0.3620 -1.2097
13975TIP3    H263417   2.118   5.956   4.524  0.1053  0.6213  1.3294
13976TIP3   OH263418   6.807   3.099   2.070  0.4273 -0.3526 -0.8127
13976TIP3    H163419   6.897   3.070   2.059  0.4035 -0.8335  0.2108
13976TIP3    H263420   6.813   3.180   2.119  0.4641  1.1664 -3.2589
13977TIP3   OH263421   0.012   0.147  15.604  0.2959  0.7908  0.3709
13977TIP3    H163422   0.024   0.074  15.542  0.4298  0.7266  0.4721
13977TIP3    H263423   0.089   0.202  15.590 -0.1516  1.2881 -0.2114
13978TIP3   OH263424   3.887   1.116  17.132  0.0593  0.4899 -0.6676
13978TIP3    H163425   3.793   1.107  17.148 -0.0052  0.4811 -1.0631
13978TIP3    H263426   3.903   1.210  17.138  0.1305  0.4393 -0.0089
13979TIP3   OH263427   3.336   0.371   1.207 -0.6990 -0.1749 -0.4146
13979TIP3    H163428   3.389   0.375   1.287 -0.6824  1.9674 -0.4984
13979TIP3    H263429   3.392   0.327   1.143 -0.4289 -1.2210  0.5298
13980TIP3   OH263430   1.058   2.681   3.006  1.0701 -0.5053  0.4199
13980TIP3    H163431   1.105   2.616   3.060 -1.3084 -1.9483  0.8110
13980TIP3    H263432   1.043   2.755   3.066 -0.0810 -1.4184  1.2961
13981TIP3   OH263433   1.650   4.155  11.486 -0.2906 -0.5993  0.0719
13981TIP3    H163434   1.728   4.174  11.435 -0.0896 -1.4855  0.0527
13981TIP3    H263435   1.647   4.225  11.552  0.7784 -0.8393  0.3814
13982TIP3   OH263436   5.222   3.424  12.074 -0.3325 -0.0105  0.1548
13982TIP3    H163437   5.230   3.518  12.060 -2.2419 -0.1385 -1.9560
13982TIP3    H263438   5.173   3.416  12.156  0.1285  0.8165  0.5189
13983TIP3   OH263439   1.566   0.269   0.717  0.4170 -0.1196 -0.6726
13983TIP3    H163440   1.473   0.267   0.736  0.5829 -3.4735  0.0031
13983TIP3    H263441   1.603   0.327   0.785 -1.3625  3.0157 -2.2519
13984TIP3   OH263442   0.665   4.923  16.400 -0.0953  0.1472 -0.3477
13984TIP3    H163443   0.752   4.947  16.431 -0.5138  0.1167  0.8743
13984TIP3    H263444   0.638   4.851  16.458 -0.4165 -0.7022 -1.5285
13985TIP3   OH263445   4.178   4.394  13.203 -0.1727 -0.3013  0.7281
13985TIP3    H163446   4.265   4.418  13.172 -0.2796  0.9325  1.3413
13985TIP3    H263447   4.193   4.315  13.256  0.6432  0.1569  1.2016
13986TIP3   OH263448   2.528   3.416  16.084 -0.4235 -0.0863  0.2103
13986TIP3    H163449   2.529   3.405  15.989  2.2296  1.3139  0.0334
13986TIP3    H263450   2.497   3.506  16.097 -0.2199 -0.0803  0.6490
13987TIP3   OH263451   6.011   0.616  16.058 -0.3483 -0.8367 -0.5063
13987TIP3    H163452   6.052   0.611  16.144 -1.0274  0.7377 -0.0872
13987TIP3    H263453   5.964   0.532  16.050  0.5207 -1.4100  0.2260
13988TIP3   OH263454   4.344   6.246  11.179  0.3075  0.6771  0.5045
13988TIP3    H163455   4.263   6.208  11.145  0.5851  0.7740 -0.2769
13988TIP3    H263456   4.413   6.188  11.148  0.4822  0.1004  1.9114
13989TIP3   OH263457   1.755   0.484  11.657 -0.2475  1.0869  0.0573
13989TIP3    H163458   1.756   0.425  11.581 -0.9271  2.4496 -1.0243
13989TIP3    H263459   1.663   0.488  11.682 -0.0741  0.9531  0.7217
13990TIP3   OH263460   0.805   3.103  12.274  0.4139 -0.0557  0.2955
13990TIP3    H163461   0.755   3.071  12.199  0.9431 -1.9612  0.7508
13990TIP3    H263462   0.750   3.172  12.312 -1.7067 -1.8856  0.6035
13991TIP3   OH263463   2.754   2.009   3.278  0.0369 -0.4567  0.3668
13991TIP3    H163464   2.663   2.023   3.250  0.3184 -2.4320 -1.6455
13991TIP3    H263465   2.775   1.921   3.248  2.7095  0.0600  0.6141
13992TIP3   OH263466   1.117   4.820   3.676 -0.5313  0.1769 -0.2435
13992TIP3    H163467   1.038   4.875   3.680 -1.0967 -0.5701 -0.9784
13992TIP3    H263468   1.189   4.880   3.695 -1.2412  0.9403  0.1015
13993TIP3   OH263469   3.101   0.668   2.222  0.1125 -0.6820 -0.2245
13993TIP3    H163470   3.033   0.624   2.172 -0.6003  0.4246 -0.2550
13993TIP3    H263471   3.112   0.615   2.301 -1.1045 -0.6404 -0.0165
13994TIP3   OH263472   3.077   6.290   2.515  0.1718 -0.5255 -0.1837
13994TIP3    H163473   3.014   6.299   2.587  3.9461 -0.8228  3.3364
13994TIP3    H263474   3.129   6.370   2.518  0.5698 -0.6579 -2.4786
13995TIP3   OH263475   5.025   2.782   5.562  0.0989 -0.0694 -0.1367
13995TIP3    H163476   5.100   2.775   5.502 -1.7863  0.1218 -2.5797
13995TIP3    H263477   5.011   2.876   5.571  0.1438 -0.1049  0.3364
13996TIP3   OH263478   1.258   3.874   3.397  0.0854 -0.1257  0.3384
13996TIP3    H163479   1.215   3.946   3.352  1.9980  1.7492  1.3866
13996TIP3    H263480   1.263   3.904   3.488 -0.4659 -2.2636  1.0857
13997TIP3   OH263481   5.468   4.791   1.577 -0.0117 -0.2903 -0.4089
13997TIP3    H163482   5.458   4.724   1.509 -1.4959 -0.0346 -0.4465
13997TIP3    H263483   5.563   4.802   1.585  0.1964 -0.7015 -2.0745
13998TIP3   OH263484   0.940   0.060   2.116 -0.0333  0.7167  0.3549
13998TIP3    H163485   0.881   0.049   2.190  0.5544  0.0323  0.7302
13998TIP3    H263486   1.004   0.124   2.146  0.6043 -0.0745  0.6884
13999TIP3   OH263487   5.805   6.313   2.850 -0.1664  0.1605 -0.1492
13999TIP3    H163488   5.880   6.282   2.902 -0.8126 -0.2493  0.5639
13999TIP3    H263489   5.844   6.367   2.782  0.7258  0.6089  0.6920
14000TIP3   OH263490   1.435   2.966  16.358  0.3923 -0.0087  0.2530
14000TIP3    H163491   1.398   3.004  16.279 -1.2173 -1.3530  0.3260
14000TIP3    H263492   1.374   2.993  16.428  1.6208  0.8977  0.9905
14001TIP3   OH263493   4.346   5.341   5.333  0.5639  0.5758 -0.1535
14001TIP3    H163494   4.364   5.313   5.243 -2.2449 -0.5719 -0.4130
14001TIP3    H263495   4.361   5.263   5.386 -0.3823  0.5025  0.0183
14002TIP3   OH263496   0.765   6.287   1.845  0.3642  0.0899  0.3497
14002TIP3    H163497   0.720   6.366   1.814 -0.8523 -1.4131 -1.8391
14002TIP3    H263498   0.857   6.304   1.827  0.1654  1.1957  0.3229
14003TIP3   OH263499   1.377   5.939   0.849 -0.4665  0.0045  0.5532
14003TIP3    H163500   1.405   6.030   0.842 -0.9561  0.0518 -1.0924
14003TIP3    H263501   1.458   5.889   0.861 -0.0555  0.5301  0.0088
14004TIP3   OH263502   4.798   3.174  16.411 -0.0745 -0.2902 -0.3042
14004TIP3    H163503   4.879   3.223  16.420 -0.9780  1.3547 -1.0126
14004TIP3    H263504   4.729   3.239  16.422 -1.2968 -1.5441 -0.4262
14005TIP3   OH263505   2.652   4.024   4.076 -0.0982  0.2070  0.3176
14005TIP3    H163506   2.592   4.002   4.004  0.0792 -1.3135  0.6150
14005TIP3    H263507   2.738   3.998   4.044  0.1290  0.5537  0.6501
14006TIP3   OH263508   5.857   2.544   4.552  0.2427  0.0423 -0.3839
14006TIP3    H163509   5.942   2.580   4.530 -0.2882  1.5930  0.0686
14006TIP3    H263510   5.851   2.549   4.647 -0.4890  0.2594 -0.4319
14007TIP3   OH263511   2.227   2.497  16.679  0.1981 -0.0842 -0.2393
14007TIP3    H163512   2.246   2.580  16.635 -2.1485  0.1803 -0.7964
14007TIP3    H263513   2.292   2.436  16.644  2.9125  1.8232  1.2649
14008TIP3   OH263514   1.556   6.537  16.848 -0.6707 -0.7612  0.6815
14008TIP3    H163515   1.588   6.612  16.797 -0.0801 -1.6128 -0.2154
14008TIP3    H263516   1.461   6.537  16.835 -0.9727  1.1621  2.5168
14009TIP3   OH263517   6.015   6.198  15.505  0.1037 -0.3300 -0.2860
14009TIP3    H163518   6.060   6.278  15.531 -1.8893  0.6204  0.3229
14009TIP3    H263519   6.023   6.140  15.580 -0.6583  0.2791  0.2827
14010TIP3   OH263520   2.000   0.476   1.240  0.0499  0.3432 -0.5352
14010TIP3    H163521   2.049   0.417   1.184 -0.1901 -0.9252  0.5624
14010TIP3    H263522   1.908   0.461   1.216 -0.0730 -0.4037  0.3622
14011TIP3   OH263523   1.161   0.659  13.707  0.0814 -0.3622 -0.4008
14011TIP3    H163524   1.177   0.751  13.688  0.8700 -0.7043 -1.3713
14011TIP3    H263525   1.127   0.622  13.625 -3.1257 -0.2801  0.7929
14012TIP3   OH263526   1.324   1.763   0.505  0.1610  0.0653  0.3067
14012TIP3    H163527   1.390   1.804   0.449  1.9243 -0.7872  1.6878
14012TIP3    H263528   1.372   1.693   0.551 -1.9841 -1.3614  0.4617
14013TIP3   OH263529   4.660   2.922   4.202 -0.3499 -0.1641  0.5906
14013TIP3    H163530   4.737   2.941   4.256  0.1193 -0.5322  0.0490
14013TIP3    H263531   4.631   2.835   4.231 -0.7486  0.1069  1.0106
14014TIP3   OH263532   4.002   0.786  13.355 -0.3029 -0.1894  0.1626
14014TIP3    H163533   3.997   0.783  13.259 -0.6877  0.3675  0.1588
14014TIP3    H263534   3.912   0.773  13.384 -0.3064  0.4221  0.4257
14015TIP3   OH263535   1.408   6.581   0.649 -0.1926 -0.2628  0.1026
14015TIP3    H163536   1.411   6.573   0.554  2.1447 -1.3353  0.2539
14015TIP3    H263537   1.425   6.674   0.666  0.4088 -0.2631 -0.4904
14016TIP3   OH263538   1.503   5.693  12.470  0.0307 -0.2778  0.6150
14016TIP3    H163539   1.585   5.658  12.438 -0.4318 -0.9975  0.2025
14016TIP3    H263540   1.525   5.734  12.554  0.8608 -0.1849  0.3555
14017TIP3   OH263541   0.123   1.831  13.487 -0.0403 -0.2647 -0.1754
14017TIP3    H163542   0.120   1.760  13.423  3.2958  0.4685 -1.2617
14017TIP3    H263543   0.032   1.844  13.513 -1.4253 -1.1020 -4.2146
14018TIP3   OH263544   4.497   5.486  14.337 -0.0144 -0.5170 -0.3653
14018TIP3    H163545   4.550   5.561  14.310  0.0662 -0.2528  0.5050
14018TIP3    H263546   4.450   5.460  14.257  0.4780  0.0271 -0.8399
14019TIP3   OH263547   3.845   4.806  13.725  0.5117 -0.5430  0.0821
14019TIP3    H163548   3.848   4.742  13.653  2.1952  0.5536 -0.8535
14019TIP3    H263549   3.768   4.781  13.776 -0.2260 -1.8588 -1.6238
14020TIP3   OH263550   4.275   0.590  16.086 -0.4493  0.1099 -0.3483
14020TIP3    H163551   4.358   0.557  16.052 -0.0940  0.8588 -0.2274
14020TIP3    H263552   4.280   0.576  16.181  0.4123  1.9809 -0.0797
14021TIP3   OH263553   2.549   0.322   4.284 -0.1076 -0.3987 -0.0884
14021TIP3    H163554   2.577   0.290   4.199  1.2305 -0.2557  0.2992
14021TIP3    H263555   2.472   0.268   4.305 -1.3510  0.5455 -2.0242
14022TIP3   OH263556   6.775   4.154  13.995  0.3222  0.0780  0.0368
14022TIP3    H163557   6.776   4.079  14.054  0.7584 -0.4387 -0.6142
14022TIP3    H263558   6.867   4.178  13.984  0.3453 -0.5582 -1.3334
14023TIP3   OH263559   2.801   2.924  15.016 -0.0468 -0.1396 -0.3352
14023TIP3    H163560   2.745   2.964  15.083  0.5013  1.2041 -0.6503
14023TIP3    H263561   2.853   2.998  14.982 -0.9645 -0.6282 -2.8821
14024TIP3   OH263562   4.531   5.351   4.220 -0.3514  0.2153  0.7858
14024TIP3    H163563   4.535   5.419   4.288  1.3951 -0.3403  1.2632
14024TIP3    H263564   4.580   5.389   4.146 -2.6048  0.9904 -0.3478
14025TIP3   OH263565   6.079   5.191   3.259 -0.4544 -0.6201 -0.0349
14025TIP3    H163566   5.999   5.230   3.293 -0.4907 -0.5050 -0.2521
14025TIP3    H263567   6.145   5.208   3.326  0.1805  2.1606 -1.3151
14026TIP3   OH263568   2.409   5.258   5.255 -0.4988 -0.0898 -0.1551
14026TIP3    H163569   2.392   5.286   5.345  0.5475  2.5917 -0.7454
14026TIP3    H263570   2.324   5.260   5.212 -0.8227 -0.2931  0.4701
14027TIP3   OH263571   1.168   6.185   2.420  0.4403 -0.0255  0.0366
14027TIP3    H163572   1.263   6.170   2.421  0.7361  1.2265 -3.3078
14027TIP3    H263573   1.143   6.172   2.329 -2.6138 -0.2241  0.8718
14028TIP3   OH263574   0.954   3.976   4.887 -0.0801 -0.1827  0.9418
14028TIP3    H163575   0.910   4.024   4.817  0.8242 -0.9488 -0.1780
14028TIP3    H263576   1.047   3.999   4.877  0.0865 -0.4561  1.7751
14029TIP3   OH263577   4.576   6.783  14.914 -0.0423 -0.3500 -0.0185
14029TIP3    H163578   4.577   6.875  14.940 -0.3827 -0.3692  0.0732
14029TIP3    H263579   4.557   6.784  14.820 -0.2507 -0.3309  0.0217
14030TIP3   OH263580   0.893   5.407   3.920  0.1217 -0.0527 -0.1057
14030TIP3    H163581   0.916   5.366   3.837 -2.1617 -2.1415  0.2650
14030TIP3    H263582   0.850   5.338   3.971 -0.2783  1.7208  2.0607
14031TIP3   OH263583   4.230   0.391   5.817 -0.2515  0.1851 -0.1235
14031TIP3    H163584   4.147   0.417   5.858 -0.1425 -1.9574  1.6018
14031TIP3    H263585   4.290   0.462   5.838 -1.5879  1.6860 -1.2558
14032TIP3   OH263586   1.602   6.386   6.335  0.0018 -0.4943  0.0789
14032TIP3    H163587   1.509   6.363   6.346 -0.1685 -1.5540 -3.0056
14032TIP3    H263588   1.601   6.481   6.321 -0.6257 -0.5091 -0.0174
14033TIP3   OH263589   5.750   2.795   3.761  0.8686 -0.2740  0.3804
14033TIP3    H163590   5.789   2.879   3.784  1.6479 -0.9142  1.4606
14033TIP3    H263591   5.809   2.730   3.800  1.5418 -1.3991 -2.3565
14034TIP3   OH263592   0.348   0.359  15.176 -0.3957 -0.0473 -0.1092
14034TIP3    H163593   0.351   0.349  15.271 -0.2913  0.4773 -0.0585
14034TIP3    H263594   0.403   0.435  15.158  1.0180 -1.1896 -0.7368
14035TIP3   OH263595   4.166   5.466  17.268 -0.5599 -0.0961 -0.2026
14035TIP3    H163596   4.238   5.515  17.308  0.8019 -1.6870 -0.6261
14035TIP3    H263597   4.173   5.484  17.174 -0.1325 -0.9683 -0.3469
14036TIP3   OH263598   0.687   2.097  17.117  0.4865  0.3438 -0.4998
14036TIP3    H163599   0.746   2.123  17.187  0.4265 -0.9661  0.0498
14036TIP3    H263600   0.713   2.151  17.042  2.0526  0.1318 -0.1249
14037TIP3   OH263601   1.121   6.729  11.871  0.3091  0.1215  0.9096
14037TIP3    H163602   1.115   6.652  11.927 -0.9223  0.0729  0.7127
14037TIP3    H263603   1.178   6.789  11.918 -0.5057 -0.0224  2.0771
14038TIP3   OH263604   2.914   3.324   0.916  0.1192  0.1660 -0.2211
14038TIP3    H163605   2.832   3.294   0.878 -0.0854 -0.3219  0.6037
14038TIP3    H263606   2.975   3.252   0.902  0.7828  1.0545 -2.0384
14039TIP3   OH263607   2.894   3.858  16.050 -0.1955  0.0753  0.2997
14039TIP3    H163608   2.803   3.830  16.039 -0.6247  1.5044  0.0415
14039TIP3    H263609   2.892   3.953  16.035  1.2079  0.2495  1.0990
14040TIP3   OH263610   1.568   1.870  13.595  0.1396 -0.1853  0.5522
14040TIP3    H163611   1.561   1.777  13.618  0.4450 -0.1809  0.6582
14040TIP3    H263612   1.622   1.908  13.664  3.1952 -0.6605 -1.5161
14041TIP3   OH263613   1.708   1.798  11.460  0.0625 -0.5515  0.1536
14041TIP3    H163614   1.676   1.808  11.371 -0.2736 -3.2005 -0.0603
14041TIP3    H263615   1.803   1.792  11.452 -0.0458 -1.9330 -0.1523
14042TIP3   OH263616   1.481   6.017  13.429  0.1592 -0.4856 -0.2107
14042TIP3    H163617   1.471   5.947  13.364  0.1571  2.0185 -3.0119
14042TIP3    H263618   1.392   6.031  13.463  0.0745 -1.4502 -0.0072
14043TIP3   OH263619   5.879   4.500   6.285  0.1837 -0.5852 -0.0222
14043TIP3    H163620   5.870   4.454   6.369  1.4422  0.4339  0.6879
14043TIP3    H263621   5.964   4.544   6.290  0.0479 -0.0919 -1.6346
14044TIP3   OH263622   3.402   4.053   4.625  0.5203  0.0100 -0.0237
14044TIP3    H163623   3.346   4.018   4.555 -1.3085 -0.4750  1.6318
14044TIP3    H263624   3.447   4.127   4.585 -0.8666  0.0475 -1.5715
14045TIP3   OH263625   6.759   4.318   4.936 -0.7449 -0.5382  0.1335
14045TIP3    H163626   6.771   4.223   4.934  0.0524 -0.4265 -1.0522
14045TIP3    H263627   6.693   4.336   4.869  0.8318 -0.0347 -1.3057
14046TIP3   OH263628   5.810   5.466  11.520 -0.7486  0.1370 -0.1923
14046TIP3    H163629   5.896   5.494  11.489  0.0305 -0.5501  1.2738
14046TIP3    H263630   5.766   5.547  11.547 -0.0990  0.3742  0.1541
14047TIP3   OH263631   3.808   4.196   4.318 -0.5072 -0.3481  0.0410
14047TIP3    H163632   3.874   4.174   4.251  1.4328  0.9830  1.4313
14047TIP3    H263633   3.841   4.278   4.356 -1.3367 -1.3090  2.9158
14048TIP3   OH263634   2.185   2.917   0.918 -0.8408 -0.3189 -0.0584
14048TIP3    H163635   2.261   2.975   0.909 -0.6768 -0.2677  1.5054
14048TIP3    H263636   2.112   2.967   0.880 -0.1083 -0.3552 -1.5366
14049TIP3   OH263637   5.662   4.999   1.347 -0.2637 -0.0401  0.4338
14049TIP3    H163638   5.620   5.013   1.431  0.5457  0.4619  0.7540
14049TIP3    H263639   5.718   5.075   1.334 -1.3079  0.5003 -1.1325
14050TIP3   OH263640   1.071   1.755  12.721  0.2310  0.2610 -0.7192
14050TIP3    H163641   1.057   1.849  12.731  0.4885  0.1816  0.4900
14050TIP3    H263642   0.985   1.719  12.699 -0.3524  0.4813  1.1636
14051TIP3   OH263643   1.452   5.040   1.901 -0.0526  0.1988  0.1123
14051TIP3    H163644   1.484   4.950   1.897  1.5861  0.7887 -0.3627
14051TIP3    H263645   1.515   5.090   1.849 -0.5287  1.7484  0.9980
14052TIP3   OH263646   4.794   4.780  17.091 -0.4624  0.0989  0.0327
14052TIP3    H163647   4.851   4.850  17.060 -0.5485 -0.4049 -1.3362
14052TIP3    H263648   4.854   4.713  17.124 -0.2277 -0.4299 -1.4052
14053TIP3   OH263649   2.864   6.383  11.459 -0.2773 -0.0269 -0.3682
14053TIP3    H163650   2.805   6.409  11.529 -0.0029 -0.2993 -0.0335
14053TIP3    H263651   2.853   6.288  11.453 -2.1028  0.2777 -2.3214
14054TIP3   OH263652   6.619   6.254  10.636  0.3619  0.1949 -0.3539
14054TIP3    H163653   6.643   6.342  10.662  0.1584  0.3097 -0.5558
14054TIP3    H263654   6.524   6.256  10.627 -0.0248 -0.8577  2.7535
14055TIP3   OH263655   6.288   5.175   2.406 -0.0293  0.2280  0.1703
14055TIP3    H163656   6.255   5.102   2.354  0.1900  1.3633 -1.6194
14055TIP3    H263657   6.327   5.234   2.342 -1.4474  2.5879  1.4046
14056TIP3   OH263658   0.230   0.097   5.849 -0.4131  0.1026 -0.4132
14056TIP3    H163659   0.207   0.110   5.941 -0.7586 -0.4478 -0.4239
14056TIP3    H263660   0.166   0.035   5.817  0.2400 -0.3722 -0.8017
14057TIP3   OH263661   2.091   2.206  10.897 -0.3055 -0.2683  0.6455
14057TIP3    H163662   2.098   2.133  10.836  3.7112  2.3143 -2.2540
14057TIP3    H263663   2.145   2.180  10.972  1.4801 -0.1588 -0.5767
14058TIP3   OH263664   3.274   3.209  15.005  0.3175 -0.1881 -0.0591
14058TIP3    H163665   3.223   3.255  15.072 -0.2091  1.1738 -1.3687
14058TIP3    H263666   3.362   3.205  15.041 -0.3182 -1.0812  1.4937
14059TIP3   OH263667   3.807   4.728   0.704  0.2967  0.1928 -0.0565
14059TIP3    H163668   3.822   4.799   0.643 -1.3437  1.1547  0.6413
14059TIP3    H263669   3.852   4.755   0.784 -0.6003  0.5953  0.3123
14060TIP3   OH263670   2.150   4.237  13.535 -0.2812  0.7438 -0.6276
14060TIP3    H163671   2.155   4.142  13.543 -0.3400  0.6849 -1.2525
14060TIP3    H263672   2.238   4.264  13.509 -0.5367  0.7552 -1.4698
14061TIP3   OH263673   2.677   5.012   4.961 -0.1299  0.0812  0.4719
14061TIP3    H163674   2.635   5.008   5.047 -0.3535  1.3042  0.4422
14061TIP3    H263675   2.605   5.005   4.898  0.0742 -1.1904  0.3814
14062TIP3   OH263676   5.719   2.403   1.142  0.5068 -0.0894  0.2369
14062TIP3    H163677   5.634   2.443   1.127 -0.3946 -1.6908  0.9606
14062TIP3    H263678   5.762   2.462   1.204 -0.2540  0.4824  0.2290
14063TIP3   OH263679   2.358   3.147   4.237  0.1731 -0.9207 -0.8088
14063TIP3    H163680   2.364   3.239   4.263  1.6063 -1.4878  1.0368
14063TIP3    H263681   2.264   3.131   4.226 -0.4088 -0.1204  2.3856
14064TIP3   OH263682   6.750   0.972  12.310 -0.3213  0.4177 -0.1157
14064TIP3    H163683   6.660   0.959  12.280 -1.1158  0.3691  2.2391
14064TIP3    H263684   6.745   0.967  12.405  2.5640 -2.1589 -0.0140
14065TIP3   OH263685   5.200   5.283   1.250 -0.0650 -0.0025  0.8469
14065TIP3    H163686   5.144   5.213   1.284  0.2017 -0.2891  0.6952
14065TIP3    H263687   5.239   5.323   1.328  0.2239 -0.3898  0.9024
14066TIP3   OH263688   1.130   3.334   1.836  0.0559  0.2806  0.3166
14066TIP3    H163689   1.223   3.321   1.819 -0.4722 -2.8082 -0.6675
14066TIP3    H263690   1.119   3.313   1.929  0.3844  0.8967  0.4937
14067TIP3   OH263691   6.675   4.636   1.550 -0.1612 -0.4162 -0.4641
14067TIP3    H163692   6.726   4.624   1.630 -0.1568  1.3667 -0.1996
14067TIP3    H263693   6.586   4.654   1.581 -0.6933 -2.1321 -0.9089
14068TIP3   OH263694   5.208   0.862  13.299 -0.1426  0.1839 -0.0827
14068TIP3    H163695   5.293   0.844  13.259 -1.0258 -1.1437 -1.4036
14068TIP3    H263696   5.215   0.952  13.331  1.2734  0.5731 -1.4317
14069TIP3   OH263697   2.734   1.337   2.691 -0.4793  0.0769  0.0224
14069TIP3    H163698   2.707   1.418   2.734  0.7657  0.4161  0.1813
14069TIP3    H263699   2.734   1.358   2.598  0.8851  0.5733  0.1368
14070TIP3   OH263700   1.185   2.983  14.038  0.0198  0.4230  0.3641
14070TIP3    H163701   1.115   2.992  14.102 -0.9171  0.8924 -0.7106
14070TIP3    H263702   1.261   2.955  14.089 -0.2466  2.4645  1.9326
14071TIP3   OH263703   2.961   3.576   3.010  0.5568  0.1173  0.2282
14071TIP3    H163704   2.935   3.644   2.949  0.7944  0.3874  0.4275
14071TIP3    H263705   3.041   3.609   3.050  1.5074 -0.9407 -0.7680
14072TIP3   OH263706   6.530   5.285  15.712 -0.4519  0.2950 -0.4750
14072TIP3    H163707   6.546   5.213  15.651 -1.5612  0.1604 -0.6200
14072TIP3    H263708   6.471   5.344  15.665 -0.2767  0.8419 -0.0173
14073TIP3   OH263709   5.048   0.747   1.231  0.1201 -0.1380 -0.1973
14073TIP3    H163710   5.036   0.713   1.319 -1.1016 -1.8163 -0.9967
14073TIP3    H263711   5.008   0.682   1.174 -0.9052  1.8837 -1.8626
14074TIP3   OH263712   5.697   5.808  11.811 -0.0347 -0.0824 -0.3709
14074TIP3    H163713   5.790   5.797  11.789 -0.2194  0.0873 -1.2505
14074TIP3    H263714   5.687   5.903  11.823 -0.0462 -0.1224 -0.0716
14075TIP3   OH263715   1.190   1.394   5.801 -0.2653  0.1551  0.1318
14075TIP3    H163716   1.239   1.361   5.725 -2.4581 -2.1907 -0.3793
14075TIP3    H263717   1.203   1.327   5.868 -2.8364 -0.6303 -0.0905
14076TIP3   OH263718   3.202   4.973  10.540 -0.5786 -0.2632  0.2726
14076TIP3    H163719   3.225   4.895  10.591 -1.3111  0.0381  1.0786
14076TIP3    H263720   3.205   4.944  10.449  0.6194 -0.8473  0.4855
14077TIP3   OH263721   4.299   0.365  11.546  0.2797  0.4468 -0.1329
14077TIP3    H163722   4.246   0.349  11.468 -1.6756  0.1407  1.2484
14077TIP3    H263723   4.258   0.440  11.588 -0.1439 -0.9025  1.8991
14078TIP3   OH263724   3.899   5.323   0.032 -0.4537  0.0799 -0.4946
14078TIP3    H163725   3.880   5.406   0.075  0.2201 -0.6335  1.2437
14078TIP3    H263726   3.994   5.315   0.037 -0.2752  0.3615 -2.9021
14079TIP3   OH263727   1.147   2.785   3.758  0.5371  0.3441 -0.1002
14079TIP3    H163728   1.081   2.728   3.718  1.2505 -0.6429  0.1234
14079TIP3    H263729   1.157   2.857   3.696 -0.5787  0.3838 -0.2519
14080TIP3   OH263730   2.434   2.504   1.683 -0.0933 -0.2055 -0.1542
14080TIP3    H163731   2.519   2.489   1.724 -1.1357 -0.0087  2.1113
14080TIP3    H263732   2.444   2.586   1.635  0.8208  0.1431  0.6206
14081TIP3   OH263733   1.880   3.672  15.876 -0.3090  0.1394  0.7962
14081TIP3    H163734   1.788   3.683  15.902 -0.0209  0.6150  1.5992
14081TIP3    H263735   1.930   3.693  15.954  0.5292  0.7696  0.0910
14082TIP3   OH263736   1.613   2.186   0.280 -0.2107  0.2154  1.0479
14082TIP3    H163737   1.637   2.218   0.367  0.1517  0.2014  0.9545
14082TIP3    H263738   1.653   2.100   0.275 -0.4160  0.1277  0.9506
14083TIP3   OH263739   0.873   2.483   2.141 -0.6101 -0.3172  0.7072
14083TIP3    H163740   0.891   2.498   2.234 -1.2836 -1.1908  0.9843
14083TIP3    H263741   0.952   2.439   2.108  0.3847  1.6404  0.4364
14084TIP3   OH263742   1.859   1.463   5.927 -0.5496 -0.3850  0.1300
14084TIP3    H163743   1.936   1.445   5.873 -1.0046  1.1765 -1.0837
14084TIP3    H263744   1.788   1.418   5.883 -0.8497  0.5632 -0.3643
14085TIP3   OH263745   4.597   5.191  14.403  0.1924 -0.5624  0.5007
14085TIP3    H163746   4.521   5.177  14.459 -0.0865 -2.7274 -0.4032
14085TIP3    H263747   4.577   5.272  14.356 -1.8903 -1.4991 -0.2723
14086TIP3   OH263748   1.410   5.655  16.061  0.2930  0.0792 -0.5211
14086TIP3    H163749   1.460   5.737  16.061 -0.7133  0.7163  0.7957
14086TIP3    H263750   1.413   5.625  15.970 -2.1380  3.3556 -1.7885
14087TIP3   OH263751   0.806   2.684  17.038 -1.1223 -0.5128  0.2349
14087TIP3    H163752   0.774   2.682  16.948 -0.0345  2.4264 -0.2680
14087TIP3    H263753   0.875   2.618  17.041 -1.2524 -0.7141 -1.0521
14088TIP3   OH263754   4.071   1.156  16.559 -0.1574 -0.5288 -0.0228
14088TIP3    H163755   4.032   1.201  16.634 -1.9670 -0.7149 -0.8257
14088TIP3    H263756   4.023   1.073  16.554 -1.0440  0.1028 -2.2604
14089TIP3   OH263757   0.337   3.413  15.254  0.8200  0.1801 -0.2068
14089TIP3    H163758   0.274   3.354  15.296  0.0471  0.7768 -0.5147
14089TIP3    H263759   0.420   3.364  15.254  0.6671 -0.0844  1.3743
14090TIP3   OH263760   5.523   2.053  11.924 -0.0081  0.4043 -0.3628
14090TIP3    H163761   5.611   2.084  11.902 -0.0292 -0.3987 -1.5712
14090TIP3    H263762   5.510   1.975  11.871  0.2711 -2.1241  3.1372
14091TIP3   OH263763   3.151   1.423   3.473 -1.0212 -0.2285  0.3877
14091TIP3    H163764   3.096   1.475   3.532 -0.7908  1.0411 -0.5081
14091TIP3    H263765   3.241   1.440   3.503 -0.8526  1.0058 -0.7825
14092TIP3   OH263766   1.106   6.079  13.510  0.0829  0.1194  0.2140
14092TIP3    H163767   1.023   6.126  13.503  0.4381  0.9995  1.8289
14092TIP3    H263768   1.109   6.047  13.600  1.7433  0.5503  0.3285
14093TIP3   OH263769   5.290   0.556   0.426 -0.4101  0.1810 -0.0609
14093TIP3    H163770   5.354   0.600   0.371  1.5118 -0.5524  1.5321
14093TIP3    H263771   5.322   0.466   0.435 -3.3974 -1.1298 -1.8836
14094TIP3   OH263772   0.756   1.558  14.572  0.2140  0.1513 -0.3735
14094TIP3    H163773   0.762   1.468  14.539 -1.9207 -0.0137 -0.3935
14094TIP3    H263774   0.842   1.575  14.612  0.3389 -2.2038  0.4413
14095TIP3   OH263775   4.531   4.475   2.136 -0.5200  0.4378  0.2526
14095TIP3    H163776   4.563   4.397   2.181  0.5711  1.7848  1.9296
14095TIP3    H263777   4.445   4.451   2.103 -1.1944 -0.7663  2.7431
14096TIP3   OH263778   0.875   2.977   5.643 -0.4133 -0.5552 -0.1793
14096TIP3    H163779   0.851   2.931   5.562 -0.1286  0.6191 -0.9401
14096TIP3    H263780   0.963   3.012   5.625 -0.3162 -0.3542  0.6725
14097TIP3   OH263781   6.093   3.393   5.772 -0.2933  0.6574 -0.4605
14097TIP3    H163782   6.154   3.382   5.699 -0.0700 -0.1122 -0.1688
14097TIP3    H263783   6.026   3.451   5.739  0.5014  1.3644 -0.8517
14098TIP3   OH263784   5.274   0.168   0.620  0.0429 -0.8914  0.1156
14098TIP3    H163785   5.266   0.193   0.528 -1.4837  1.4370  0.8355
14098TIP3    H263786   5.184   0.164   0.651  0.6222 -0.0894  1.9227
14099TIP3   OH263787   5.798   5.564   0.211  0.0534 -0.1596  0.1012
14099TIP3    H163788   5.840   5.636   0.163 -0.1737  0.0303  0.1887
14099TIP3    H263789   5.765   5.506   0.142  1.0098 -0.6264  0.0359
14100TIP3   OH263790   4.369   6.443  12.482 -0.5512 -0.0344 -0.0215
14100TIP3    H163791   4.370   6.486  12.568 -1.8075  0.5885 -0.3029
14100TIP3    H263792   4.447   6.387  12.482 -0.5383 -0.0418  1.5220
14101TIP3   OH263793   6.575   5.275  16.479  0.2465 -0.0850 -0.1064
14101TIP3    H163794   6.570   5.283  16.574  0.2907 -0.2820 -0.0880
14101TIP3    H263795   6.567   5.365  16.447 -1.0595 -0.1451  0.0253
14102TIP3   OH263796   2.879   5.741   6.079  0.0813 -0.4065 -0.9467
14102TIP3    H163797   2.806   5.732   6.139 -2.3125  2.4867 -3.2796
14102TIP3    H263798   2.950   5.690   6.120 -3.0317 -2.9753  1.5587
14103TIP3   OH263799   3.800   6.179   5.185 -0.1127  0.1414  0.0996
14103TIP3    H163800   3.837   6.092   5.172  0.8314  0.6101 -0.4155
14103TIP3    H263801   3.737   6.168   5.256  0.9698 -0.6962  0.9584
14104TIP3   OH263802   1.257   3.686   3.619  0.5124  0.5089 -0.7590
14104TIP3    H163803   1.276   3.712   3.529 -0.1524 -2.2718 -1.7482
14104TIP3    H263804   1.251   3.590   3.616  1.6315  0.2796  2.4744
14105TIP3   OH263805   2.499   1.751  12.983 -0.3687 -0.2421  0.2704
14105TIP3    H163806   2.469   1.747  13.074 -0.2280 -1.3341  0.2717
14105TIP3    H263807   2.432   1.703  12.934 -1.4294  1.9303 -0.4779
14106TIP3   OH263808   6.235   4.731  14.231 -0.2961  0.2340  0.0813
14106TIP3    H163809   6.244   4.803  14.294 -1.0367  1.5423 -1.2813
14106TIP3    H263810   6.171   4.672  14.271  1.5379 -0.5457  1.9780
14107TIP3   OH263811   3.266   4.144   5.312  0.3510  0.3831  0.1001
14107TIP3    H163812   3.234   4.151   5.222 -0.9119 -0.7495  0.4370
14107TIP3    H263813   3.187   4.134   5.365  1.1777 -1.2822  1.0804
14108TIP3   OH263814   0.817   0.116   3.508 -0.1084 -0.9017 -0.1268
14108TIP3    H163815   0.768   0.107   3.590 -1.1645 -2.2052 -0.8990
14108TIP3    H263816   0.767   0.181   3.458 -0.0800 -0.9434 -0.2086
14109TIP3   OH263817   3.487   6.363   0.672 -1.1306 -0.3973  0.7905
14109TIP3    H163818   3.464   6.416   0.596 -0.2095  0.0261  0.8017
14109TIP3    H263819   3.501   6.275   0.637  1.5158  0.2602  0.0881
14110TIP3   OH263820   4.060   2.827   1.759  0.3428  0.2397  0.0521
14110TIP3    H163821   4.023   2.909   1.790 -1.2840  0.5590 -2.5838
14110TIP3    H263822   4.104   2.850   1.677  0.1540 -1.4610 -0.5473
14111TIP3   OH263823   3.957   2.728   0.552 -0.2040 -0.0263 -0.5518
14111TIP3    H163824   4.028   2.779   0.512 -0.6629 -0.0289 -1.3871
14111TIP3    H263825   3.900   2.705   0.478 -1.2236  0.2194  0.1524
14112TIP3   OH263826   2.841   3.157  14.713  0.2769 -0.0433  0.4964
14112TIP3    H163827   2.880   3.229  14.662  0.5181  0.6152  1.5991
14112TIP3    H263828   2.751   3.151  14.679  0.4815  0.2728 -0.1292
14113TIP3   OH263829   1.906   1.826  15.556 -0.0410  0.2053  0.3910
14113TIP3    H163830   1.901   1.921  15.549  0.4656  0.2906  1.1345
14113TIP3    H263831   1.824   1.800  15.598 -0.2031  0.3110  0.1349
14114TIP3   OH263832   4.825   3.024  16.619 -0.2354 -0.4839 -0.5793
14114TIP3    H163833   4.886   2.952  16.600  0.6867  0.2684 -0.5343
14114TIP3    H263834   4.835   3.083  16.545 -1.0892 -0.4587 -0.6764
14115TIP3   OH263835   0.632   6.325  13.687 -0.0821  0.1574  0.0977
14115TIP3    H163836   0.610   6.402  13.739  0.7707  0.2481  0.3416
14115TIP3    H263837   0.571   6.327  13.613 -1.3651 -0.0248  1.1400
14116TIP3   OH263838   0.453   3.326   2.404 -0.2615  0.1789 -0.2925
14116TIP3    H163839   0.378   3.360   2.452  0.6863  0.8552  0.7357
14116TIP3    H263840   0.458   3.234   2.430 -0.0703  0.4101  0.4926
14117TIP3   OH263841   4.774   4.725  15.619 -0.5357  0.1248 -0.0301
14117TIP3    H163842   4.836   4.798  15.627 -0.3463 -0.1528  1.1263
14117TIP3    H263843   4.688   4.768  15.617 -0.4075  0.4128  0.3480
14118TIP3   OH263844   5.193   1.357   2.235 -0.4646  0.1437  0.4314
14118TIP3    H163845   5.214   1.451   2.231 -1.7037  0.4151  0.2795
14118TIP3    H263846   5.268   1.314   2.194  0.9742  0.9390  2.1506
14119TIP3   OH263847   1.322   4.804  14.599 -0.6369  0.2268 -0.0588
14119TIP3    H163848   1.293   4.742  14.666  0.0961 -0.8711 -0.7504
14119TIP3    H263849   1.374   4.869  14.646 -0.9330 -0.0021  0.5786
14120TIP3   OH263850   1.569   2.794  15.443  0.0343 -0.3764 -0.4048
14120TIP3    H163851   1.548   2.721  15.502  3.2241 -1.7840 -0.8890
14120TIP3    H263852   1.565   2.871  15.499  0.2802 -1.3801  1.0291
14121TIP3   OH263853   1.435   0.066   6.369  0.4669  0.0473  0.0287
14121TIP3    H163854   1.366   0.069   6.302  0.5045  1.6103  0.0315
14121TIP3    H263855   1.515   0.043   6.320  0.2784  0.0429 -0.2762
14122TIP3   OH263856   3.340   4.835  17.051 -0.3471  0.8055 -0.1151
14122TIP3    H163857   3.378   4.882  16.976 -0.8819 -2.5103 -2.5822
14122TIP3    H263858   3.414   4.822  17.111  0.9734  0.1959 -1.8229
14123TIP3   OH263859   2.358   0.903   5.520  0.2844 -0.5152 -0.3250
14123TIP3    H163860   2.379   0.810   5.530 -1.1181 -0.7047  1.0048
14123TIP3    H263861   2.398   0.928   5.436  1.2879 -2.1233 -0.3415
14124TIP3   OH263862   6.167   0.732  12.075  0.8388  0.5333  0.0750
14124TIP3    H163863   6.240   0.746  12.014  0.2991 -1.9137 -1.1844
14124TIP3    H263864   6.096   0.698  12.021 -1.2960  2.8532  1.2958
14125TIP3   OH263865   4.874   0.692  12.564  0.0357 -0.0226  0.0635
14125TIP3    H163866   4.889   0.703  12.658 -1.5074  1.4991  0.1720
14125TIP3    H263867   4.797   0.635  12.558  0.0716 -0.0392 -0.2699
14126TIP3   OH263868   2.904   3.421   5.864  0.1348  0.0479 -0.1532
14126TIP3    H163869   2.973   3.384   5.919  1.1000  1.2375 -0.5522
14126TIP3    H263870   2.842   3.459   5.927  0.0352 -0.6805  0.1924
14127TIP3   OH263871   6.771   2.687   6.038 -0.1110  0.4997 -0.0409
14127TIP3    H163872   6.770   2.619   6.105 -1.0148  0.9823  0.4396
14127TIP3    H263873   6.786   2.639   5.956 -1.8113 -0.4102  0.1567
14128TIP3   OH263874   0.140   3.036  14.275 -0.1900  0.1734 -0.7910
14128TIP3    H163875   0.137   2.941  14.261 -3.3959  0.0499  0.3316
14128TIP3    H263876   0.232   3.059  14.261  1.2962 -3.5695  1.8041
14129TIP3   OH263877   5.368   6.643  14.018 -0.3236 -0.7358 -0.7282
14129TIP3    H163878   5.406   6.700  14.085  1.2823  0.2648 -2.4461
14129TIP3    H263879   5.305   6.589  14.065  1.9749 -1.1968  1.8881
14130TIP3   OH263880   3.684   5.557   3.743  0.1132 -0.1656 -0.2682
14130TIP3    H163881   3.724   5.635   3.782 -0.7956 -0.4855  1.3514
14130TIP3    H263882   3.757   5.498   3.725  0.6633  0.4872 -0.2039
14131TIP3   OH263883   0.651   5.038   3.405  0.3611 -0.9201 -0.0742
14131TIP3    H163884   0.724   5.005   3.353 -0.2166 -1.9386 -0.2501
14131TIP3    H263885   0.663   4.997   3.491  1.2963  0.7322  0.6144
14132TIP3   OH263886   1.854   3.752   2.318  0.4408 -0.6904 -0.0986
14132TIP3    H163887   1.894   3.836   2.340 -0.2805 -0.7766  1.6093
14132TIP3    H263888   1.808   3.726   2.397 -1.3668 -1.5435 -1.3959
14133TIP3   OH263889   2.610   2.800   5.442  0.4511 -0.1500 -0.6193
14133TIP3    H163890   2.612   2.873   5.380  0.3258  0.8468  0.5448
14133TIP3    H263891   2.691   2.808   5.491  0.4610 -0.8307 -0.5221
14134TIP3   OH263892   1.217   5.434   5.716 -0.4052  0.1228  0.3366
14134TIP3    H163893   1.221   5.346   5.755  0.4592  0.1828  0.3814
14134TIP3    H263894   1.271   5.488   5.773 -1.1310  0.7451  0.4459
14135TIP3   OH263895   0.869   3.913  16.583 -0.5725  0.0814 -0.4920
14135TIP3    H163896   0.816   3.844  16.544  0.7372 -1.4410  0.3970
14135TIP3    H263897   0.834   3.994  16.544 -0.7364 -1.2070 -3.1824
14136TIP3   OH263898   3.046   4.987   3.036 -0.1522  0.5423 -0.2524
14136TIP3    H163899   3.023   5.049   2.966 -0.1308  0.6938 -0.1252
14136TIP3    H263900   3.138   5.006   3.056 -0.2857  0.7992  0.1225
14137TIP3   OH263901   4.707   5.584   3.473  0.1939 -0.4421  0.4816
14137TIP3    H163902   4.652   5.634   3.413  1.6487  0.5116 -0.1059
14137TIP3    H263903   4.797   5.608   3.448  0.8661 -1.6557  1.6582
14138TIP3   OH263904   4.378   3.826  15.472  0.0999 -0.3145 -0.2809
14138TIP3    H163905   4.342   3.806  15.386  1.5033 -0.3516 -0.8668
14138TIP3    H263906   4.325   3.900  15.503 -0.1211 -0.0120 -1.3627
14139TIP3   OH263907   5.220   5.504   2.964  0.0734 -0.4018 -0.5569
14139TIP3    H163908   5.294   5.530   3.019  0.0119 -0.6749 -0.3434
14139TIP3    H263909   5.212   5.409   2.978  1.2360 -0.7983 -2.4819
14140TIP3   OH263910   3.729   6.808  16.023 -0.6866 -0.3533  0.4367
14140TIP3    H163911   3.730   6.713  16.035 -0.0427 -0.2215  1.5790
14140TIP3    H263912   3.711   6.843  16.111 -1.3081  0.5670 -0.0510
14141TIP3   OH263913   1.031   3.373   3.771  0.2138 -0.5334 -0.2617
14141TIP3    H163914   0.972   3.344   3.701 -0.0591 -3.1824  0.9867
14141TIP3    H263915   1.067   3.292   3.806  0.8595  0.7867  2.2114
14142TIP3   OH263916   5.142   2.073   3.574 -0.3040 -0.1824 -0.4795
14142TIP3    H163917   5.176   2.097   3.661 -0.1081  2.5298 -1.2665
14142TIP3    H263918   5.162   2.148   3.519  0.7350 -2.4103 -3.2255
14143TIP3   OH263919   0.009   3.677   4.003 -0.4340  0.4585  0.0379
14143TIP3    H163920   0.070   3.677   4.076 -1.8475 -2.1863  1.2686
14143TIP3    H263921   0.061   3.707   3.928  1.5346  1.2715  1.6942
14144TIP3   OH263922   6.674   4.777   5.912 -0.7943  0.6252  0.3666
14144TIP3    H163923   6.606   4.844   5.904  0.3729  1.9526  1.2299
14144TIP3    H263924   6.628   4.699   5.942 -2.1172  1.1367 -0.2545
14145TIP3   OH263925   6.002   2.818   4.840  0.1393 -0.9107 -0.2040
14145TIP3    H163926   6.084   2.772   4.855  0.3241  0.2690  2.7716
14145TIP3    H263927   6.027   2.907   4.818 -0.3218 -0.5057  0.8595
14146TIP3   OH263928   0.138   3.521  11.383 -0.3012 -0.1427 -0.3123
14146TIP3    H163929   0.191   3.562  11.452 -0.7093 -0.2781  0.0890
14146TIP3    H263930   0.115   3.593  11.325  0.6598 -0.1547 -0.7092
14147TIP3   OH263931   6.646   2.939   6.088  0.1981  0.2095  0.2528
14147TIP3    H163932   6.667   2.977   6.173  0.8212 -1.7297  0.9889
14147TIP3    H263933   6.703   2.862   6.081 -0.7821 -0.3996 -1.3397
14148TIP3   OH263934   4.893   6.552  11.362  0.1956  0.6702  0.1505
14148TIP3    H163935   4.800   6.567  11.378  0.0990  1.0501 -0.7357
14148TIP3    H263936   4.921   6.626  11.307  0.0464 -1.5367 -3.0261
14149TIP3   OH263937   4.561   2.628   5.568 -0.1079 -0.2122  0.4598
14149TIP3    H163938   4.623   2.605   5.637  1.4643  2.3419 -0.0435
14149TIP3    H263939   4.615   2.639   5.490 -1.4741  0.0006 -0.4719
14150TIP3   OH263940   5.058   6.371  15.642 -0.0510  0.0340  0.1924
14150TIP3    H163941   5.099   6.457  15.645  0.3409 -0.2006  2.9651
14150TIP3    H263942   5.095   6.329  15.564 -0.2246  2.3374 -1.1561
14151TIP3   OH263943   3.696   0.052  15.164 -0.1344  0.1829 -0.0100
14151TIP3    H163944   3.627   0.092  15.111  0.2052  1.4410  0.4752
14151TIP3    H263945   3.715  -0.031  15.121 -2.1432 -0.3123 -0.0050
14152TIP3   OH263946   6.476   2.346  12.068  0.5382 -1.1702  0.1981
14152TIP3    H163947   6.387   2.368  12.041  0.6322  0.2994  1.0014
14152TIP3    H263948   6.484   2.252  12.051 -1.0810 -1.2706 -0.1042
14153TIP3   OH263949   6.599   2.280   4.504 -0.3254 -0.4639 -0.0724
14153TIP3    H163950   6.639   2.360   4.539 -0.0607 -1.2498  1.4585
14153TIP3    H263951   6.611   2.287   4.409 -0.8410  1.6006 -0.0206
14154TIP3   OH263952   3.954   3.641   4.568 -0.2955  0.0783 -0.0201
14154TIP3    H163953   3.873   3.612   4.525 -1.1293  1.5682  0.4989
14154TIP3    H263954   3.942   3.615   4.660  0.0989 -0.2560 -0.0615
14155TIP3   OH263955   6.417   2.751   4.909 -0.3953  0.6226  0.1152
14155TIP3    H163956   6.377   2.764   4.995 -3.4109  1.1285 -1.2985
14155TIP3    H263957   6.467   2.669   4.917 -1.2671  0.2723  2.1164
14156TIP3   OH263958   4.144   5.585   3.009 -0.0693  0.1158 -0.3465
14156TIP3    H163959   4.186   5.556   3.090 -1.3773  0.2107  0.3650
14156TIP3    H263960   4.205   5.558   2.940  0.1352 -1.6655  0.5216
14157TIP3   OH263961   4.378   1.548   0.683 -0.1639  0.0682  0.1251
14157TIP3    H163962   4.321   1.624   0.670  2.2221  2.0385  0.9089
14157TIP3    H263963   4.416   1.532   0.597  0.7874  0.9890  0.3594
14158TIP3   OH263964   0.595   6.284  11.962  0.8137  0.1684  0.5786
14158TIP3    H163965   0.503   6.256  11.962  0.7995  0.2119  0.2365
14158TIP3    H263966   0.633   6.242  11.885  1.0858  0.1366  0.7295
14159TIP3   OH263967   6.222   6.803   3.361 -0.2126 -0.5880  0.3489
14159TIP3    H163968   6.265   6.720   3.381 -0.1812 -0.5366  0.4968
14159TIP3    H263969   6.131   6.789   3.389 -0.8697 -1.5219 -2.1469
14160TIP3   OH263970   0.310   4.426  11.229  0.1974  0.4892  0.2097
14160TIP3    H163971   0.222   4.456  11.252  0.5415  0.0151  2.2285
14160TIP3    H263972   0.304   4.402  11.136 -2.6137 -2.4656  1.0727
14161TIP3   OH263973   6.419   1.784   5.130  0.2072  0.4288 -0.1245
14161TIP3    H163974   6.353   1.789   5.199 -2.4125  1.0030 -2.5972
14161TIP3    H263975   6.382   1.834   5.057  3.4963  1.0186 -1.5053
14162TIP3   OH263976   0.267   0.024  15.682  0.2570  0.1622  0.1919
14162TIP3    H163977   0.178   0.015  15.717 -0.1455  0.6488 -0.6768
14162TIP3    H263978   0.302   0.103  15.725  0.0495  0.3105  0.0910
14163TIP3   OH263979   0.698   1.402  11.562  0.0884  0.5605 -0.0872
14163TIP3    H163980   0.682   1.462  11.489 -0.3965 -0.8191 -1.1342
14163TIP3    H263981   0.631   1.334  11.552 -1.4030  1.4860  2.9112
14164TIP3   OH263982   1.347   1.574  13.004  0.2151  0.1366 -0.2338
14164TIP3    H163983   1.286   1.646  13.020  1.1305  0.7503  0.6069
14164TIP3    H263984   1.305   1.521  12.937 -1.0070  0.8229 -0.0309
14165TIP3   OH263985   5.169   3.613  16.994 -0.8281  0.0307 -0.0409
14165TIP3    H163986   5.078   3.584  16.995 -1.0315  0.5559 -1.4753
14165TIP3    H263987   5.212   3.556  16.931  0.6545 -2.4466  3.0886
14166TIP3   OH263988   0.170   6.098  11.620  0.0531 -0.1732  0.2844
14166TIP3    H163989   0.215   6.036  11.563  1.9957  0.2111  1.3616
14166TIP3    H263990   0.106   6.044  11.668 -0.8505 -0.6743 -1.4453
14167TIP3   OH263991   5.511   6.706  12.062 -0.0158  0.4114  0.0705
14167TIP3    H163992   5.436   6.651  12.086  0.3096 -1.8678 -3.8038
14167TIP3    H263993   5.474   6.794  12.051 -0.9245  0.6477  4.1917
14168TIP3   OH263994   1.938   5.515   4.166  0.6738  0.1982 -0.8259
14168TIP3    H163995   1.931   5.476   4.078 -1.2605  0.9189 -1.0151
14168TIP3    H263996   1.917   5.443   4.225 -0.6345  0.3556 -1.0814
14169TIP3   OH263997   5.104   2.417   1.701  0.0050  0.2640  0.5647
14169TIP3    H163998   5.104   2.382   1.611  1.1833  1.8582 -0.0889
14169TIP3    H263999   5.053   2.498   1.695  1.3007  1.1338  0.9959
14170TIP3   OH264000   0.480   2.715   5.259 -0.1260 -0.6342 -0.5480
14170TIP3    H164001   0.472   2.793   5.313  0.4297 -0.5008 -0.6579
14170TIP3    H264002   0.391   2.699   5.226 -0.4597 -0.7012  0.3783
14171TIP3   OH264003   3.862   2.737  13.215 -0.3342  0.2104 -0.8421
14171TIP3    H164004   3.881   2.687  13.294  1.7222  1.3847 -0.5544
14171TIP3    H264005   3.948   2.765  13.183 -1.4028  4.2934 -0.4802
14172TIP3   OH264006   6.735   6.179   1.899  0.4751  0.5746 -0.2260
14172TIP3    H164007   6.754   6.164   1.992  1.3118 -0.4666 -0.5581
14172TIP3    H264008   6.641   6.201   1.898  0.2594 -0.2445  0.7735
14173TIP3   OH264009   3.148   1.626   2.072 -0.2704  0.0369  0.3975
14173TIP3    H164010   3.237   1.645   2.042  0.4576 -1.2747  1.6720
14173TIP3    H264011   3.117   1.557   2.014 -0.0389 -0.2919  0.6655
14174TIP3   OH264012   0.522   0.524  14.784 -0.0776  0.1015  0.3628
14174TIP3    H164013   0.563   0.610  14.795  0.0227  0.1133 -0.0917
14174TIP3    H264014   0.453   0.522  14.850 -1.2368  1.2376 -0.7815
14175TIP3   OH264015   0.226   0.986  12.745 -0.2926  0.5163  0.3373
14175TIP3    H164016   0.256   0.899  12.768 -0.9925  0.3966  0.8083
14175TIP3    H264017   0.279   1.011  12.669  1.6419  0.6984  1.7165
14176TIP3   OH264018   4.633   3.009  13.443  0.0752 -0.9627  0.0094
14176TIP3    H164019   4.639   2.917  13.420 -0.4780 -0.9469 -0.2102
14176TIP3    H264020   4.539   3.026  13.451  0.2015 -0.6731  1.0900
14177TIP3   OH264021   1.841   0.918  16.556 -0.5269 -0.6577  0.1689
14177TIP3    H164022   1.922   0.965  16.577 -1.5333  0.9793  0.4482
14177TIP3    H264023   1.796   0.909  16.640 -0.7443 -1.3329 -0.0224
14178TIP3   OH264024   6.585   3.397  16.294 -0.6702  0.5550 -0.3329
14178TIP3    H164025   6.627   3.468  16.343 -0.6502  0.3346 -0.0286
14178TIP3    H264026   6.600   3.319  16.348  0.1278  0.1504 -1.1142
14179TIP3   OH264027   4.079   5.108   0.313  0.0858 -0.6025 -0.1016
14179TIP3    H164028   4.111   5.084   0.400  1.5374 -1.2742 -0.8011
14179TIP3    H264029   4.073   5.026   0.265 -1.4346 -0.3291 -0.4261
14180TIP3   OH264030   3.383   1.132  15.687 -0.1337  0.1238 -0.2970
14180TIP3    H164031   3.382   1.219  15.645  2.5595 -0.0015 -0.7560
14180TIP3    H264032   3.351   1.148  15.775  0.4519  1.6296 -0.3285
14181TIP3   OH264033   5.571   6.684   4.732  0.1379  0.2011  0.2660
14181TIP3    H164034   5.505   6.660   4.668 -0.0272 -0.0268  0.5223
14181TIP3    H264035   5.654   6.660   4.692 -0.0702 -1.4986  0.8350
14182TIP3   OH264036   3.550   3.827   1.147  0.5323  0.0257 -0.1877
14182TIP3    H164037   3.484   3.876   1.196  1.9838  1.4604  0.4029
14182TIP3    H264038   3.554   3.870   1.062  0.7556 -0.0149 -0.1979
14183TIP3   OH264039   4.967   4.264   0.344 -0.5966  0.1068 -0.0382
14183TIP3    H164040   5.047   4.273   0.395 -0.8059  0.1435  0.2861
14183TIP3    H264041   4.991   4.206   0.271 -0.3478 -0.0943  0.2041
14184TIP3   OH264042   5.018   5.563  13.416 -0.4154  0.3273 -0.3000
14184TIP3    H164043   5.076   5.492  13.444  0.3228  0.9882 -0.1373
14184TIP3    H264044   5.007   5.617  13.494 -1.5394  0.0191 -0.2311
14185TIP3   OH264045   5.331   6.800   2.955  0.2161  0.3156  0.1682
14185TIP3    H164046   5.407   6.804   2.897  0.9685 -4.3214  0.5995
14185TIP3    H264047   5.365   6.824   3.041  1.0786 -1.0808  0.2306
14186TIP3   OH264048   3.874   0.116   3.588  0.0392 -0.4815 -0.7997
14186TIP3    H164049   3.820   0.164   3.650 -0.3382 -0.2678 -1.2938
14186TIP3    H264050   3.815   0.093   3.517  0.1334 -1.9759 -0.4091
14187TIP3   OH264051   6.081   0.852   1.876 -0.4745 -0.2003 -0.7042
14187TIP3    H164052   6.105   0.763   1.853  3.1288  0.9625 -1.8141
14187TIP3    H264053   6.096   0.857   1.971 -0.2703 -0.6523 -0.7113
14188TIP3   OH264054   3.725   4.343   5.617 -0.7309  0.4673 -0.2581
14188TIP3    H164055   3.791   4.366   5.682  0.3230 -0.8095 -0.8449
14188TIP3    H264056   3.656   4.407   5.629  0.1643  1.2088  1.0561
14189TIP3   OH264057   1.405   0.369  14.234  0.0151  0.1418  0.1939
14189TIP3    H164058   1.452   0.446  14.202 -0.0687  0.3732  0.6232
14189TIP3    H264059   1.398   0.382  14.328 -2.3695  0.9228 -0.0486
14190TIP3   OH264060   5.532   1.907  11.688 -0.3843 -0.4116 -0.5657
14190TIP3    H164061   5.582   1.935  11.613 -0.2705 -1.9593 -1.0912
14190TIP3    H264062   5.476   1.836  11.655 -0.6478 -0.8159  0.6929
14191TIP3   OH264063   0.914   5.896   1.057  0.2143  0.1803 -0.4289
14191TIP3    H164064   0.914   5.818   1.001 -1.3153 -0.3373  0.2616
14191TIP3    H264065   0.923   5.969   0.995  1.3372 -0.5120 -1.1050
14192TIP3   OH264066   3.836   4.666  17.207 -0.2839  0.1349  0.1206
14192TIP3    H164067   3.817   4.591  17.263 -1.0755  0.5598  0.4238
14192TIP3    H264068   3.869   4.628  17.126  1.3373 -0.4677  1.0385
14193TIP3   OH264069   0.442   0.044   0.388 -0.1480  0.5925  0.3300
14193TIP3    H164070   0.445  -0.011   0.466 -1.1518 -0.9745 -0.7130
14193TIP3    H264071   0.424  -0.016   0.317 -3.3411  2.4947 -0.5845
14194TIP3   OH264072   3.910   0.389   3.865  0.1880  0.4410  0.3243
14194TIP3    H164073   3.992   0.412   3.909 -0.6429  0.5668  1.8401
14194TIP3    H264074   3.844   0.445   3.906 -1.0290 -1.1928  0.6379
14195TIP3   OH264075   0.586   0.100   3.992 -0.1366  0.2209 -0.2448
14195TIP3    H164076   0.613   0.075   3.904  1.2023  1.7250 -0.2862
14195TIP3    H264077   0.625   0.186   4.006 -1.2357  0.4861  1.4158
14196TIP3   OH264078   3.889   0.637  14.284 -0.2277 -0.0753  0.6580
14196TIP3    H164079   3.818   0.680  14.331 -2.3721 -1.0952 -1.5612
14196TIP3    H264080   3.930   0.707  14.233 -1.2956  0.0548 -0.0347
14197TIP3   OH264081   2.493   0.581   5.979 -0.5657  0.2267  0.3314
14197TIP3    H164082   2.437   0.508   6.008 -1.0469  1.4960  2.7678
14197TIP3    H264083   2.582   0.545   5.982 -0.7320 -0.1062  2.2123
14198TIP3   OH264084   1.270   4.498  17.080  0.2533  0.9129  0.1710
14198TIP3    H164085   1.194   4.518  17.026  0.0067 -2.3717 -0.8585
14198TIP3    H264086   1.340   4.481  17.017  0.3685 -1.4582  0.8887
14199TIP3   OH264087   0.433   3.414  11.049  0.3264  0.2608 -0.2606
14199TIP3    H164088   0.348   3.423  11.006  0.0050  0.1777  0.3564
14199TIP3    H264089   0.425   3.336  11.103  0.7028  0.4171  0.0269
14200TIP3   OH264090   4.746   5.004  15.546  0.0286 -0.9800 -0.3351
14200TIP3    H164091   4.830   5.050  15.544 -0.9985  1.1402  2.0188
14200TIP3    H264092   4.711   5.015  15.458  2.1951 -1.8873 -1.3422
14201TIP3   OH264093   0.550   5.158  17.010 -0.2260 -0.1084 -0.4049
14201TIP3    H164094   0.486   5.176  16.942 -0.7537 -1.1037 -0.1764
14201TIP3    H264095   0.547   5.235  17.067 -0.8844  0.0447 -0.6466
14202TIP3   OH264096   5.856   5.811  16.947  0.1278 -0.1090  0.2946
14202TIP3    H164097   5.789   5.754  16.984  0.8625 -1.4691 -0.4523
14202TIP3    H264098   5.888   5.863  17.021 -0.0310 -1.1831  1.1151
14203TIP3   OH264099   5.548   5.309  11.290 -0.4807  0.2645  0.0440
14203TIP3    H164100   5.520   5.400  11.294  1.2338  0.7615  1.0775
14203TIP3    H264101   5.623   5.309  11.230 -2.5783 -1.0654 -2.7373
14204TIP3   OH264102   1.902   3.823  13.917  0.2974 -0.5458 -0.0780
14204TIP3    H164103   1.940   3.735  13.914 -0.3030 -0.8202  0.3779
14204TIP3    H264104   1.969   3.876  13.960 -0.3308 -1.2923  1.8496
14205TIP3   OH264105   6.281   2.011   2.461  0.2253 -0.2341 -0.1504
14205TIP3    H164106   6.290   1.966   2.545  0.2588  0.8562  0.4454
14205TIP3    H264107   6.303   2.102   2.481  0.6236 -0.0403 -1.4286
14206TIP3   OH264108   3.881   2.258  17.118  0.2620  0.0936 -0.6154
14206TIP3    H164109   3.878   2.206  17.199  1.4019  1.5669  0.4121
14206TIP3    H264110   3.848   2.200  17.050 -0.0184 -1.4203  0.7936
14207TIP3   OH264111   0.915   3.614  13.664 -0.4974 -0.0266 -0.6664
14207TIP3    H164112   0.979   3.552  13.700 -0.6232  1.6509  2.6586
14207TIP3    H264113   0.968   3.677  13.615 -0.0569 -1.0038 -1.4631
14208TIP3   OH264114   5.640   4.236  13.592  0.4326  0.2134 -0.7222
14208TIP3    H164115   5.547   4.244  13.610  0.6448  0.7497  0.1799
14208TIP3    H264116   5.674   4.185  13.665  0.9494  0.5518 -0.7218
14209TIP3   OH264117   2.917   1.592  11.545  0.0073 -0.7848 -0.0459
14209TIP3    H164118   2.970   1.599  11.624  2.2363  0.1183 -1.5728
14209TIP3    H264119   2.859   1.669  11.548 -0.2666 -1.0344  0.9647
14210TIP3   OH264120   6.320   0.020  14.505 -0.0793  0.0827  0.2280
14210TIP3    H164121   6.367   0.005  14.587  1.1556 -0.4788 -0.5662
14210TIP3    H264122   6.377  -0.017  14.438 -1.9506 -1.1373 -0.7083
14211TIP3   OH264123   1.693   5.483  11.895  0.3939 -0.1749 -0.4995
14211TIP3    H164124   1.656   5.418  11.955  0.8660 -0.0283 -0.0429
14211TIP3    H264125   1.755   5.533  11.949  1.4047 -0.5466 -1.3014
14212TIP3   OH264126   3.464   1.016   4.556 -0.3575  0.0400 -0.4422
14212TIP3    H164127   3.411   0.938   4.571 -0.6279  0.2949 -0.0709
14212TIP3    H264128   3.516   1.025   4.636  2.0370 -1.5964 -1.7385
14213TIP3   OH264129   4.663   3.471   5.355  0.2299  0.2806 -0.0739
14213TIP3    H164130   4.739   3.421   5.386  0.6931  1.1686  0.2151
14213TIP3    H264131   4.621   3.413   5.291  1.1138 -0.2337 -0.1896
14214TIP3   OH264132   4.445   2.635  13.371 -0.7335 -0.0454 -0.7826
14214TIP3    H164133   4.530   2.679  13.377 -1.1718  0.7082 -0.0158
14214TIP3    H264134   4.438   2.586  13.453 -0.9922 -0.1736 -0.8833
14215TIP3   OH264135   6.044   3.614   0.554 -0.8425 -0.5610 -0.4754
14215TIP3    H164136   6.042   3.542   0.491 -0.8118  0.9314 -2.2239
14215TIP3    H264137   6.072   3.689   0.502  1.0665  0.2992  1.7490
14216TIP3   OH264138   2.243   2.778  14.615  0.1909  0.1540 -0.7423
14216TIP3    H164139   2.226   2.753  14.524 -0.7933  0.1192 -0.5553
14216TIP3    H264140   2.311   2.845  14.609  1.7887 -1.4938 -1.3326
14217TIP3   OH264141   0.243   0.499   0.636  0.1541 -0.1013 -0.4340
14217TIP3    H164142   0.322   0.552   0.644  0.4639 -0.4530 -1.0977
14217TIP3    H264143   0.238   0.476   0.543  1.1672 -2.9499  0.1574
14218TIP3   OH264144   3.052   0.232  11.601 -0.5085 -0.1545 -1.0767
14218TIP3    H164145   2.996   0.208  11.674 -0.6886  1.0001 -0.8236
14218TIP3    H264146   3.016   0.184  11.526 -1.6107  0.2843 -0.8402
14219TIP3   OH264147   1.458   2.280  16.679 -0.1133 -0.1959  0.1085
14219TIP3    H164148   1.469   2.225  16.757  2.1358 -1.0142 -0.7466
14219TIP3    H264149   1.517   2.354  16.693 -1.1603  0.6625  0.0535
14220TIP3   OH264150   2.697   1.490   5.445  0.6672 -0.5245  0.2402
14220TIP3    H164151   2.609   1.454   5.461  0.1957  1.3292  1.9926
14220TIP3    H264152   2.690   1.582   5.469  2.8731 -0.1366 -0.5156
14221TIP3   OH264153   1.464   5.181   4.386  0.2312 -0.6824 -0.4482
14221TIP3    H164154   1.520   5.151   4.458 -1.3970 -1.5642  0.4818
14221TIP3    H264155   1.468   5.276   4.390  2.5936 -0.7151 -1.1511
14222TIP3   OH264156   4.771   1.503  12.427  0.6108 -0.2606  0.7925
14222TIP3    H164157   4.861   1.470  12.422  0.4891 -1.0904  3.0847
14222TIP3    H264158   4.718   1.434  12.389  0.8698 -0.1720  0.2725
14223TIP3   OH264159   2.031   0.564  11.602 -0.0376 -0.3674  0.0586
14223TIP3    H164160   1.938   0.544  11.615  0.3462 -0.1924  3.3245
14223TIP3    H264161   2.033   0.617  11.522 -2.8665  0.6656  0.6157
14224TIP3   OH264162   2.257   3.800   2.594  0.3381  0.0148 -0.1077
14224TIP3    H164163   2.320   3.830   2.659 -1.7090  1.4085  1.2927
14224TIP3    H264164   2.236   3.710   2.620  1.8681 -0.5248 -0.6994
14225TIP3   OH264165   0.679   2.826  10.468 -0.5264  0.1492 -0.2982
14225TIP3    H164166   0.716   2.800  10.552 -0.9744 -0.2885 -0.2362
14225TIP3    H264167   0.747   2.806  10.404 -0.2462  0.3374 -0.0609
14226TIP3   OH264168   3.377   1.034  16.423 -0.0721 -0.4850  0.0847
14226TIP3    H164169   3.467   1.000  16.423 -0.4319 -1.4608  1.4834
14226TIP3    H264170   3.387   1.128  16.405  1.2029 -0.6530 -0.1103
14227TIP3   OH264171   1.056   2.315  11.019 -0.2142 -0.0602  0.3963
14227TIP3    H164172   1.102   2.258  11.082  0.0422 -0.4721 -0.1622
14227TIP3    H264173   1.091   2.290  10.934 -0.9245  0.1538  0.0354
14228TIP3   OH264174   5.030   3.348   0.808 -0.1686  0.0074  0.7252
14228TIP3    H164175   5.040   3.253   0.797  0.8114  0.1046  0.7680
14228TIP3    H264176   5.056   3.364   0.898  0.1248  0.3795  0.5746
14229TIP3   OH264177   4.979   5.130  12.768 -0.2424  0.0370  0.3805
14229TIP3    H164178   5.026   5.096  12.845  1.5397 -2.4986 -1.7567
14229TIP3    H264179   4.908   5.068  12.754 -0.2542  0.2111 -0.3121
14230TIP3   OH264180   5.074   2.534   2.097  0.1067  0.3255 -0.3056
14230TIP3    H164181   5.056   2.454   2.049  0.4934 -0.4273  0.7930
14230TIP3    H264182   5.063   2.510   2.189  0.3588  1.4950  0.0391
14231TIP3   OH264183   5.688   4.392  16.884 -0.1066  0.1274  0.0451
14231TIP3    H164184   5.630   4.469  16.884  0.3827  0.5268  2.5138
14231TIP3    H264185   5.643   4.328  16.829 -2.2055  0.9563  0.7467
14232TIP3   OH264186   4.085   3.643  14.751  0.0097 -0.0227  0.2736
14232TIP3    H164187   4.074   3.632  14.656  0.3479  1.2283  0.0842
14232TIP3    H264188   4.114   3.557  14.782 -4.0115 -1.6561 -0.1636
14233TIP3   OH264189   2.413   5.478   1.767  0.2616 -0.5080  0.4766
14233TIP3    H164190   2.484   5.481   1.831  0.0032 -0.2594  0.7547
14233TIP3    H264191   2.440   5.412   1.703  0.0727 -1.4557  1.3636
14234TIP3   OH264192   5.629   6.780   0.404  0.8117 -0.5937  0.4860
14234TIP3    H164193   5.698   6.714   0.395  0.6757 -0.6757  0.0030
14234TIP3    H264194   5.620   6.793   0.498  1.4452 -0.6260  0.5521
14235TIP3   OH264195   1.080   0.934   1.945 -0.5806  0.3154 -0.4615
14235TIP3    H164196   1.104   0.886   1.865  1.1593 -1.6439  1.1776
14235TIP3    H264197   1.018   1.000   1.915  0.7114  0.2233 -3.6007
14236TIP3   OH264198   6.090   1.424   2.429 -0.5695  0.3113 -0.2400
14236TIP3    H164199   6.160   1.488   2.417 -1.7929  1.7058  0.0837
14236TIP3    H264200   6.106   1.387   2.516  1.3833 -1.3849 -1.2669
14237TIP3   OH264201   6.790   4.513   6.019 -0.8284  0.0440  0.3596
14237TIP3    H164202   6.717   4.451   6.018 -1.0183  0.2685  0.1451
14237TIP3    H264203   6.803   4.535   5.926 -0.4357 -0.0584  0.3908
14238TIP3   OH264204   6.085   3.735   5.609 -0.2148  0.2994  0.7291
14238TIP3    H164205   6.177   3.709   5.616 -0.4096 -0.6193  0.1041
14238TIP3    H264206   6.047   3.672   5.547 -0.9245  1.5581 -0.1501
14239TIP3   OH264207   5.917   0.719  14.226  0.6756 -0.3355 -0.1526
14239TIP3    H164208   5.839   0.771  14.243 -0.5906 -2.9817  2.6710
14239TIP3    H264209   5.984   0.783  14.201 -1.6887  2.2235 -0.1549
14240TIP3   OH264210   4.480   5.077   4.654 -0.1034 -0.0348 -0.3165
14240TIP3    H164211   4.416   5.061   4.585 -0.6520 -0.0395  0.1888
14240TIP3    H264212   4.427   5.099   4.731  0.5255  1.1098 -0.1884
14241TIP3   OH264213   3.784   0.669  16.016  0.5178  0.5822 -0.5821
14241TIP3    H164214   3.875   0.642  16.010  0.5295  0.5324 -0.2404
14241TIP3    H264215   3.735   0.594  15.983  0.4902 -0.4370  1.6285
14242TIP3   OH264216   2.945   1.702   5.698 -0.0993 -0.0576  0.6556
14242TIP3    H164217   2.882   1.648   5.746 -0.6120  1.7515  2.0689
14242TIP3    H264218   3.010   1.726   5.763 -0.1055  1.3588  0.1533
14243TIP3   OH264219   3.462   0.757   0.683 -0.4080  0.4349  0.5528
14243TIP3    H164220   3.553   0.738   0.703 -1.1513 -0.4943  3.3154
14243TIP3    H264221   3.443   0.704   0.605  1.5108  1.0346 -0.3598
14244TIP3   OH264222   5.628   3.557  14.830  0.2777 -0.0563  0.1699
14244TIP3    H164223   5.562   3.569  14.761 -0.4147 -0.7469  0.6923
14244TIP3    H264224   5.581   3.509  14.899  1.9553 -2.6802 -0.4345
14245TIP3   OH264225   3.347   1.376  15.586  0.2406  0.5861 -0.3468
14245TIP3    H164226   3.272   1.436  15.595 -0.3318  0.0674 -1.5878
14245TIP3    H264227   3.422   1.428  15.612 -0.4622  1.3474  0.1936
14246TIP3   OH264228   0.538   1.167   1.501  0.3129 -0.0732 -0.2350
14246TIP3    H164229   0.584   1.087   1.525  0.2350  0.7293  2.7995
14246TIP3    H264230   0.596   1.238   1.528 -1.1609  0.9082  0.4397
14247TIP3   OH264231   3.214   6.211  14.200 -0.2968  0.2698  0.5784
14247TIP3    H164232   3.120   6.207  14.220 -0.3083 -2.2328  0.2607
14247TIP3    H264233   3.251   6.138  14.250  1.1853  0.1152 -0.7381
14248TIP3   OH264234   3.096   2.380   6.144 -0.1071 -0.1228  0.4973
14248TIP3    H164235   3.143   2.317   6.199  0.0339 -0.2969  0.1845
14248TIP3    H264236   3.144   2.462   6.154  1.3861 -0.7465 -1.2514
14249TIP3   OH264237   4.639   3.462  15.212 -0.4333  0.0693 -0.4551
14249TIP3    H164238   4.700   3.411  15.265  0.5560  2.9993  1.4059
14249TIP3    H264239   4.553   3.446  15.252 -0.0370  0.3250  0.5120
14250TIP3   OH264240   5.039   2.445   0.180 -0.3623  0.6583  0.6591
14250TIP3    H164241   5.076   2.417   0.096 -1.1926 -2.5207  1.2758
14250TIP3    H264242   5.107   2.498   0.220  0.3706  1.5411 -1.6356
14251TIP3   OH264243   3.707   5.545   2.668  0.3815  0.9196  0.3280
14251TIP3    H164244   3.740   5.615   2.613  3.1171 -0.0372  0.6791
14251TIP3    H264245   3.748   5.559   2.753  1.5941 -1.4744  0.2026
14252TIP3   OH264246   0.655   1.081  16.008 -0.0639 -0.3102 -0.3589
14252TIP3    H164247   0.646   1.158  16.064  2.3164 -1.1351  1.2584
14252TIP3    H264248   0.722   1.105  15.945 -1.4858 -0.0189 -1.7943
14253TIP3   OH264249   0.894   5.157  14.703  0.3520  0.2196 -0.0981
14253TIP3    H164250   0.876   5.207  14.783 -0.7332 -0.2525 -0.0310
14253TIP3    H264251   0.812   5.163  14.653  1.3910  1.4752 -1.7113
14254TIP3   OH264252   2.840   2.537   2.808  0.0936  0.5085 -0.3056
14254TIP3    H164253   2.762   2.586   2.834  1.2158  3.2465 -1.8994
14254TIP3    H264254   2.843   2.546   2.713  1.3936 -1.0685 -0.4286
14255TIP3   OH264255   5.537   3.954  11.611 -0.5161  0.1888 -0.1446
14255TIP3    H164256   5.549   3.863  11.638 -1.3753 -0.5362 -2.1257
14255TIP3    H264257   5.622   3.995  11.628 -0.8386 -0.3203  3.1059
14256TIP3   OH264258   6.379   2.530   1.173 -0.5694  0.0097  0.3082
14256TIP3    H164259   6.415   2.459   1.226  2.4027  0.8612 -0.5135
14256TIP3    H264260   6.421   2.609   1.206 -0.7975  0.8876 -1.4619
14257TIP3   OH264261   5.834   0.341   1.173 -0.7334 -0.4142 -0.1013
14257TIP3    H164262   5.761   0.287   1.204  0.3228 -0.8814  1.6863
14257TIP3    H264263   5.905   0.322   1.235 -0.4830  3.4275  0.9161
14258TIP3   OH264264   4.926   0.724   1.974 -0.3644 -0.2225 -0.8959
14258TIP3    H164265   4.929   0.665   1.899  0.0416 -1.8320  0.3637
14258TIP3    H264266   4.846   0.775   1.961 -1.0564 -1.4905 -1.6774
14259TIP3   OH264267   5.414   0.451   4.326 -0.4100 -0.3825  0.3407
14259TIP3    H164268   5.471   0.409   4.263 -0.9445  1.0933 -1.1558
14259TIP3    H264269   5.450   0.539   4.337 -0.4674 -0.5378  1.9106
14260TIP3   OH264270   5.176   1.746   5.421  0.4803 -0.1760  0.0787
14260TIP3    H164271   5.267   1.776   5.414  0.2424  0.6732  0.5635
14260TIP3    H264272   5.143   1.786   5.502 -0.2639 -0.6333  0.0083
14261TIP3   OH264273   5.527   1.643   6.152 -0.1039  0.1748  0.2047
14261TIP3    H164274   5.496   1.581   6.087 -0.6729 -1.1962  1.7489
14261TIP3    H264275   5.472   1.720   6.140 -0.7531 -0.3735 -0.3773
14262TIP3   OH264276   0.040   2.155  16.668  0.5666  0.0288  1.0838
14262TIP3    H164277   0.061   2.119  16.755 -1.8357 -2.9327  0.5461
14262TIP3    H264278  -0.046   2.194  16.679  0.6074  0.3632  0.2301
14263TIP3   OH264279   5.668   3.767  15.103  1.0477  0.2529  0.5604
14263TIP3    H164280   5.675   3.855  15.139  1.6757  0.8377 -0.9382
14263TIP3    H264281   5.705   3.710  15.170  0.3529  1.0935  1.6689
14264TIP3   OH264282   5.854   5.924  11.233 -0.0657 -0.2456 -0.4518
14264TIP3    H164283   5.817   5.841  11.263  0.0028  0.3173  1.2320
14264TIP3    H264284   5.948   5.909  11.230 -0.1650 -0.6941 -1.6555
14265TIP3   OH264285   5.465   0.706  12.139  0.3283 -0.2294  0.0937
14265TIP3    H164286   5.373   0.726  12.122  0.5632  0.9961  0.1818
14265TIP3    H264287   5.509   0.727  12.057  0.7466  0.7524  0.5569
14266TIP3   OH264288   6.027   4.609  16.981 -0.3284 -0.1394  0.2272
14266TIP3    H164289   5.990   4.528  16.948  0.5641 -0.6575  0.4694
14266TIP3    H264290   5.976   4.678  16.939  0.9785 -0.7562 -2.5525
14267TIP3   OH264291   3.631   1.442  15.951  0.1973  0.0772 -0.2607
14267TIP3    H164292   3.708   1.413  15.902  0.8979  1.1601  0.1749
14267TIP3    H264293   3.566   1.463  15.884 -0.1383 -1.9489 -0.5967
14268TIP3   OH264294   1.858   3.501   0.507  0.0637  0.4903 -0.1000
14268TIP3    H164295   1.800   3.574   0.530 -0.8121  0.2449 -1.4888
14268TIP3    H264296   1.914   3.491   0.584  0.3801  2.7845  0.0102
14269TIP3   OH264297   2.818   2.337  16.626  1.1358  0.0671  0.3902
14269TIP3    H164298   2.844   2.246  16.641  1.2298  0.1120  0.5114
14269TIP3    H264299   2.830   2.351  16.532 -1.4999 -0.8550 -0.1307
14270TIP3   OH264300   0.318   5.623   3.443 -0.1356 -0.2100  0.5928
14270TIP3    H164301   0.342   5.685   3.511 -2.4241  0.6065  0.7055
14270TIP3    H264302   0.329   5.672   3.361  1.9433 -0.9705  0.3896
14271TIP3   OH264303   1.623   6.370  12.890 -0.2560 -0.1574  0.1486
14271TIP3    H164304   1.583   6.379  12.976 -0.5278 -0.3919  0.0477
14271TIP3    H264305   1.659   6.457  12.871 -0.4976 -0.0120  0.3490
14272TIP3   OH264306   1.427   0.662   3.347 -0.1354 -0.1972  0.5000
14272TIP3    H164307   1.354   0.601   3.342  0.2749 -0.5567 -1.4466
14272TIP3    H264308   1.488   0.621   3.409 -0.3360 -1.2536  0.0090
14273TIP3   OH264309   4.425   3.195   0.195  0.1395  0.1547 -0.5422
14273TIP3    H164310   4.428   3.165   0.286  2.3938 -0.9800 -0.9718
14273TIP3    H264311   4.378   3.125   0.150 -1.0073  0.7325 -0.2632
14274TIP3   OH264312   3.817   2.534  17.024  0.2667 -0.3018 -0.1967
14274TIP3    H164313   3.838   2.584  17.103 -0.1569  0.4762 -0.5706
14274TIP3    H264314   3.815   2.443  17.054  0.2805 -0.0306  0.6587
14275TIP3   OH264315   3.099   2.073  15.350  0.0903  0.0865 -0.9064
14275TIP3    H164316   3.136   2.160  15.330  1.4598  0.0707  1.3442
14275TIP3    H264317   3.164   2.033  15.408 -2.4528 -0.8463  1.3678
14276TIP3   OH264318   6.627   1.833  15.681 -0.1574 -0.0357  0.4311
14276TIP3    H164319   6.597   1.788  15.602  0.3965 -0.9204  0.7239
14276TIP3    H264320   6.548   1.873  15.718 -0.5010 -0.0299 -0.3032
14277TIP3   OH264321   4.007   1.715   3.103  0.3805 -0.0671  0.7811
14277TIP3    H164322   3.975   1.787   3.157 -0.1935 -0.5946  1.1555
14277TIP3    H264323   3.930   1.683   3.057  0.3228 -1.3685  1.7152
14278TIP3   OH264324   1.767   4.203  12.528 -0.1100  0.2716  0.3302
14278TIP3    H164325   1.793   4.125  12.480 -0.2362  1.1030 -1.1303
14278TIP3    H264326   1.846   4.257  12.530  0.5533 -0.7363  3.0935
14279TIP3   OH264327   2.493   3.950  14.691  0.1013 -0.3720  0.4105
14279TIP3    H164328   2.443   3.974  14.613 -1.0232 -0.3647  1.1194
14279TIP3    H264329   2.492   3.855  14.692  1.1117 -0.3910 -0.2118
14280TIP3   OH264330   3.170   1.373   5.649 -0.3209  0.0983 -0.2287
14280TIP3    H164331   3.106   1.349   5.582  0.2415  0.7310 -0.9905
14280TIP3    H264332   3.169   1.299   5.710 -1.5695 -0.0342 -0.3820
14281TIP3   OH264333   6.542   0.783   1.830  0.1097  0.1756 -0.2570
14281TIP3    H164334   6.636   0.791   1.846 -0.1529  0.4310  1.2360
14281TIP3    H264335   6.502   0.794   1.916 -1.3598  1.1873 -1.0555
14282TIP3   OH264336   3.674   2.839  14.759 -0.7383 -0.1007 -0.6440
14282TIP3    H164337   3.754   2.787  14.758 -0.1880  0.6898  0.4164
14282TIP3    H264338   3.694   2.915  14.703 -0.9343 -0.1703 -0.8103
14283TIP3   OH264339   5.916   2.174  10.809 -0.0655  0.3670  0.3817
14283TIP3    H164340   5.999   2.130  10.827  0.1578  1.1905  1.3983
14283TIP3    H264341   5.932   2.265  10.829 -0.2668  1.1206 -2.5566
14284TIP3   OH264342   0.124   3.041   0.298 -0.1206  0.1453  0.6246
14284TIP3    H164343   0.039   3.043   0.255 -0.2990  1.8159  1.0219
14284TIP3    H264344   0.107   3.009   0.386 -0.2019 -0.3628  0.4257
14285TIP3   OH264345   6.459   1.591   2.759 -0.6047 -0.1823  0.0196
14285TIP3    H164346   6.508   1.629   2.687 -1.6587  0.0870 -0.5625
14285TIP3    H264347   6.466   1.497   2.746  0.4298 -0.1674  0.4014
14286TIP3   OH264348   4.874   0.971   1.209 -0.0573 -0.0339 -0.3108
14286TIP3    H164349   4.934   0.901   1.234  0.3182  0.4379  0.1265
14286TIP3    H264350   4.791   0.926   1.192  0.2011 -0.5956 -0.1160
14287TIP3   OH264351   2.755   0.594  16.660 -0.2280  0.3259  0.1488
14287TIP3    H164352   2.787   0.549  16.582  0.3363  1.5490 -0.3355
14287TIP3    H264353   2.833   0.607  16.714 -0.1742  1.7720 -0.2569
14288TIP3   OH264354   6.086   3.105  13.686  0.0716  0.0349  0.1052
14288TIP3    H164355   6.170   3.145  13.706  0.7479 -0.4930 -1.6307
14288TIP3    H264356   6.092   3.080  13.594 -2.5676  1.4386 -0.4960
14289TIP3   OH264357   1.925   0.126  17.081 -0.2515  0.3166  0.3418
14289TIP3    H164358   1.934   0.210  17.126  0.8461 -0.9071  2.5043
14289TIP3    H264359   2.015   0.103  17.056 -0.7472  0.5529 -1.7494
14290TIP3   OH264360   2.090   1.343   2.539  0.5607 -0.2691 -0.5648
14290TIP3    H164361   2.061   1.252   2.534 -0.3308 -0.0568  0.5411
14290TIP3    H264362   2.167   1.340   2.596  0.1877 -0.2461 -0.0628
14291TIP3   OH264363   1.243   4.840   2.306 -0.3355  0.1729  0.0722
14291TIP3    H164364   1.228   4.868   2.215 -0.5032  2.2753  0.7102
14291TIP3    H264365   1.290   4.757   2.298  1.4304  1.3034 -1.9626
14292TIP3   OH264366   6.092   6.055   6.336  0.1358 -0.1026  0.3773
14292TIP3    H164367   6.019   6.055   6.274  0.3734  0.5228  0.0899
14292TIP3    H264368   6.062   6.001   6.409 -1.3975  1.7491  1.1718
14293TIP3   OH264369   0.195   4.092   3.731 -0.1428 -0.0097  0.0060
14293TIP3    H164370   0.229   4.062   3.647  0.2271 -0.9136  0.4731
14293TIP3    H264371   0.175   4.012   3.779  0.7323  0.4823  1.2231
14294TIP3   OH264372   2.003   4.876  15.138  0.1208  0.4098  0.0173
14294TIP3    H164373   1.980   4.853  15.228  0.6996  2.7157  0.8056
14294TIP3    H264374   1.920   4.903  15.098  0.1315  1.0704  0.4204
14295TIP3   OH264375   2.087   5.517  10.381  0.4328  0.1103  0.1851
14295TIP3    H164376   2.115   5.593  10.330 -1.3972  1.0655  0.5765
14295TIP3    H264377   1.991   5.520  10.379  0.3349 -1.2029  1.6624
14296TIP3   OH264378   0.394   1.427  14.392 -0.8651  0.2534  0.1910
14296TIP3    H164379   0.377   1.487  14.319 -3.3231 -0.6153 -0.0077
14296TIP3    H264380   0.308   1.415  14.433  0.5829  1.3187  3.7271
14297TIP3   OH264381   1.198   5.766  14.427 -0.1356 -0.1265 -0.0388
14297TIP3    H164382   1.259   5.835  14.399 -0.0818  0.6163  1.8190
14297TIP3    H264383   1.126   5.772  14.365  0.2348  1.0955 -0.3854
14298TIP3   OH264384   5.157   2.512  16.526 -0.6590  0.4922 -0.5723
14298TIP3    H164385   5.210   2.591  16.524  2.5064 -1.4709  1.5264
14298TIP3    H264386   5.083   2.535  16.583 -0.1438  2.1547 -0.5385
14299TIP3   OH264387   2.223   4.444  13.193 -0.2469  0.0403 -0.1676
14299TIP3    H164388   2.191   4.356  13.210 -0.8247  0.4371  0.8432
14299TIP3    H264389   2.266   4.470  13.274  1.0617  0.1951 -0.9056
14300TIP3   OH264390   5.077   0.742  12.277 -0.1761  0.1635  0.1028
14300TIP3    H164391   5.081   0.835  12.254  1.5645 -0.0628 -0.6150
14300TIP3    H264392   4.999   0.709  12.233  0.1781  0.9115 -1.0947
14301TIP3   OH264393   4.941   4.537  12.682  0.2548  0.2809 -0.2011
14301TIP3    H164394   5.023   4.567  12.645 -0.0408  0.2521 -0.8832
14301TIP3    H264395   4.914   4.464  12.626 -0.2513  0.3130 -0.0010
14302TIP3   OH264396   6.057   4.144  16.769 -1.2559 -0.0517  0.4039
14302TIP3    H164397   6.128   4.154  16.706  0.1948 -1.6120  1.7396
14302TIP3    H264398   5.998   4.080  16.729 -1.1918  0.2018 -0.0921
14303TIP3   OH264399   6.767   3.147  15.125 -0.2826  0.1562 -0.6176
14303TIP3    H164400   6.820   3.191  15.058  1.2224  0.6156  0.8455
14303TIP3    H264401   6.677   3.170  15.103  0.3975  3.1330 -0.4908
14304TIP3   OH264402   4.097   1.517   2.567 -0.1211  0.5127  0.8132
14304TIP3    H164403   4.135   1.587   2.514  0.0550  0.8880  1.4264
14304TIP3    H264404   4.169   1.455   2.578  0.0395  0.7594  1.1704
14305TIP3   OH264405   3.011   0.121   0.536  0.1010 -0.3912  0.4555
14305TIP3    H164406   3.039   0.138   0.446 -0.4690  0.0372  0.3556
14305TIP3    H264407   3.072   0.172   0.589 -0.9081  1.1198  0.2044
14306TIP3   OH264408   2.216   0.035  13.231 -0.3334 -0.1431 -0.1583
14306TIP3    H164409   2.277  -0.036  13.209 -0.2207  0.6150 -2.4666
14306TIP3    H264410   2.233   0.054  13.323  2.1826 -0.6635 -0.4843
14307TIP3   OH264411   0.217   3.412  12.250 -0.4212 -0.1120 -0.2814
14307TIP3    H164412   0.176   3.496  12.269 -0.2975  0.1796 -1.2695
14307TIP3    H264413   0.160   3.347  12.291  0.6369  0.5636  2.3811
14308TIP3   OH264414   3.121   6.382   5.344  0.0715 -0.0598  0.2769
14308TIP3    H164415   3.157   6.453   5.397  1.7038 -1.2418  0.8133
14308TIP3    H264416   3.188   6.367   5.277  0.0558 -1.5675  0.5984
14309TIP3   OH264417   3.923   3.906  16.433  0.2905  0.0484 -0.0499
14309TIP3    H164418   3.847   3.954  16.399  0.3089  0.4773  0.5040
14309TIP3    H264419   3.984   3.903  16.358  0.1477  0.5976 -0.1943
14310TIP3   OH264420   3.989   2.954  16.403 -0.1001  0.5544  0.0652
14310TIP3    H164421   4.083   2.968  16.414 -0.3303  0.6618  2.0394
14310TIP3    H264422   3.973   2.866  16.438 -0.2488 -0.7952 -3.2192
14311TIP3   OH264423   4.967   5.607   3.073 -0.4944  0.0526  0.1719
14311TIP3    H164424   4.919   5.688   3.057 -0.6658  0.2173  1.4767
14311TIP3    H264425   5.048   5.616   3.022 -0.3050  1.2403  0.6873
14312TIP3   OH264426   5.685   3.880  10.676  0.3409 -0.1424 -0.1181
14312TIP3    H164427   5.675   3.954  10.736  0.8924 -0.7164  0.6766
14312TIP3    H264428   5.779   3.860  10.677  0.2115 -0.7869 -0.4223
14313TIP3   OH264429   3.739   3.006  13.525  0.3616 -0.5540 -0.3124
14313TIP3    H164430   3.674   3.066  13.563 -1.0865 -3.2595  1.7037
14313TIP3    H264431   3.692   2.961  13.455  1.3685  0.5108 -1.6694
14314TIP3   OH264432   4.796   1.016  11.680  0.2665  0.6599 -0.0980
14314TIP3    H164433   4.888   1.042  11.675  1.3137 -2.5528  1.2720
14314TIP3    H264434   4.770   1.035  11.770 -0.0011  0.2533 -0.0869
14315TIP3   OH264435   5.196   0.144  11.469  0.6684 -0.3089 -0.9684
14315TIP3    H164436   5.117   0.195  11.491  1.0547 -0.4128  0.7048
14315TIP3    H264437   5.251   0.206  11.422  0.7441  0.5740  0.2579
14316TIP3   OH264438   1.968   4.689   1.109 -0.2052  0.0041  0.0376
14316TIP3    H164439   1.903   4.622   1.089 -0.8050  0.6603 -0.2292
14316TIP3    H264440   2.041   4.669   1.051 -1.3413  1.0030 -1.7818
14317TIP3   OH264441   5.360   0.493  12.368  0.3285 -0.3716 -0.0656
14317TIP3    H164442   5.273   0.533  12.363  0.8232  0.6381 -0.6660
14317TIP3    H264443   5.343   0.399  12.358 -0.9535 -0.4589  2.3391
14318TIP3   OH264444   1.771   1.721   4.696  0.3497  0.0994  0.2316
14318TIP3    H164445   1.792   1.769   4.777 -0.0878  0.7041 -0.0099
14318TIP3    H264446   1.752   1.632   4.726 -2.1593  0.8815  1.0938
14319TIP3   OH264447   3.671   6.199  16.441 -0.5153 -0.1258  0.0241
14319TIP3    H164448   3.659   6.239  16.354 -1.1258 -1.4174 -0.5063
14319TIP3    H264449   3.766   6.192  16.451 -0.4061  1.4160  0.1134
14320TIP3   OH264450   3.914   5.512   2.886 -0.6634  0.1258  0.3237
14320TIP3    H164451   3.990   5.555   2.925 -0.1809  0.5338 -1.0081
14320TIP3    H264452   3.876   5.460   2.956  1.2888 -0.6796  0.8216
14321TIP3   OH264453   0.047   3.888   1.516  0.1751 -0.0637  0.4932
14321TIP3    H164454  -0.027   3.901   1.575  1.0353  0.8001  1.4035
14321TIP3    H264455   0.072   3.797   1.528 -2.4355 -1.1567 -1.8346
14322TIP3   OH264456   3.289   5.303  15.841 -0.0332  0.1129  0.0210
14322TIP3    H164457   3.303   5.223  15.790  0.6181  0.3142 -0.1121
14322TIP3    H264458   3.210   5.284  15.892 -0.3832 -0.2839 -0.6661
14323TIP3   OH264459   1.543   5.259  17.192 -0.6354 -0.0143 -0.7114
14323TIP3    H164460   1.634   5.246  17.166 -0.4247 -1.2836  0.5623
14323TIP3    H264461   1.494   5.192  17.144 -0.6668 -0.3730 -0.1853
14324TIP3   OH264462   3.513   0.605   0.042 -0.7315 -0.2669 -0.4726
14324TIP3    H164463   3.561   0.688   0.038 -1.4301  0.1406 -0.5917
14324TIP3    H264464   3.458   0.606  -0.036 -2.1982  0.0701  0.5418
14325TIP3   OH264465   5.374   6.751   6.613  0.2861  0.1938 -0.0228
14325TIP3    H164466   5.292   6.791   6.585  0.0697 -0.8369 -0.8852
14325TIP3    H264467   5.432   6.825   6.630 -0.7596  0.9266  0.4285
14326TIP3   OH264468   4.205   1.928  16.121 -0.2037  0.1517  0.8434
14326TIP3    H164469   4.283   1.887  16.083  0.7536 -0.6172  3.4973
14326TIP3    H264470   4.201   2.015  16.081  0.7196 -0.6045 -0.9623
14327TIP3   OH264471   6.080   1.896   1.832  0.2480 -0.2187  0.0121
14327TIP3    H164472   6.134   1.974   1.846  0.2228  0.0281 -1.2510
14327TIP3    H264473   6.114   1.857   1.752  0.8730 -2.0446  1.1192
14328TIP3   OH264474   1.646   1.290   4.496  0.3272  0.1936  0.3354
14328TIP3    H164475   1.608   1.254   4.576 -0.1079  1.2454  0.6038
14328TIP3    H264476   1.608   1.377   4.488  2.1943  1.0115  0.2579
14329TIP3   OH264477   5.410   6.712   2.545  0.3253  0.0472  0.2439
14329TIP3    H164478   5.443   6.800   2.530  1.8088 -0.8861 -2.2931
14329TIP3    H264479   5.448   6.685   2.628  0.5286  1.4725  0.6214
14330TIP3   OH264480   0.145   3.634   0.037 -0.4290 -0.1506 -0.0065
14330TIP3    H164481   0.075   3.597  -0.018 -0.5928  0.6366 -0.3312
14330TIP3    H264482   0.195   3.557   0.066 -0.8659 -0.6473 -0.5383
14331TIP3   OH264483   3.070   3.272  11.650 -0.4016  0.3157  0.0945
14331TIP3    H164484   3.036   3.336  11.713 -0.6205 -0.8185  1.1471
14331TIP3    H264485   3.009   3.276  11.577 -0.0755  1.7406 -0.1283
14332TIP3   OH264486   1.759   4.459   5.464  0.2281 -0.0677 -0.2790
14332TIP3    H164487   1.680   4.458   5.518 -0.8179  1.9925 -1.7440
14332TIP3    H264488   1.821   4.513   5.513 -0.8541  2.1329 -1.2622
14333TIP3   OH264489   5.560   5.089  12.987  0.3362 -0.2239 -0.3714
14333TIP3    H164490   5.647   5.125  13.004  0.1824  0.0402 -0.1494
14333TIP3    H264491   5.545   5.108  12.894  0.8546 -0.9945 -0.6208
14334TIP3   OH264492   3.657   0.837   0.079 -0.4219 -0.3711  0.3034
14334TIP3    H164493   3.682   0.919   0.121 -2.6018  0.6296 -0.3011
14334TIP3    H264494   3.726   0.822   0.014  0.0803  0.8761  0.5312
14335TIP3   OH264495   6.368   0.529  13.523  0.2877 -0.3140  0.3680
14335TIP3    H164496   6.336   0.479  13.448  0.4416  0.8665 -0.4982
14335TIP3    H264497   6.296   0.591  13.542  0.2023 -0.6847  1.2614
14336TIP3   OH264498   5.126   1.901   5.954 -0.7830 -0.2924  0.1212
14336TIP3    H164499   5.111   1.817   5.997  1.4272  0.7015  2.9429
14336TIP3    H264500   5.202   1.885   5.898 -0.6922 -0.3130  0.2502
14337TIP3   OH264501   1.605   2.870   2.225  0.2353 -0.0690 -0.2768
14337TIP3    H164502   1.579   2.779   2.238 -1.0047  0.6587  2.6437
14337TIP3    H264503   1.536   2.921   2.266  2.1592  2.1352  0.3235
14338TIP3   OH264504   5.290   0.351  16.179 -0.1737 -0.2017 -0.4579
14338TIP3    H164505   5.348   0.385  16.111 -0.3329  2.4039  0.6627
14338TIP3    H264506   5.245   0.428  16.213 -1.9951 -1.7924  0.8489
14339TIP3   OH264507   1.588   5.618  12.953  0.4397 -0.4683 -0.0876
14339TIP3    H164508   1.618   5.702  12.919 -0.9263  0.0618 -0.0121
14339TIP3    H264509   1.639   5.605  13.032 -0.9643  1.4368  1.1906
14340TIP3   OH264510   1.227   1.262   0.080  0.2336 -0.0345 -0.1961
14340TIP3    H164511   1.231   1.214   0.162  1.0506 -0.3753 -0.4310
14340TIP3    H264512   1.211   1.195   0.013  0.1171  0.1737 -0.3803
14341TIP3   OH264513   1.982   2.653  11.272  0.0186 -0.1851  0.3065
14341TIP3    H164514   2.037   2.728  11.297  0.2165  0.0454 -0.7726
14341TIP3    H264515   1.892   2.683  11.284  0.0262  1.0170 -2.1722
14342TIP3   OH264516   0.107   6.104   3.184 -0.3062 -0.2691  0.1208
14342TIP3    H164517   0.174   6.157   3.142  0.6488 -0.0316  1.9232
14342TIP3    H264518   0.155   6.038   3.233 -1.4127 -0.5570  0.8375
14343TIP3   OH264519   3.557   2.815  13.396  0.2709 -0.3441  0.5798
14343TIP3    H164520   3.569   2.722  13.377  0.4882 -0.0672 -0.6521
14343TIP3    H264521   3.469   2.820  13.433  0.2412 -1.0338  0.6153
14344TIP3   OH264522   3.639   2.738  11.975  0.2038  0.1040  0.0373
14344TIP3    H164523   3.644   2.683  12.053  0.1775  1.0916  0.7478
14344TIP3    H264524   3.585   2.688  11.914  1.6235 -1.4423  0.0064
14345TIP3   OH264525   3.868   0.380  12.926 -0.1948 -0.8374  0.3850
14345TIP3    H164526   3.816   0.358  13.003 -0.0667 -1.1386  0.3852
14345TIP3    H264527   3.883   0.296  12.882 -1.1213 -0.5442 -0.5100
14346TIP3   OH264528   5.060   4.795  14.628  0.5747 -0.3848  1.0808
14346TIP3    H164529   5.077   4.862  14.562 -0.8394  0.3562  1.4397
14346TIP3    H264530   4.975   4.758  14.604 -0.1685  0.2008  2.7111
14347TIP3   OH264531   2.423   5.465  11.710  0.1300 -0.0754 -0.0113
14347TIP3    H164532   2.509   5.436  11.679  0.5482  1.4371 -0.2895
14347TIP3    H264533   2.366   5.457  11.633 -0.3297 -2.4197  0.5375
14348TIP3   OH264534   3.532   6.198   4.177 -0.2305  0.2336 -0.4201
14348TIP3    H164535   3.485   6.277   4.199 -1.9279 -0.6796 -0.7111
14348TIP3    H264536   3.536   6.148   4.259 -2.9241 -1.2865 -1.1527
14349TIP3   OH264537   2.895   1.386  13.429 -0.2511 -0.1822  0.0344
14349TIP3    H164538   2.978   1.432  13.433 -1.1679  1.3373  2.5364
14349TIP3    H264539   2.862   1.403  13.341  1.8825 -0.4703 -0.8365
14350TIP3   OH264540   5.602   1.205  12.944  0.1360  0.1912  0.7431
14350TIP3    H164541   5.593   1.299  12.932 -0.9799  0.1788  1.4435
14350TIP3    H264542   5.637   1.173  12.860 -0.6434  1.0586  0.0869
14351TIP3   OH264543   3.922   1.070   1.962 -0.3106 -0.5839 -0.9926
14351TIP3    H164544   3.968   0.987   1.951 -1.9307 -1.3500 -2.0946
14351TIP3    H264545   3.881   1.087   1.878 -0.6738  0.9421 -0.5368
14352TIP3   OH264546   6.647   6.401  13.420  0.4435  0.1518 -0.3549
14352TIP3    H164547   6.599   6.376  13.499  0.5139 -0.1666 -0.4123
14352TIP3    H264548   6.665   6.318  13.376 -2.8801  0.5417 -2.6384
14353TIP3   OH264549   1.745   4.748  11.732 -0.1739 -0.3877  0.5227
14353TIP3    H164550   1.703   4.666  11.756  0.2087 -1.3396 -1.9728
14353TIP3    H264551   1.688   4.786  11.665  1.9672 -0.8590 -1.6466
14354TIP3   OH264552   3.101   0.247   4.191 -0.1952 -0.0099  0.4679
14354TIP3    H164553   3.030   0.188   4.213  1.3095 -2.5405 -1.1647
14354TIP3    H264554   3.151   0.257   4.273 -0.2774 -1.2712  0.6746
14355TIP3   OH264555   0.138   3.697  13.416  1.1193 -0.3269  0.1069
14355TIP3    H164556   0.180   3.663  13.495 -0.6595  0.9769  1.6468
14355TIP3    H264557   0.107   3.784  13.440 -1.0976 -0.6334 -1.4656
14356TIP3   OH264558   1.591   3.008  14.148  0.2023 -0.0007  0.1899
14356TIP3    H164559   1.540   3.088  14.153 -0.4493 -0.2690 -1.6235
14356TIP3    H264560   1.535   2.940  14.186 -1.1716 -0.4432 -2.5015
14357TIP3   OH264561   0.744   0.289  11.707 -0.4911 -0.1723  0.4988
14357TIP3    H164562   0.827   0.241  11.708 -0.7282 -0.5666  1.4237
14357TIP3    H264563   0.771   0.381  11.705 -0.0394 -0.3123 -0.5339
14358TIP3   OH264564   3.277   1.596   2.939 -0.8655 -0.2783  0.0495
14358TIP3    H164565   3.271   1.546   3.020  2.5150 -1.1680 -0.1714
14358TIP3    H264566   3.259   1.532   2.870  0.7384 -0.5967 -0.0950
14359TIP3   OH264567   3.578   0.136   1.404  0.2989 -0.2234 -0.4429
14359TIP3    H164568   3.666   0.173   1.400  0.8228 -1.5224 -1.1179
14359TIP3    H264569   3.573   0.079   1.327 -0.9100 -0.6643 -0.0407
14360TIP3   OH264570   3.746   3.548   4.413  0.0192  0.7223 -0.1782
14360TIP3    H164571   3.742   3.564   4.319  1.2211 -0.6197 -0.4591
14360TIP3    H264572   3.753   3.453   4.422  0.8800  0.9071  1.2360
14361TIP3   OH264573   4.446   3.974  12.753 -0.4899 -0.4276  0.0141
14361TIP3    H164574   4.369   4.026  12.775 -0.2894 -0.0397 -0.1958
14361TIP3    H264575   4.431   3.890  12.797 -1.7595 -0.9099 -1.2919
14362TIP3   OH264576   4.524   5.729  12.347  0.8322  0.4179 -0.1342
14362TIP3    H164577   4.595   5.733  12.284  0.5447 -0.6383 -0.5420
14362TIP3    H264578   4.447   5.760  12.299  1.0412  1.7539  0.3663
14363TIP3   OH264579   5.991   1.221  14.742  1.0815 -0.2062 -0.0205
14363TIP3    H164580   5.956   1.235  14.654  1.7729 -0.9133 -0.4140
14363TIP3    H264581   5.955   1.293  14.794  0.0522 -0.2165 -0.6983
14364TIP3   OH264582   4.361   4.204  12.982 -0.2442  0.1260  0.0556
14364TIP3    H164583   4.296   4.254  12.932  0.5881 -0.0408 -1.2198
14364TIP3    H264584   4.382   4.260  13.057 -0.7677  0.8309 -0.3216
14365TIP3   OH264585   2.105   5.300   5.212  0.2728 -0.0568  0.2351
14365TIP3    H164586   2.047   5.225   5.221 -1.2939  1.3218  1.9876
14365TIP3    H264587   2.046   5.374   5.195  1.8283  0.6803 -2.2901
14366TIP3   OH264588   0.268   2.097   3.749 -0.9365 -0.0797 -0.7836
14366TIP3    H164589   0.273   2.018   3.694  0.0696 -1.1448  0.7774
14366TIP3    H264590   0.351   2.142   3.732  0.3340 -1.4970  1.3863
14367TIP3   OH264591   4.961   3.294  14.240 -0.4841 -0.9203 -0.0169
14367TIP3    H164592   5.007   3.254  14.166 -0.6991 -0.7663 -0.2331
14367TIP3    H264593   5.010   3.374  14.258 -0.3595 -1.0184  0.0873
14368TIP3   OH264594   0.900   4.273   6.468  0.6662 -0.0353 -0.1220
14368TIP3    H164595   0.935   4.196   6.425 -2.4179  0.0976 -3.0973
14368TIP3    H264596   0.816   4.245   6.504  0.4134  1.4258  0.4917
14369TIP3   OH264597   3.328   2.422   4.098 -0.0083  0.3435 -0.1514
14369TIP3    H164598   3.256   2.437   4.159  2.0614  2.0744  1.9655
14369TIP3    H264599   3.348   2.329   4.108 -1.2085  0.0987  0.0636
14370TIP3   OH264600   0.247   4.316   0.472 -0.3058 -0.2462 -0.4246
14370TIP3    H164601   0.321   4.258   0.491 -0.7397  0.2058  2.9069
14370TIP3    H264602   0.182   4.259   0.430  0.9568 -1.1919 -1.1229
14371TIP3   OH264603   1.747   6.455   0.554 -0.4369  0.4019 -0.2468
14371TIP3    H164604   1.770   6.376   0.504  0.6030 -0.1695  1.1208
14371TIP3    H264605   1.702   6.511   0.490  1.0519 -0.2284 -1.8956
14372TIP3   OH264606   6.347   3.205  13.733  0.3474  0.0925  0.4364
14372TIP3    H164607   6.346   3.168  13.822  1.1554  1.9845  1.2626
14372TIP3    H264608   6.437   3.190  13.702 -0.5249 -2.5575 -0.9635
14373TIP3   OH264609   1.443   2.127  13.948  0.1381 -0.7698  0.3049
14373TIP3    H164610   1.538   2.134  13.958  0.0538  1.3126 -0.2553
14373TIP3    H264611   1.407   2.162  14.029 -0.1829 -1.6409  0.5534
14374TIP3   OH264612   0.349   5.829   4.921 -0.1713  0.0551 -0.1152
14374TIP3    H164613   0.419   5.873   4.969 -0.0092 -0.4243  0.0908
14374TIP3    H264614   0.394   5.772   4.858 -0.3800  0.0947 -0.3045
14375TIP3   OH264615   0.718   0.057  11.293 -0.1496  0.2221  0.4466
14375TIP3    H164616   0.682   0.037  11.207 -1.5732  1.0021  0.8460
14375TIP3    H264617   0.792   0.116  11.275 -0.5282  0.4954 -0.2330
14376TIP3   OH264618   2.846   4.608   1.076 -0.1568 -0.1714  0.0395
14376TIP3    H164619   2.773   4.661   1.043  0.9938  1.4345 -0.0189
14376TIP3    H264620   2.849   4.627   1.170  0.6920  0.4204 -0.1018
14377TIP3   OH264621   1.345   2.711  15.237 -0.2776  0.4777  0.4405
14377TIP3    H164622   1.285   2.730  15.164  1.7910 -0.7137 -1.6208
14377TIP3    H264623   1.425   2.757  15.215  1.4690 -2.4904  0.3225
14378TIP3   OH264624   6.030   3.695   1.096  0.4094  0.2270 -0.5164
14378TIP3    H164625   6.002   3.708   1.005 -1.3673 -2.0016 -0.3295
14378TIP3    H264626   5.967   3.745   1.148 -0.1718 -0.6227 -0.3868
14379TIP3   OH264627   3.091   4.901   4.577 -0.3698  0.3302 -0.3277
14379TIP3    H164628   3.160   4.901   4.511  1.3266 -0.1857  1.3905
14379TIP3    H264629   3.029   4.835   4.547  0.3393  0.1532 -1.4391
14380TIP3   OH264630   2.155   3.389   0.411  0.4511 -0.0131  0.5023
14380TIP3    H164631   2.199   3.318   0.366  0.2663 -0.5217  1.1121
14380TIP3    H264632   2.074   3.403   0.362  0.2272 -0.5943  0.7061
14381TIP3   OH264633   0.936   1.246  14.254 -0.3258 -0.5276 -0.3595
14381TIP3    H164634   1.009   1.210  14.203  0.6118 -0.6664  1.0480
14381TIP3    H264635   0.859   1.227  14.201  0.3449 -2.9633 -0.5238
14382TIP3   OH264636   3.117   0.344  15.454 -0.3695  0.0022  0.0007
14382TIP3    H164637   3.155   0.426  15.484  0.6820 -0.3640 -0.3340
14382TIP3    H264638   3.189   0.298  15.412 -1.1780 -0.6905 -0.6345
14383TIP3   OH264639   0.468   5.396  13.070  0.1766 -0.2424  0.0187
14383TIP3    H164640   0.429   5.481  13.049  0.3821 -0.4474 -1.2206
14383TIP3    H264641   0.551   5.394  13.022  1.0551 -0.4009  1.4965
14384TIP3   OH264642   4.808   1.913  14.928  0.4806 -0.0082 -0.0805
14384TIP3    H164643   4.716   1.886  14.927  0.9748 -1.7255 -0.1303
14384TIP3    H264644   4.817   1.967  15.006 -0.4259 -0.3501  0.2573
14385TIP3   OH264645   2.919   1.490   0.709  0.6803  0.3026  0.0313
14385TIP3    H164646   3.011   1.517   0.704  0.8832 -0.4829 -0.4908
14385TIP3    H264647   2.915   1.430   0.783  0.6334  0.1267 -0.1158
14386TIP3   OH264648   2.189   0.129  16.688  0.6642  0.3536 -0.1101
14386TIP3    H164649   2.257   0.118  16.622  1.2704 -1.4554  0.8048
14386TIP3    H264650   2.108   0.102  16.644  1.2238 -1.8568  0.1845
14387TIP3   OH264651   4.217   1.963   4.410 -0.2308  0.3048  0.2960
14387TIP3    H164652   4.197   2.020   4.485 -1.4255 -1.8172  1.6501
14387TIP3    H264653   4.231   1.877   4.449  0.4598 -0.5559 -1.8143
14388TIP3   OH264654   5.475   3.119  14.963  0.1655 -0.0869  0.4060
14388TIP3    H164655   5.477   3.214  14.971  0.4580 -0.0500 -0.0793
14388TIP3    H264656   5.483   3.087  15.053  0.5727  0.3430  0.5218
14389TIP3   OH264657   5.886   0.743  16.772  0.4124  0.0624 -0.3837
14389TIP3    H164658   5.857   0.652  16.779 -0.0257  0.2043 -0.3247
14389TIP3    H264659   5.838   0.789  16.841  2.0675 -0.0057  0.8560
14390TIP3   OH264660   0.132   6.388   3.717 -0.2326 -0.0316  0.6611
14390TIP3    H164661   0.046   6.429   3.715 -0.3442 -0.2269 -4.4962
14390TIP3    H264662   0.118   6.300   3.681  2.0099 -0.2577  0.2606
14391TIP3   OH264663   0.338   3.339  15.976 -0.0636  0.1812 -0.5824
14391TIP3    H164664   0.343   3.390  16.057 -0.9572 -0.7439  0.0719
14391TIP3    H264665   0.257   3.368  15.935 -2.1899 -2.8114  1.2910
14392TIP3   OH264666   1.203   0.005   6.228  0.2806  0.2294  0.1806
14392TIP3    H164667   1.202  -0.090   6.238  1.0821  0.2370  0.3456
14392TIP3    H264668   1.112   0.028   6.207 -0.1368 -0.4476  1.2490
14393TIP3   OH264669   4.823   2.998  15.310  0.1573  0.6607 -0.0253
14393TIP3    H164670   4.914   3.028  15.298  0.6709 -0.9452 -0.3545
14393TIP3    H264671   4.776   3.035  15.235  0.8610  0.3405 -0.6400
14394TIP3   OH264672   4.561   6.518  14.954 -0.2568 -0.3692  0.0174
14394TIP3    H164673   4.572   6.613  14.950  1.5585 -0.3753  3.1322
14394TIP3    H264674   4.470   6.503  14.928 -0.5678  2.2092 -0.5307
14395TIP3   OH264675   0.703   1.346   6.166  0.0629 -0.3638 -0.4246
14395TIP3    H164676   0.743   1.317   6.248 -0.6806 -0.0228  0.0700
14395TIP3    H264677   0.611   1.359   6.188  0.0773  0.8226 -1.0318
14396TIP3   OH264678   0.894   0.477   5.466 -0.1810 -0.1603  0.5820
14396TIP3    H164679   0.873   0.457   5.557  0.8111 -1.1610  0.6022
14396TIP3    H264680   0.817   0.525   5.434 -0.5966  0.0792  1.8957
14397TIP3   OH264681   1.858   4.588  12.536  0.4871  0.2305 -0.0895
14397TIP3    H164682   1.832   4.545  12.618 -0.1032  2.3811  0.9007
14397TIP3    H264683   1.954   4.585  12.537  0.4708 -0.2244  0.4276
14398TIP3   OH264684   4.179   3.059   1.333 -0.1243 -0.2413 -0.2307
14398TIP3    H164685   4.244   3.114   1.289 -1.9777  1.7875 -0.5006
14398TIP3    H264686   4.136   3.011   1.262  1.2161 -1.7991 -0.0287
14399TIP3   OH264687   3.380   6.052  11.443 -0.0172  0.1512  0.0513
14399TIP3    H164688   3.384   6.102  11.361 -0.3603  0.8161  0.4319
14399TIP3    H264689   3.460   6.000  11.443 -0.2332 -0.2031 -0.9247
14400TIP3   OH264690   4.020   0.691   0.116  0.3849  0.8294  0.1886
14400TIP3    H164691   4.033   0.600   0.090 -0.3897  0.8395 -0.2664
14400TIP3    H264692   4.089   0.708   0.180 -0.3482 -0.5210  1.3827
14401TIP3   OH264693   2.830   0.659   3.737 -0.2204  0.4298  0.2061
14401TIP3    H164694   2.896   0.595   3.764  1.3343  1.8672 -0.0659
14401TIP3    H264695   2.789   0.688   3.818  1.9664  2.1288  0.7437
14402TIP3   OH264696   1.093   2.383   0.104 -0.4749 -0.5063  0.0731
14402TIP3    H164697   1.063   2.382   0.195  2.7143 -1.5491  1.1834
14402TIP3    H264698   1.156   2.455   0.101  0.0887 -1.0346 -1.1051
14403TIP3   OH264699   3.548   0.547   3.302 -0.0859 -0.3426 -0.1110
14403TIP3    H164700   3.487   0.565   3.373  1.0836  0.9198  0.6002
14403TIP3    H264701   3.598   0.628   3.291  1.6276 -1.4042 -0.5126
14404TIP3   OH264702   4.741   3.607   3.323  0.1935 -0.0688  0.2891
14404TIP3    H164703   4.667   3.667   3.321  0.0731 -0.2352 -0.4335
14404TIP3    H264704   4.707   3.526   3.285  0.9228  0.0575 -0.6538
14405TIP3   OH264705   5.018   4.645   2.349  0.2254  0.0824 -0.5399
14405TIP3    H164706   5.060   4.728   2.375 -0.3887 -0.6031  2.8473
14405TIP3    H264707   4.932   4.671   2.316  0.3680  0.8746 -0.3032
14406TIP3   OH264708   5.136   2.983  17.130 -0.8303  0.3555 -0.2003
14406TIP3    H164709   5.063   2.921  17.133 -0.5596  0.0495  0.2274
14406TIP3    H264710   5.143   3.014  17.221  0.6046 -0.8313  0.0990
14407TIP3   OH264711   2.536   5.980  13.872  0.1986 -0.1336  0.6272
14407TIP3    H164712   2.593   6.010  13.800  0.3086  2.2139  1.6791
14407TIP3    H264713   2.462   6.040  13.872  0.1958 -0.1050  2.4877
14408TIP3   OH264714   1.018   0.164  12.022  0.1672 -0.0971 -0.1983
14408TIP3    H164715   0.938   0.113  12.009 -0.5662  0.2307  2.6885
14408TIP3    H264716   1.029   0.169  12.117  3.4708  0.1327 -0.5102
14409TIP3   OH264717   3.985   3.012  11.970  0.4765  0.1909 -0.0750
14409TIP3    H164718   4.033   3.023  12.052  0.0005 -1.1296  0.3946
14409TIP3    H264719   3.943   3.096  11.955  1.7956  0.9291  0.2316
14410TIP3   OH264720   3.878   5.220   5.513  0.7546 -0.1876  0.5302
14410TIP3    H164721   3.969   5.212   5.542  0.9550  0.4150  0.0911
14410TIP3    H264722   3.839   5.283   5.573  1.1999  1.1449 -0.5449
14411TIP3   OH264723   5.523   6.730  14.641 -0.3032  0.3427  0.2710
14411TIP3    H164724   5.582   6.655  14.629 -0.4257  0.5147 -1.4957
14411TIP3    H264725   5.463   6.701  14.709 -1.4374 -1.8827 -1.5800
14412TIP3   OH264726   5.720   5.128   0.899 -0.3319 -0.2861 -0.0812
14412TIP3    H164727   5.654   5.078   0.948 -0.7756  1.2066  0.8861
14412TIP3    H264728   5.688   5.219   0.902  1.1696  0.2745 -0.6145
14413TIP3   OH264729   2.608   3.137  13.814 -0.0872  0.7065 -0.4556
14413TIP3    H164730   2.659   3.107  13.890  0.4741  0.3504 -0.9712
14413TIP3    H264731   2.547   3.200  13.851  1.1092  1.5810  0.0953
14414TIP3   OH264732   6.043   5.843  16.723 -0.3469  0.7323  0.1455
14414TIP3    H164733   5.970   5.837  16.785 -0.7180 -0.5440 -0.3992
14414TIP3    H264734   6.011   5.904  16.656 -1.6065 -1.1425 -0.9918
14415TIP3   OH264735   4.393   1.802   3.425 -0.0838  0.1019  0.0127
14415TIP3    H164736   4.314   1.817   3.373  0.2847 -0.4731 -0.7287
14415TIP3    H264737   4.446   1.880   3.410 -0.0911  0.0549 -0.2725
14416TIP3   OH264738   0.699   2.491   5.174  0.5706  1.0064 -0.4985
14416TIP3    H164739   0.627   2.427   5.173  1.7124 -0.3676  1.1793
14416TIP3    H264740   0.657   2.574   5.152 -1.2556 -0.0401 -1.1014
14417TIP3   OH264741   5.049   5.684  16.512  0.3337  0.5431 -0.0936
14417TIP3    H164742   5.043   5.690  16.417 -0.0961  0.3569 -0.0799
14417TIP3    H264743   5.101   5.606  16.528 -1.3423 -0.6114 -0.1446
14418TIP3   OH264744   4.619   4.546   3.693 -0.1368  0.4117 -0.3096
14418TIP3    H164745   4.542   4.495   3.666  0.1354  1.5161 -3.3773
14418TIP3    H264746   4.652   4.584   3.612  1.9867  2.2872  1.3743
14419TIP3   OH264747   4.582   1.935   1.071  0.1004  0.4759 -0.5279
14419TIP3    H164748   4.502   1.973   1.036 -0.6182 -0.8689 -0.3569
14419TIP3    H264749   4.594   1.853   1.023 -1.1357 -1.6261  2.5785
14420TIP3   OH264750   5.683   0.513   5.162  0.5884 -0.2648 -0.1430
14420TIP3    H164751   5.715   0.544   5.077  1.5185  0.5348  0.4819
14420TIP3    H264752   5.763   0.489   5.210  0.3932  2.8627  1.8685
14421TIP3   OH264753   0.646   0.314   3.751 -0.2478 -0.7894 -0.0885
14421TIP3    H164754   0.618   0.284   3.664  0.2967  0.2315 -0.6308
14421TIP3    H264755   0.716   0.253   3.776  0.1755 -0.5860 -0.7484
14422TIP3   OH264756   4.542   3.905  14.741  0.0787 -0.8051 -0.1358
14422TIP3    H164757   4.483   3.831  14.727 -2.3036  1.1600 -0.8794
14422TIP3    H264758   4.566   3.934  14.653  2.4529 -1.7654  0.1618
14423TIP3   OH264759   4.290   5.566   1.780  0.2199  0.2174 -0.2883
14423TIP3    H164760   4.215   5.567   1.840 -1.3369 -0.7716 -2.1779
14423TIP3    H264761   4.349   5.500   1.816  1.1490  2.3496  2.2930
14424TIP3   OH264762   3.812   6.131   1.448 -0.4233  1.1347  0.0037
14424TIP3    H164763   3.880   6.159   1.510 -0.7041  0.2806  0.7204
14424TIP3    H264764   3.776   6.052   1.488 -0.9449  0.8510 -1.0259
14425TIP3   OH264765   6.405   4.042  12.148  0.1896  0.1897  0.1304
14425TIP3    H164766   6.409   3.987  12.070  1.6308  1.1191 -0.4779
14425TIP3    H264767   6.465   4.000  12.210 -0.2389 -0.0346  0.3880
14426TIP3   OH264768   0.885   5.302   6.141 -0.2599 -0.1519  0.1185
14426TIP3    H164769   0.805   5.255   6.162 -0.0311 -0.1212  1.0665
14426TIP3    H264770   0.892   5.369   6.209 -0.7034  1.4038 -1.3339
14427TIP3   OH264771   1.820   2.930   2.410  0.6278  0.0825 -0.6450
14427TIP3    H164772   1.893   2.931   2.348 -0.1292  0.1633 -1.5467
14427TIP3    H264773   1.743   2.913   2.356  0.0781 -0.8049  0.4101
14428TIP3   OH264774   3.271   3.656  13.728 -0.2023  0.1827 -0.5125
14428TIP3    H164775   3.183   3.621  13.742  0.0701 -0.6756 -0.8984
14428TIP3    H264776   3.262   3.715  13.653 -0.6725  0.9936  0.1697
14429TIP3   OH264777   0.389   3.540  17.102  0.3250 -0.2696 -0.1087
14429TIP3    H164778   0.343   3.622  17.121 -0.2617 -0.4093 -0.9043
14429TIP3    H264779   0.470   3.567  17.060  0.6071 -0.0586  0.5605
14430TIP3   OH264780   4.506   1.749   4.138 -0.5745  0.0568 -0.0731
14430TIP3    H164781   4.482   1.810   4.068  0.3570  1.2414  0.6283
14430TIP3    H264782   4.585   1.706   4.106  0.5348  1.4626  0.7508
14431TIP3   OH264783   2.285   1.000   2.720 -0.0777  0.1248  0.3846
14431TIP3    H164784   2.305   0.908   2.706 -0.1922 -0.1163  1.7503
14431TIP3    H264785   2.324   1.020   2.805 -0.9353  1.0706  0.5598
14432TIP3   OH264786   1.252   3.062  15.210 -0.1452  0.0453 -0.3679
14432TIP3    H164787   1.311   3.117  15.160 -0.8015 -0.6604 -1.9429
14432TIP3    H264788   1.260   3.093  15.300  0.0134  2.2287 -1.1242
14433TIP3   OH264789   2.712   6.045   2.296 -0.6294 -0.0442  0.7423
14433TIP3    H164790   2.676   5.959   2.317 -1.7537 -0.0270 -0.9637
14433TIP3    H264791   2.745   6.035   2.206  0.1882  1.0045  0.9275
14434TIP3   OH264792   5.132   1.053   5.960  0.3097  0.0603  0.1686
14434TIP3    H164793   5.190   0.982   5.933 -0.6082 -0.2645 -0.9763
14434TIP3    H264794   5.112   1.100   5.879 -0.1408  0.8287  0.7241
14435TIP3   OH264795   5.389   6.354   0.408  0.2519 -0.1078 -0.0101
14435TIP3    H164796   5.467   6.399   0.374 -0.6526  0.7841 -0.9756
14435TIP3    H264797   5.412   6.261   0.407  0.9702  0.0728 -1.1899
14436TIP3   OH264798   6.112   3.469   3.130  0.0336  0.2830  0.6704
14436TIP3    H164799   6.030   3.515   3.147 -0.1621  0.1262  0.1533
14436TIP3    H264800   6.107   3.390   3.183 -0.6720 -0.3131 -0.2740
14437TIP3   OH264801   5.852   0.473   2.425  0.1443 -0.3925 -0.4260
14437TIP3    H164802   5.891   0.388   2.405  0.2483 -0.4885  0.1889
14437TIP3    H264803   5.802   0.459   2.505 -2.7701 -0.7633 -2.2346
14438TIP3   OH264804   4.158   6.695  13.108  0.0963 -0.0588  0.4355
14438TIP3    H164805   4.201   6.743  13.037  2.2741  0.1263  1.8616
14438TIP3    H264806   4.065   6.719  13.099  0.7856  2.4933 -0.3852
14439TIP3   OH264807   0.746   2.276  15.979  0.2110  0.2300  0.4407
14439TIP3    H164808   0.755   2.196  16.032  1.3109  0.6912  0.9681
14439TIP3    H264809   0.824   2.327  16.000 -0.0532  1.0545 -0.5675
14440TIP3   OH264810   3.520   4.227  14.242 -0.6904 -0.2986  0.3152
14440TIP3    H164811   3.530   4.241  14.148  1.8373  1.1516  0.7627
14440TIP3    H264812   3.529   4.132  14.253 -1.1722 -0.4908 -0.9133
14441TIP3   OH264813   0.299   1.952   5.920  0.4056 -0.0173  0.1889
14441TIP3    H164814   0.283   1.995   5.836  2.8149  0.1016 -0.2696
14441TIP3    H264815   0.349   2.016   5.971 -0.6696 -0.2522  1.5524
14442TIP3   OH264816   3.493   3.515   2.260 -0.4417 -0.4673 -0.3520
14442TIP3    H164817   3.437   3.438   2.248 -0.1361 -0.7741  0.1825
14442TIP3    H264818   3.477   3.543   2.350 -2.1251  1.3605 -1.1919
14443TIP3   OH264819   6.070   3.479  16.778  0.8972  0.0031 -0.1676
14443TIP3    H164820   6.040   3.457  16.866  0.0733  0.1771 -0.4005
14443TIP3    H264821   6.041   3.569  16.765  0.5584 -0.1935 -0.8102
14444TIP3   OH264822   4.439   4.052  14.012 -0.5798  0.3327  0.7766
14444TIP3    H164823   4.441   4.038  13.917 -0.2590  0.2655  0.7923
14444TIP3    H264824   4.506   3.992  14.046  0.8881  1.9703  0.8352
14445TIP3   OH264825   1.365   2.804   5.232 -0.3886  0.1836  0.1623
14445TIP3    H164826   1.397   2.857   5.305 -0.2269  1.6458 -0.9484
14445TIP3    H264827   1.301   2.745   5.271 -0.7708  1.3927  1.3723
14446TIP3   OH264828   4.798   4.122  12.089 -0.1303  0.4007 -0.0987
14446TIP3    H164829   4.770   4.030  12.088 -2.1641  0.9444  1.6812
14446TIP3    H264830   4.855   4.129  12.166  1.6033  0.2101 -1.3582
14447TIP3   OH264831   2.035   0.666   3.204  0.3862  0.6227  0.1288
14447TIP3    H164832   2.065   0.633   3.289 -1.5118  0.4649  0.7716
14447TIP3    H264833   2.056   0.596   3.143 -1.2746 -0.7357  1.0592
14448TIP3   OH264834   0.151   6.245   0.861 -0.2080  0.0456 -0.1773
14448TIP3    H164835   0.192   6.271   0.944  0.3325  2.7432 -1.2181
14448TIP3    H264836   0.092   6.317   0.840 -0.8979 -0.9558 -1.7698
14449TIP3   OH264837   4.715   3.361   0.124  0.2828  0.0652  0.4122
14449TIP3    H164838   4.794   3.307   0.129 -0.0482 -0.4196  0.4239
14449TIP3    H264839   4.669   3.343   0.206  0.4010  0.7203  0.6209
14450TIP3   OH264840   2.210   5.027  17.110 -0.3857 -0.2846  0.2207
14450TIP3    H164841   2.255   4.945  17.093 -0.2121 -0.0037 -0.7345
14450TIP3    H264842   2.178   5.055  17.024 -0.8016  0.4381  0.5996
14451TIP3   OH264843   4.798   6.004   0.721 -0.2659 -0.3207 -0.0154
14451TIP3    H164844   4.863   6.055   0.673 -1.4609  0.8843 -0.4003
14451TIP3    H264845   4.815   5.914   0.696  1.0659 -0.0016 -0.3285
14452TIP3   OH264846   3.506   5.810   5.850 -0.5823 -0.0832  0.1682
14452TIP3    H164847   3.563   5.783   5.921 -1.0331  1.0804  0.9952
14452TIP3    H264848   3.501   5.905   5.858 -0.9411  0.0285 -1.1934
14453TIP3   OH264849   2.250   5.004   5.114 -0.0675  0.2269 -0.1581
14453TIP3    H164850   2.336   5.045   5.117  0.2987 -0.7145  2.5637
14453TIP3    H264851   2.225   4.992   5.205 -2.7421 -0.2738 -0.9048
14454TIP3   OH264852   0.355   3.327   3.160 -0.2401 -0.0050 -0.2953
14454TIP3    H164853   0.336   3.239   3.127 -1.8281  0.3354 -0.2962
14454TIP3    H264854   0.379   3.312   3.252 -0.0269 -0.4883 -0.4261
14455TIP3   OH264855   4.858   0.168   3.768 -0.1159 -0.0580 -0.0414
14455TIP3    H164856   4.767   0.158   3.796 -0.1011  1.4108  0.5775
14455TIP3    H264857   4.904   0.094   3.809 -0.4284  1.0578  2.4166
14456TIP3   OH264858   2.757   5.434   6.265 -0.2580 -0.2863 -0.4301
14456TIP3    H164859   2.688   5.369   6.259 -1.0218  0.4286  0.4140
14456TIP3    H264860   2.719   5.514   6.228 -0.8836  0.8776  2.5991
14457TIP3   OH264861   5.135   6.798   1.308 -0.2883 -0.1469  0.0582
14457TIP3    H164862   5.047   6.792   1.270 -0.7715  0.3398  1.0905
14457TIP3    H264863   5.171   6.709   1.299 -0.7635 -0.2793 -0.6236
14458TIP3   OH264864   2.789   3.789  13.956 -0.1093  0.0635  0.4917
14458TIP3    H164865   2.839   3.830  13.886  0.9318 -0.5553  0.8571
14458TIP3    H264866   2.849   3.723  13.993 -0.7929  0.0835  1.6631
14459TIP3   OH264867   0.289   4.754   3.184 -0.0197  0.3768 -0.3278
14459TIP3    H164868   0.289   4.847   3.162 -2.1829  0.4633 -0.0593
14459TIP3    H264869   0.255   4.751   3.274  0.9536 -0.5971  0.0137
14460TIP3   OH264870   2.036   1.243  16.167  0.3872 -0.3409 -0.2193
14460TIP3    H164871   2.078   1.251  16.252  0.2166 -1.6332 -0.0072
14460TIP3    H264872   1.972   1.173  16.178  1.1917 -1.3525 -1.7319
14461TIP3   OH264873   0.318   0.143  11.523 -0.1222 -0.2268 -0.4284
14461TIP3    H164874   0.285   0.054  11.533  1.3307 -0.9248 -1.6556
14461TIP3    H264875   0.413   0.135  11.534 -0.1530  1.4926  1.4383
14462TIP3   OH264876   5.271   5.337  16.979  0.1828 -0.0364  0.2377
14462TIP3    H164877   5.332   5.277  16.936  1.8525  0.3030  2.0287
14462TIP3    H264878   5.326   5.386  17.041 -1.4902  1.9817  0.1830
14463TIP3   OH264879   0.645   5.703  14.248 -0.4035 -0.2011  0.0004
14463TIP3    H164880   0.633   5.610  14.227 -0.5357 -0.2235  0.1772
14463TIP3    H264881   0.740   5.716  14.244 -0.4875  0.0371 -1.6112
14464TIP3   OH264882   6.421   4.572  13.171 -0.7038 -0.1164 -0.1582
14464TIP3    H164883   6.428   4.627  13.249 -2.6670  0.2912 -0.2477
14464TIP3    H264884   6.391   4.487  13.204  0.7542 -0.6653 -0.2083
14465TIP3   OH264885   4.294   2.470  17.168  0.0209 -0.0778 -0.9252
14465TIP3    H164886   4.310   2.552  17.121 -1.2438  0.4871 -0.3796
14465TIP3    H264887   4.229   2.492  17.234  1.6422 -0.9010  1.0049
14466TIP3   OH264888   3.800   1.470   5.286 -0.1534 -0.0741 -0.3473
14466TIP3    H164889   3.830   1.388   5.246  1.1675  0.0699  0.2999
14466TIP3    H264890   3.868   1.534   5.264  0.5362  0.0475  1.9532
14467TIP3   OH264891   0.491   5.213   2.967  0.2452 -0.2946 -0.8570
14467TIP3    H164892   0.410   5.163   2.955 -0.0092  0.0403 -0.5460
14467TIP3    H264893   0.560   5.153   2.938 -0.0528 -0.8316 -0.4865
14468TIP3   OH264894   6.532   5.157  14.840 -0.2191  0.1339 -0.1269
14468TIP3    H164895   6.511   5.248  14.818  0.7051  0.4884  0.4318
14468TIP3    H264896   6.486   5.105  14.775 -0.0695  1.0410 -0.9583
14469TIP3   OH264897   5.380   1.164  15.638 -0.2675 -0.3683  0.5210
14469TIP3    H164898   5.439   1.164  15.563  0.4637  0.5358  1.0774
14469TIP3    H264899   5.403   1.085  15.686  0.3967 -0.0975  0.6548
14470TIP3   OH264900   2.708   0.313  12.280 -0.1146  0.5259  0.7333
14470TIP3    H164901   2.730   0.362  12.200 -0.3282  0.3986  0.5975
14470TIP3    H264902   2.648   0.245  12.251  0.3476  0.0481  0.8875
14471TIP3   OH264903   0.955   3.359  14.329 -0.3815 -0.0507 -0.2579
14471TIP3    H164904   0.922   3.299  14.261 -0.5452  0.5647 -0.7346
14471TIP3    H264905   0.914   3.328  14.410 -0.7509 -0.3644 -0.5595
14472TIP3   OH264906   1.120   5.545   0.860  0.5074  0.7715 -0.4119
14472TIP3    H164907   1.151   5.529   0.949  0.0839 -0.9412 -0.5481
14472TIP3    H264908   1.199   5.567   0.811  1.2393 -1.4810 -0.3052
14473TIP3   OH264909   2.018   0.658  15.287  0.2522  0.0262  0.4183
14473TIP3    H164910   1.939   0.612  15.316  0.5328 -1.3010 -0.8620
14473TIP3    H264911   2.075   0.589  15.252  0.5374  1.3720 -1.8543
14474TIP3   OH264912   0.813   6.437  11.191  0.5722 -0.3800  0.5629
14474TIP3    H164913   0.743   6.475  11.244 -1.3178 -1.8560 -0.8260
14474TIP3    H264914   0.873   6.509  11.175 -1.8412  1.5146 -0.2225
14475TIP3   OH264915   5.158   2.734  14.445 -0.1767 -0.5627  0.5606
14475TIP3    H164916   5.237   2.681  14.445  1.0007  1.1541 -0.5226
14475TIP3    H264917   5.094   2.682  14.396  0.9898 -0.9224 -0.5842
14476TIP3   OH264918   2.643   0.602   1.085 -0.0872  0.1756 -0.0167
14476TIP3    H164919   2.633   0.551   1.165  1.4604 -0.6325 -0.3298
14476TIP3    H264920   2.553   0.628   1.062 -0.4480  1.5278  2.6672
14477TIP3   OH264921   1.750   2.155  16.985  0.5896 -0.2786  0.0355
14477TIP3    H164922   1.762   2.060  16.989 -0.9019 -0.5852 -2.0722
14477TIP3    H264923   1.806   2.184  16.914  0.4261  0.2976  0.1406
14478TIP3   OH264924   4.934   2.467  15.640  0.3784 -0.0181 -0.5620
14478TIP3    H164925   4.900   2.469  15.551  0.8841 -0.8630 -0.7734
14478TIP3    H264926   4.912   2.554  15.676 -1.0066 -0.1550 -1.0530
14479TIP3   OH264927   3.671   2.434  11.887 -0.0930 -0.0096  0.2051
14479TIP3    H164928   3.578   2.438  11.911  0.0184  0.8096  0.5124
14479TIP3    H264929   3.671   2.400  11.797 -0.8966  2.9352 -0.9683
14480TIP3   OH264930   5.868   1.283  14.498  0.3756  1.0347  0.5504
14480TIP3    H164931   5.802   1.214  14.494  0.3160  0.9313  2.7919
14480TIP3    H264932   5.824   1.360  14.462 -0.0522  0.2905 -0.5523
14481TIP3   OH264933   0.363   0.281   1.745  0.1336 -0.7953  0.8368
14481TIP3    H164934   0.332   0.208   1.693 -3.0340  1.2717 -0.3164
14481TIP3    H264935   0.429   0.324   1.690  0.4939 -1.5588  0.6700
14482TIP3   OH264936   5.205   3.786   5.057 -0.2429 -0.8697  0.3347
14482TIP3    H164937   5.280   3.835   5.090  0.0009  0.1370 -1.6502
14482TIP3    H264938   5.131   3.817   5.109  0.4330 -0.6689  1.1817
14483TIP3   OH264939   1.039   6.704  16.718  0.1206  0.2915 -0.2433
14483TIP3    H164940   0.948   6.727  16.735  0.5489  2.5514 -0.9136
14483TIP3    H264941   1.059   6.745  16.634  1.4443 -1.1184 -0.6468
14484TIP3   OH264942   2.396   2.537  12.389 -0.0812  0.2535 -0.1486
14484TIP3    H164943   2.352   2.560  12.307 -0.4539  0.7066  0.1713
14484TIP3    H264944   2.489   2.543  12.369 -0.1738  1.0093 -0.3585
14485TIP3   OH264945   3.940   4.624  11.820  0.2025 -0.0275 -0.3380
14485TIP3    H164946   3.941   4.529  11.815 -2.1226 -0.1179  0.2888
14485TIP3    H264947   4.018   4.646  11.872 -0.3680 -1.7238  1.2787
14486TIP3   OH264948   6.317   5.508  16.784 -0.3336  0.0747  0.3382
14486TIP3    H164949   6.311   5.481  16.692  1.3878  0.0094  0.2258
14486TIP3    H264950   6.251   5.455  16.829 -0.3160 -0.8163 -0.6547
14487TIP3   OH264951   1.874   3.534   4.276 -0.3321  0.1872 -0.5510
14487TIP3    H164952   1.829   3.450   4.284  0.1642 -0.1345 -1.0475
14487TIP3    H264953   1.807   3.599   4.291 -0.2299 -0.3203  2.3233
14488TIP3   OH264954   1.789   6.483   1.758  0.0708 -0.0741 -0.5265
14488TIP3    H164955   1.730   6.409   1.773  0.7327 -0.8150 -1.5032
14488TIP3    H264956   1.871   6.442   1.727  0.2962  1.0927 -1.5041
14489TIP3   OH264957   3.899   3.144  15.225 -0.9064 -0.5332 -0.9859
14489TIP3    H164958   3.907   3.232  15.189 -1.0009  0.2229  0.8109
14489TIP3    H264959   3.935   3.087  15.157  2.3645  1.1736 -0.7775
14490TIP3   OH264960   4.704   5.582  15.578  0.2431 -0.2490  0.1399
14490TIP3    H164961   4.700   5.502  15.630  0.1423 -0.4330 -0.1490
14490TIP3    H264962   4.613   5.611  15.572  0.3352  0.1396  0.6345
14491TIP3   OH264963   4.080   0.448  16.316 -0.1107  0.5088 -0.3395
14491TIP3    H164964   4.128   0.367  16.299 -2.0273 -0.5280 -0.9307
14491TIP3    H264965   3.995   0.419  16.350 -1.6014  2.1745 -2.4918
14492TIP3   OH264966   4.344   0.791   1.250 -0.0166 -0.1595  0.4286
14492TIP3    H164967   4.355   0.697   1.258  0.1072 -0.2726 -0.8381
14492TIP3    H264968   4.303   0.819   1.332 -1.6436 -1.5679  0.1200
14493TIP3   OH264969   2.769   1.756  14.671  0.5907 -0.0652 -0.1666
14493TIP3    H164970   2.765   1.729  14.762 -0.3475  1.0741  0.1455
14493TIP3    H264971   2.732   1.844  14.671  1.2957  0.2441 -1.5262
14494TIP3   OH264972   6.676   3.679   0.805 -0.0162 -0.1419 -0.1437
14494TIP3    H164973   6.640   3.594   0.783  2.0452 -1.9671  3.0565
14494TIP3    H264974   6.771   3.668   0.793  0.1845  2.1159 -0.8838
14495TIP3   OH264975   1.905   6.637   2.002  0.0626 -0.0107 -0.2065
14495TIP3    H164976   1.825   6.674   1.964  0.8398  1.5828 -0.3623
14495TIP3    H264977   1.975   6.688   1.962  1.0895 -0.6705  0.7430
14496TIP3   OH264978   3.763   3.354   3.994 -0.0425 -0.2450 -0.2007
14496TIP3    H164979   3.731   3.264   3.987 -0.9150  0.0914 -0.5962
14496TIP3    H264980   3.695   3.408   3.952  0.2562  0.6369  0.4154
14497TIP3   OH264981   0.635   2.638  14.990 -0.1241 -0.1207  0.0803
14497TIP3    H164982   0.543   2.615  15.001  0.4846 -2.2230  1.2490
14497TIP3    H264983   0.660   2.678  15.074  0.7731 -2.4392  0.9695
14498TIP3   OH264984   3.516   5.398  12.181  0.0247  0.2997  0.1476
14498TIP3    H164985   3.518   5.332  12.250 -1.4875 -0.4706 -0.5194
14498TIP3    H264986   3.430   5.438  12.189  0.8468  2.0568  0.4033
14499TIP3   OH264987   4.763   0.974  16.337 -0.1013 -0.4578  0.0118
14499TIP3    H164988   4.750   0.999  16.245  0.9501 -1.4900 -0.4233
14499TIP3    H264989   4.675   0.956  16.369 -0.9037  3.5626  0.2908
14500TIP3   OH264990   6.645   4.849   3.082 -0.4970  0.3261  0.4935
14500TIP3    H164991   6.604   4.843   2.995  0.7877  0.0683 -0.1158
14500TIP3    H264992   6.600   4.922   3.125 -1.0277  0.5698 -0.4564
14501TIP3   OH264993   3.564   3.156  16.770 -0.1298 -0.1603  0.0453
14501TIP3    H164994   3.514   3.077  16.792 -1.2485  0.7815  0.9199
14501TIP3    H264995   3.592   3.142  16.679  0.3784 -1.9175  0.4461
14502TIP3   OH264996   1.009   1.556   0.283  0.3884  0.2313  0.6807
14502TIP3    H164997   0.992   1.472   0.239  1.0442 -0.0245  0.9198
14502TIP3    H264998   0.922   1.584   0.313  0.4034 -1.1830  2.0947
14503TIP3   OH264999   4.159   2.219   1.117  0.0084 -0.0537  0.5235
14503TIP3    H165000   4.111   2.170   1.184  0.2069 -0.6090  0.2578
14503TIP3    H265001   4.095   2.281   1.082 -1.1353 -2.2511 -1.3352
14504TIP3   OH265002   1.641   2.318   2.433  0.4943 -0.2527  0.5011
14504TIP3    H165003   1.650   2.389   2.370 -0.2776 -0.4325  0.1883
14504TIP3    H265004   1.553   2.284   2.420 -0.2608  0.7108  2.7333
14505TIP3   OH265005   2.884   2.648   4.534 -0.0373  0.1967 -0.5446
14505TIP3    H165006   2.856   2.568   4.490  1.1721 -1.1561  1.0746
14505TIP3    H265007   2.823   2.657   4.608  0.4030  0.2329 -0.1821
14506TIP3   OH265008   5.125   0.659  14.912 -0.2070 -0.5185 -0.3328
14506TIP3    H165009   5.057   0.645  14.847 -0.8317 -0.5093  0.3122
14506TIP3    H265010   5.100   0.740  14.957 -0.6751 -1.3906  1.0163
14507TIP3   OH265011   3.237   1.669   4.233 -0.1670 -0.1297 -0.4980
14507TIP3    H165012   3.288   1.746   4.209 -0.2327 -0.4494 -1.6722
14507TIP3    H265013   3.154   1.703   4.265  0.4170  0.3522  0.5580
14508TIP3   OH265014   6.715   3.574  12.046  0.3068 -0.3750  0.1586
14508TIP3    H165015   6.625   3.548  12.068  0.3298 -1.1799 -0.6737
14508TIP3    H265016   6.761   3.573  12.129 -0.0370 -1.6778  0.3473
14509TIP3   OH265017   5.769   5.543  11.941 -0.2018  0.5290 -0.0346
14509TIP3    H165018   5.749   5.625  11.896  0.8673  0.8141 -0.0054
14509TIP3    H265019   5.699   5.532  12.004 -0.2935  1.4847  0.0384
14510TIP3   OH265020   1.415   4.746  16.531  0.5949 -0.5040 -0.0890
14510TIP3    H165021   1.406   4.686  16.606  0.4606  1.6442  1.6566
14510TIP3    H265022   1.326   4.769  16.508  0.7313  1.6951  1.4748
14511TIP3   OH265023   4.492   5.017   4.951  0.0840 -0.2215 -0.2174
14511TIP3    H165024   4.558   4.953   4.978  0.9033 -0.1221 -1.9002
14511TIP3    H265025   4.434   4.968   4.893  0.5712  0.4921 -1.3168
14512TIP3   OH265026   6.450   3.022  16.948  0.5716  0.1951  0.6504
14512TIP3    H165027   6.494   3.074  16.881  0.9734 -0.3322  0.5034
14512TIP3    H265028   6.377   3.077  16.976 -0.6635 -0.2879 -1.4675
14513TIP3   OH265029   2.736   1.077  12.284  0.0245  0.0539  0.6447
14513TIP3    H165030   2.739   1.143  12.215 -0.7239 -1.6076 -1.0326
14513TIP3    H265031   2.827   1.067  12.312  0.3710  0.6138 -0.2484
14514TIP3   OH265032   1.983   2.727  16.377 -0.4326 -0.1114 -0.7773
14514TIP3    H165033   1.932   2.647  16.377 -0.1332 -0.3021 -0.9466
14514TIP3    H265034   1.920   2.796  16.399 -0.3714 -0.6003  1.0050
14515TIP3   OH265035   0.466   3.201  11.237  0.2491 -0.0064 -0.3338
14515TIP3    H165036   0.387   3.148  11.250  1.3985 -1.5799  0.3146
14515TIP3    H265037   0.466   3.263  11.310 -1.0255  0.8023 -1.0119
14516TIP3   OH265038   5.954   0.909   1.536  0.3331 -0.3209 -0.1039
14516TIP3    H165039   6.032   0.856   1.550  1.1337  0.9951  0.5314
14516TIP3    H265040   5.894   0.883   1.606  0.9831  0.0672  0.6138
14517TIP3   OH265041   4.438   3.294  13.799 -0.5395 -0.4491 -0.2414
14517TIP3    H165042   4.482   3.209  13.798  0.3168 -0.0158  0.5515
14517TIP3    H265043   4.452   3.329  13.711  0.8055 -0.2689  0.0319
14518TIP3   OH265044   1.786   6.690  12.459  0.5835 -0.2065 -0.0462
14518TIP3    H165045   1.693   6.707  12.471  0.6836  0.6746 -0.5187
14518TIP3    H265046   1.798   6.600  12.490 -0.3484 -0.1860  0.3774
14519TIP3   OH265047   2.767   1.137  13.690 -0.1157 -0.0566  0.0855
14519TIP3    H165048   2.672   1.126  13.696 -0.4046  1.8802 -0.5472
14519TIP3    H265049   2.797   1.133  13.781 -0.7643 -0.9252  0.2746
14520TIP3   OH265050   1.083   0.940   3.969 -0.4997  0.3805  0.0242
14520TIP3    H165051   1.069   0.896   4.053 -1.7139  0.0105 -0.3635
14520TIP3    H265052   1.052   1.029   3.983 -1.3102  0.1387 -0.2206
14521TIP3   OH265053   4.595   0.295   1.429  0.1052  0.6742 -0.9521
14521TIP3    H165054   4.550   0.213   1.451 -0.2049  0.3076 -2.8912
14521TIP3    H265055   4.537   0.338   1.366 -0.3828  3.0338  1.0073
14522TIP3   OH265056   1.433   4.503  14.966 -0.4459  0.4617 -0.6832
14522TIP3    H165057   1.522   4.483  14.995  0.3857  1.0029 -2.8325
14522TIP3    H265058   1.397   4.559  15.035  0.2454 -1.2011  1.0660
14523TIP3   OH265059   1.084   2.897  11.495  0.2694 -0.3029 -0.0888
14523TIP3    H165060   1.139   2.818  11.493 -1.6794 -1.6880 -1.6826
14523TIP3    H265061   1.123   2.955  11.429  0.9417 -0.4734  0.1543
14524TIP3   OH265062   1.808   3.149  16.218 -0.2571 -0.0965 -0.4336
14524TIP3    H165063   1.890   3.198  16.210  0.3672 -0.8335  1.3109
14524TIP3    H265064   1.794   3.112  16.130  1.3702 -0.1011 -0.7158
14525TIP3   OH265065   1.900   6.795  14.270 -0.7613  0.3396 -0.1356
14525TIP3    H165066   1.828   6.843  14.229  0.6078  2.9384  0.4462
14525TIP3    H265067   1.974   6.809  14.211 -1.0925 -3.8333 -1.7119
14526TIP3   OH265068   5.533   3.633   4.492 -0.3115 -0.0135  0.0057
14526TIP3    H165069   5.492   3.657   4.575 -0.6883  1.4552 -0.5898
14526TIP3    H265070   5.510   3.541   4.480  1.5943 -0.8826  2.5987
14527TIP3   OH265071   4.911   2.165   3.850 -0.6201 -0.4895  0.3762
14527TIP3    H165072   4.871   2.116   3.923 -2.4921 -1.0678 -0.9876
14527TIP3    H265073   5.003   2.139   3.851 -0.4891 -0.0544  2.8812
14528TIP3   OH265074   6.284   4.157  10.843  0.1691 -0.8535  0.6026
14528TIP3    H165075   6.335   4.150  10.762 -1.0654  0.1166 -0.2901
14528TIP3    H265076   6.281   4.251  10.862 -1.0522 -0.9104  0.7644
14529TIP3   OH265077   2.720   1.690  15.946 -0.0841 -0.1059 -0.8494
14529TIP3    H165078   2.772   1.619  15.909  0.8302 -0.4598  1.0494
14529TIP3    H265079   2.631   1.673  15.916  0.5744 -0.5280 -2.6184
14530TIP3   OH265080   4.627   3.793   6.038  0.3576  0.3175 -0.3004
14530TIP3    H165081   4.701   3.755   5.990 -0.1840 -0.9240 -0.1702
14530TIP3    H265082   4.553   3.737   6.016  0.1206 -0.3423  2.0752
14531TIP3   OH265083   1.043   4.133  14.571  0.4644 -0.0761  0.0110
14531TIP3    H165084   0.955   4.165  14.552  0.4491  1.4599  2.4169
14531TIP3    H265085   1.077   4.105  14.486 -2.7937 -1.9051 -0.7757
14532TIP3   OH265086   5.851   5.651  13.739  0.3296  0.5038 -0.6853
14532TIP3    H165087   5.864   5.574  13.794 -1.2734  0.4684 -0.3484
14532TIP3    H265088   5.905   5.719  13.781  0.7920 -0.0945 -0.2958
14533TIP3   OH265089   2.302   5.363  11.249 -0.1160 -0.3867  0.1806
14533TIP3    H165090   2.300   5.347  11.155  0.4088 -0.5043  0.1852
14533TIP3    H265091   2.393   5.344  11.274 -0.4515 -1.1445  0.8430
14534TIP3   OH265092   4.638   4.250  16.382  0.0286 -0.4547  0.2886
14534TIP3    H165093   4.642   4.345  16.367  0.5128 -0.4647  0.3670
14534TIP3    H265094   4.569   4.220  16.323 -0.6475  0.0573  0.8002
14535TIP3   OH265095   1.301   1.193  12.819  0.0267  0.6953 -0.4790
14535TIP3    H165096   1.271   1.262  12.761  0.1078  0.6962 -0.5201
14535TIP3    H265097   1.289   1.112  12.769 -0.2413  0.6614 -0.3638
14536TIP3   OH265098   4.891   5.441  16.054 -0.2977 -0.1929  0.3498
14536TIP3    H165099   4.892   5.522  16.003 -0.1849  0.7315  1.7956
14536TIP3    H265100   4.841   5.379  16.000 -0.0341  0.7118 -0.9514
14537TIP3   OH265101   2.158   2.547  15.050 -0.0933 -0.7315 -0.0217
14537TIP3    H165102   2.110   2.573  15.128  0.0599 -1.5510  0.3492
14537TIP3    H265103   2.197   2.628  15.018 -3.7133  0.4105 -1.7372
14538TIP3   OH265104   6.139   4.991   0.307  0.1971 -0.6293 -1.0651
14538TIP3    H165105   6.186   5.038   0.375  0.1010 -1.2715 -0.5441
14538TIP3    H265106   6.197   4.994   0.230  0.3899 -0.0695 -0.8978
14539TIP3   OH265107   4.664   3.009   0.026  0.5641 -0.1724  0.1501
14539TIP3    H165108   4.711   3.056   0.095 -0.2945  0.5998  0.2305
14539TIP3    H265109   4.603   2.952   0.073 -0.9009  1.2727  0.0426
14540TIP3   OH265110   3.260   4.601   4.987 -0.0452 -0.5426  0.3042
14540TIP3    H165111   3.257   4.661   4.913  0.8949  0.3634  0.9739
14540TIP3    H265112   3.274   4.515   4.948 -0.5536 -0.2087 -0.6209
14541TIP3   OH265113   4.101   2.519   3.338 -0.4137  0.4531 -0.4183
14541TIP3    H165114   4.180   2.510   3.285 -0.1442 -0.0321  0.0642
14541TIP3    H265115   4.031   2.533   3.274  0.4306  3.6827 -0.7286
14542TIP3   OH265116   4.796   1.834   6.025 -0.1350  0.0450 -1.0183
14542TIP3    H165117   4.870   1.800   6.075 -1.0277 -1.0511 -0.4104
14542TIP3    H265118   4.719   1.799   6.070 -1.0430  1.5619 -1.3547
14543TIP3   OH265119   5.591   5.413  13.321 -0.1511 -0.0833 -0.7302
14543TIP3    H165120   5.613   5.408  13.414 -0.0876 -1.7173 -0.8167
14543TIP3    H265121   5.521   5.478  13.316 -2.1760 -2.0836  0.8329
14544TIP3   OH265122   6.056   5.334   5.986  0.2778 -0.0306  0.1156
14544TIP3    H165123   5.989   5.293   6.040  2.3723 -1.9287  1.3528
14544TIP3    H265124   6.040   5.428   5.994 -0.6128 -0.3627  2.5032
14545TIP3   OH265125   0.289   0.669   1.591 -0.3860  0.0139  0.7540
14545TIP3    H165126   0.254   0.583   1.571 -2.1117  0.7461  0.5227
14545TIP3    H265127   0.363   0.652   1.649 -0.3419 -1.6463  0.2390
14546TIP3   OH265128   3.429   5.392   3.532 -0.2658 -0.0520 -0.2615
14546TIP3    H165129   3.404   5.398   3.440 -1.2695 -1.4586 -0.0865
14546TIP3    H265130   3.390   5.470   3.572  0.5384  0.7895 -1.0948
14547TIP3   OH265131   0.172   6.545   6.013  0.5564  0.2253  0.0790
14547TIP3    H165132   0.175   6.513   5.923 -0.0423  1.0144 -0.2345
14547TIP3    H265133   0.248   6.506   6.055 -0.4881 -2.1013 -0.1016
14548TIP3   OH265134   1.705   6.638  12.871  0.5648  0.3296 -0.1640
14548TIP3    H165135   1.669   6.683  12.947  2.9055  0.5897  0.8322
14548TIP3    H265136   1.713   6.706  12.804  0.0210  0.4398 -0.1190
14549TIP3   OH265137   6.671   6.713   1.429 -0.2373 -0.0366 -0.3691
14549TIP3    H165138   6.740   6.663   1.385 -0.0327 -0.7106  0.6843
14549TIP3    H265139   6.716   6.755   1.503 -0.5653  1.1048 -0.8029
14550TIP3   OH265140   1.407   4.467  15.679 -0.0966  0.3119 -0.3396
14550TIP3    H165141   1.488   4.471  15.731  0.0568  1.9187 -0.6827
14550TIP3    H265142   1.338   4.454  15.744  0.2641  0.5875  0.1055
14551TIP3   OH265143   6.641   1.438  12.886 -0.1348  0.4056 -0.0476
14551TIP3    H165144   6.691   1.369  12.842  1.8870  1.3204  0.7694
14551TIP3    H265145   6.630   1.406  12.975 -1.3456  0.0561 -0.3072
14552TIP3   OH265146   0.584   2.985  12.552  0.4217 -0.0737 -0.5302
14552TIP3    H165147   0.529   3.062  12.541 -1.3880 -1.0736  1.1070
14552TIP3    H265148   0.615   2.991  12.643  2.9897  0.4314 -1.4012
14553TIP3   OH265149   5.872   0.719  13.669  0.0426 -0.2750 -0.0304
14553TIP3    H165150   5.804   0.696  13.733  0.2512  0.6817  0.5310
14553TIP3    H265151   5.953   0.683  13.706  0.4301  1.6444  1.0211
14554TIP3   OH265152   2.903   1.098   5.937 -0.1140  0.1536  0.3719
14554TIP3    H165153   2.855   1.157   5.878  0.0838  2.0087  1.9948
14554TIP3    H265154   2.882   1.130   6.024  3.1531  0.2750  1.1710
14555TIP3   OH265155   0.821   1.581   6.089  0.1955 -0.0559 -0.0669
14555TIP3    H165156   0.821   1.525   6.167 -1.4736  1.3986  1.0174
14555TIP3    H265157   0.913   1.583   6.062  0.6009 -1.6306  1.0829
14556TIP3   OH265158   5.705   2.735  15.478 -0.0287 -0.4196  0.0980
14556TIP3    H165159   5.714   2.773  15.565  0.1453  1.0249 -0.5468
14556TIP3    H265160   5.611   2.720  15.467  0.0054 -1.1541  0.7542
14557TIP3   OH265161   0.068   6.231  13.573 -0.2936 -0.0427 -0.1883
14557TIP3    H165162   0.046   6.310  13.524  0.9186 -0.2196 -1.0536
14557TIP3    H265163   0.120   6.179  13.512 -0.0751 -0.9797  0.7755
14558TIP3   OH265164   3.252   2.910   3.969  0.0421  0.0317 -0.4202
14558TIP3    H165165   3.257   2.816   3.953 -0.8993  0.2051 -1.7892
14558TIP3    H265166   3.164   2.924   4.003  0.0537  0.4840 -0.5756
14559TIP3   OH265167   3.202   4.290   2.756 -0.1983 -0.2698  0.0291
14559TIP3    H165168   3.242   4.363   2.711  3.8767 -1.5929  1.2593
14559TIP3    H265169   3.165   4.235   2.687  1.0649  0.4780 -1.2384
14560TIP3   OH265170   6.402   5.352  15.216  0.0123 -0.1711  0.2055
14560TIP3    H165171   6.400   5.258  15.234  2.3918 -0.3836 -0.3901
14560TIP3    H265172   6.331   5.366  15.153  0.3886 -1.7976 -0.6025
14561TIP3   OH265173   6.491   5.890   0.445  0.1174  0.4049 -0.6088
14561TIP3    H165174   6.414   5.873   0.391 -0.0262 -0.5293 -0.1106
14561TIP3    H265175   6.557   5.829   0.412  0.4786  0.8363 -0.6838
14562TIP3   OH265176   6.090   2.312  14.856  0.6812  0.3457  0.1927
14562TIP3    H165177   6.118   2.281  14.942  1.1199  1.5331  0.4975
14562TIP3    H265178   6.013   2.367  14.874  2.0718  2.3932  0.1060
14563TIP3   OH265179   2.102   3.076   6.214 -0.0332  0.0060  0.0632
14563TIP3    H165180   2.131   2.985   6.201  0.8265  0.4090 -0.8881
14563TIP3    H265181   2.036   3.090   6.146 -2.4477 -0.8604  2.1338
14564TIP3   OH265182   4.928   0.919   5.076 -0.1666  0.7590  0.0889
14564TIP3    H165183   4.847   0.933   5.028 -0.7477 -0.0634  0.8190
14564TIP3    H265184   4.965   1.007   5.089 -0.8500  1.1114 -0.3955
14565TIP3   OH265185   2.897   3.785   2.819  0.2166  1.2051  0.3422
14565TIP3    H165186   2.947   3.761   2.741 -0.7676 -0.3572  0.1686
14565TIP3    H265187   2.808   3.753   2.802  0.2621 -0.2521  2.5786
14566TIP3   OH265188   4.489   4.735  14.949 -0.4962 -0.1662  0.1310
14566TIP3    H165189   4.522   4.653  14.913 -1.2071 -0.4960  0.2175
14566TIP3    H265190   4.543   4.751  15.027  0.5665  0.1813 -0.6663
14567TIP3   OH265191   3.347   2.416   1.751 -0.3813 -0.0682  0.2048
14567TIP3    H165192   3.381   2.345   1.806 -1.0379 -0.3403  0.2535
14567TIP3    H265193   3.408   2.419   1.677  0.8754  0.7247  1.2517
14568TIP3   OH265194   6.518   5.944  11.825  0.2471  0.2088  0.8865
14568TIP3    H165195   6.483   5.859  11.852 -0.3590  0.7604  1.8626
14568TIP3    H265196   6.448   5.983  11.772  1.0711 -0.4760 -0.7587
14569TIP3   OH265197   3.245   0.833   3.316 -0.5483 -0.0420 -0.0115
14569TIP3    H165198   3.153   0.839   3.290 -0.1919  1.1806 -1.0965
14569TIP3    H265199   3.293   0.831   3.233  0.4657  0.6022  0.5476
14570TIP3   OH265200   1.540   6.704  11.742 -0.3287  0.2920 -0.2226
14570TIP3    H165201   1.613   6.743  11.693 -2.0624  1.9715 -1.5813
14570TIP3    H265202   1.461   6.738  11.698 -1.9310 -0.8031  1.7183
14571TIP3   OH265203   6.291   6.228  14.678  0.2467 -0.1420  0.0594
14571TIP3    H165204   6.317   6.318  14.694 -1.5113  0.5386 -0.8427
14571TIP3    H265205   6.196   6.228  14.686  0.1522 -1.7421 -0.7780
14572TIP3   OH265206   4.916   5.013   1.731  0.4458  0.7494  0.2828
14572TIP3    H165207   4.828   5.050   1.725  0.8686  1.6951 -0.1927
14572TIP3    H265208   4.963   5.072   1.789  0.6367 -0.0490  0.9612
14573TIP3   OH265209   0.488   0.962   1.185  0.0581  0.5299 -1.0755
14573TIP3    H165210   0.456   1.051   1.203  0.1820  0.2911  0.3840
14573TIP3    H265211   0.471   0.914   1.265  1.4964 -0.3389 -1.2764
14574TIP3   OH265212   2.913   0.247  12.476  0.5170  0.2230  0.0351
14574TIP3    H165213   2.882   0.303  12.547  1.1395  1.7516 -0.8609
14574TIP3    H265214   2.867   0.278  12.398  0.4794 -0.8644 -0.3924
14575TIP3   OH265215   0.547   5.038   1.278 -0.6623  0.4276 -0.0333
14575TIP3    H165216   0.536   4.978   1.204  0.2088  0.7878 -0.4677
14575TIP3    H265217   0.640   5.031   1.300 -0.4412  1.9984 -0.4271
14576TIP3   OH265218   2.298   1.644   1.990  0.1730 -0.1065  0.5829
14576TIP3    H165219   2.295   1.715   1.925  0.7883 -0.3301  0.3156
14576TIP3    H265220   2.300   1.690   2.074 -3.4390  0.2007  0.6010
14577TIP3   OH265221   2.051   4.592  15.067  0.1444  1.0024 -0.5621
14577TIP3    H165222   2.061   4.687  15.076  2.6569  0.8306 -1.0394
14577TIP3    H265223   2.056   4.576  14.973  0.4968  0.3415 -0.4353
14578TIP3   OH265224   2.929   4.065  15.262  0.1105  0.3567 -0.2242
14578TIP3    H165225   3.012   4.113  15.263  2.0411 -2.8298 -0.0566
14578TIP3    H265226   2.874   4.111  15.325  1.7359  2.5438 -0.3510
14579TIP3   OH265227   1.957   1.861   4.987  0.2450 -0.4635  0.5060
14579TIP3    H165228   1.996   1.928   5.044 -0.3758 -0.2362  0.6622
14579TIP3    H265229   1.875   1.837   5.029 -0.3947 -0.0355 -0.4723
14580TIP3   OH265230   6.606   5.623  16.542  0.1512  0.5963  0.0188
14580TIP3    H165231   6.596   5.595  16.633  1.5685 -1.0928 -0.2951
14580TIP3    H265232   6.555   5.703  16.535 -1.7944 -0.4429  1.7335
14581TIP3   OH265233   0.139   6.053   0.426  0.1134 -0.1733 -0.2532
14581TIP3    H165234   0.060   6.087   0.467  0.8666 -0.0785  1.1409
14581TIP3    H265235   0.184   6.130   0.392  0.6623 -0.0144  0.8375
14582TIP3   OH265236   4.191   6.324   5.798  1.1557  0.1337 -0.0852
14582TIP3    H165237   4.156   6.407   5.765  1.3080 -0.1804 -1.0634
14582TIP3    H265238   4.164   6.259   5.732  0.7242 -0.6545  0.8490
14583TIP3   OH265239   5.388   0.160  13.211  0.0055  0.2506 -0.2138
14583TIP3    H165240   5.472   0.204  13.199  0.0264  0.2390 -0.1060
14583TIP3    H265241   5.344   0.210  13.279 -1.7943  2.7985 -3.0998
14584TIP3   OH265242   3.727   0.932  12.434  0.0612  0.7883 -0.3027
14584TIP3    H165243   3.684   0.950  12.350  1.6050  0.6354 -1.1506
14584TIP3    H265244   3.785   0.858  12.416  0.9378  1.2116  0.7213
14585TIP3   OH265245   1.384   3.262   2.171  0.1684 -0.4097  0.5171
14585TIP3    H165246   1.420   3.333   2.224  0.9190  0.1381 -0.6930
14585TIP3    H265247   1.413   3.182   2.216 -1.0300  0.0261  2.1128
14586TIP3   OH265248   1.746   0.255  12.081 -0.0499  0.2040  0.2483
14586TIP3    H165249   1.678   0.198  12.115  0.0967  0.6547  1.3279
14586TIP3    H265250   1.749   0.237  11.987 -0.6101 -0.9075  0.4400
14587TIP3   OH265251   5.788   1.496   1.431  0.8284  0.1109  0.1267
14587TIP3    H165252   5.879   1.498   1.400  0.6144 -2.6412 -0.8660
14587TIP3    H265253   5.736   1.516   1.353  0.5507  1.2597  0.5978
14588TIP3   OH265254   4.701   1.321   2.308 -0.1059 -0.2944  0.0090
14588TIP3    H165255   4.796   1.317   2.314 -0.0826 -1.1869 -0.8717
14588TIP3    H265256   4.683   1.331   2.214 -0.8819 -0.0602  0.1770
14589TIP3   OH265257   6.392   2.352  14.133  0.3504  0.1702  0.3964
14589TIP3    H165258   6.328   2.299  14.181 -0.0632 -0.8082 -1.1845
14589TIP3    H265259   6.477   2.316  14.159  0.1726  0.2316  1.0697
14590TIP3   OH265260   5.450   2.719   1.855 -0.0665 -0.1242  0.3571
14590TIP3    H165261   5.392   2.644   1.868  0.2702 -0.5009 -0.3133
14590TIP3    H265262   5.391   2.795   1.860 -0.6523 -0.5119 -0.4652
14591TIP3   OH265263   0.350   5.444  14.675 -0.6488 -0.4946 -0.3051
14591TIP3    H165264   0.374   5.410  14.589 -0.3942  0.2722 -0.5452
14591TIP3    H265265   0.303   5.525  14.656 -2.0393 -1.1656  0.2215
14592TIP3   OH265266   2.725   6.627   5.113  0.2445  0.1806 -0.1732
14592TIP3    H165267   2.795   6.660   5.057 -0.5938  0.4483 -1.0625
14592TIP3    H265268   2.744   6.665   5.199 -0.0055  2.0280 -0.8934
14593TIP3   OH265269   2.654   0.897   2.067  0.3846  0.3967  0.4638
14593TIP3    H165270   2.583   0.960   2.055 -0.5862 -0.3022  2.3665
14593TIP3    H265271   2.643   0.835   1.995 -0.9845  0.2524  0.7791
14594TIP3   OH265272   2.138   5.478   2.835  0.0261 -0.6992 -0.3089
14594TIP3    H165273   2.188   5.491   2.916 -0.3904 -0.9524 -0.0057
14594TIP3    H265274   2.077   5.552   2.833  1.7022  0.6840 -1.6702
14595TIP3   OH265275   5.992   6.278   0.605 -0.1767 -0.2305 -0.0337
14595TIP3    H165276   6.022   6.206   0.661  0.8617  0.6994  0.6297
14595TIP3    H265277   5.972   6.349   0.666  1.6824  1.0455 -0.8841
14596TIP3   OH265278   3.347   5.115  15.649  0.5776  0.3536 -0.8124
14596TIP3    H165279   3.422   5.077  15.603  1.0169 -0.3756  0.5110
14596TIP3    H265280   3.276   5.112  15.585  1.1221 -0.8854 -1.3718
14597TIP3   OH265281   3.897   0.776   4.330 -0.3124  0.1340 -0.0331
14597TIP3    H165282   3.918   0.799   4.420  0.3586 -0.4802 -0.0304
14597TIP3    H265283   3.811   0.734   4.335  0.3268 -1.1409  0.5051
14598TIP3   OH265284   3.713   0.989   2.824  0.1229 -0.3464 -0.1840
14598TIP3    H165285   3.666   1.038   2.757  1.9980  2.4505  0.4956
14598TIP3    H265286   3.669   1.012   2.906  0.1929 -0.8681  0.0036
14599TIP3   OH265287   4.428   4.882   3.651 -0.2751 -0.0488  0.4277
14599TIP3    H165288   4.441   4.825   3.575 -0.3430  1.3888 -0.6836
14599TIP3    H265289   4.349   4.848   3.693 -1.0171 -0.0363 -0.9209
14600TIP3   OH265290   6.446   3.963   4.533  0.3060 -0.3932 -0.3281
14600TIP3    H165291   6.433   3.999   4.445  1.9857  1.8123  0.2887
14600TIP3    H265292   6.403   4.025   4.592  1.3545 -0.5264  0.5957
14601TIP3   OH265293   4.327   0.413   5.435  0.4012  0.2721  0.3092
14601TIP3    H165294   4.320   0.508   5.429  0.0408  0.3135  1.1981
14601TIP3    H265295   4.239   0.381   5.415  0.9176  0.0318 -1.5864
14602TIP3   OH265296   2.447   6.005   3.344  0.2533 -0.3423  0.4305
14602TIP3    H165297   2.490   5.924   3.372 -1.8317 -0.8827  2.2254
14602TIP3    H265298   2.404   5.982   3.261 -0.0393 -1.0013  0.7557
14603TIP3   OH265299   6.189   0.631  11.772 -0.2650 -0.5254  0.3551
14603TIP3    H165300   6.250   0.583  11.828 -0.0958 -2.1568 -1.1875
14603TIP3    H265301   6.106   0.628  11.819  0.1931 -0.6562  1.1690
14604TIP3   OH265302   1.170   4.078  16.899 -0.0237 -0.5612 -0.0900
14604TIP3    H165303   1.106   4.008  16.910  2.4079 -2.7315  0.8818
14604TIP3    H265304   1.157   4.135  16.975  0.6502 -2.2066  1.2742
14605TIP3   OH265305   0.022   5.603  14.115 -0.5408 -0.1475  0.3994
14605TIP3    H165306  -0.063   5.592  14.157 -0.8901  1.8950  0.2671
14605TIP3    H265307   0.035   5.522  14.064 -2.5233 -0.3352  0.1779
14606TIP3   OH265308   4.431   1.200  16.208 -0.1159  0.0577 -0.1873
14606TIP3    H165309   4.460   1.109  16.213  0.2574  0.2341  0.8959
14606TIP3    H265310   4.413   1.225  16.298  0.5920  1.3194 -0.3835
14607TIP3   OH265311   2.889   0.966   5.248  0.3677 -0.5151  0.2621
14607TIP3    H165312   2.970   0.960   5.197  0.5015  1.4760  0.1997
14607TIP3    H265313   2.841   0.887   5.226  3.1080 -2.6839  1.7333
14608TIP3   OH265314   1.716   5.234  14.636 -0.2637 -0.5000  0.0855
14608TIP3    H165315   1.687   5.266  14.721 -1.5924 -1.1299 -0.1083
14608TIP3    H265316   1.676   5.295  14.573 -1.1574 -1.3421 -0.1828
14609TIP3   OH265317   3.693   5.954   6.057 -0.1993 -0.0504  0.2917
14609TIP3    H165318   3.689   5.859   6.072 -0.4820 -0.1306 -0.2681
14609TIP3    H265319   3.677   5.993   6.143 -0.9232 -0.5054  0.3659
14610TIP3   OH265320   3.612   2.501   4.122 -0.3149 -0.4064 -0.0280
14610TIP3    H165321   3.689   2.464   4.079  0.5382  1.3324 -0.0648
14610TIP3    H265322   3.538   2.470   4.072  0.5631  0.2254 -1.7553
14611TIP3   OH265323   5.347   2.726  12.632  0.0337  0.4234  0.1304
14611TIP3    H165324   5.392   2.710  12.550  1.5160  0.8828  0.8326
14611TIP3    H265325   5.286   2.797  12.613 -2.0526 -1.7056 -1.3904
14612TIP3   OH265326   6.189   1.043   0.781  0.1817 -0.0111 -0.3412
14612TIP3    H165327   6.175   1.097   0.858  0.7840 -0.0962 -0.1709
14612TIP3    H265328   6.176   1.103   0.707 -0.3749  0.0731 -0.1802
14613TIP3   OH265329   5.288   5.864  13.614 -0.4713 -0.4497  0.1522
14613TIP3    H165330   5.323   5.853  13.526  1.4513 -1.3571  1.0084
14613TIP3    H265331   5.363   5.852  13.672 -1.5642  0.8426  1.9028
14614TIP3   OH265332   0.040   1.023  16.263 -0.4476 -0.0613 -0.8856
14614TIP3    H165333   0.135   1.031  16.251 -0.2894 -0.2136  0.2207
14614TIP3    H265334   0.029   1.000  16.356 -1.6476  1.6645 -0.5748
14615TIP3   OH265335   1.794   3.383  15.106  0.6138 -0.5267 -0.3575
14615TIP3    H165336   1.862   3.444  15.075  0.3661 -0.2944 -0.4459
14615TIP3    H265337   1.797   3.392  15.202  2.2519 -2.1889 -0.2375
14616TIP3   OH265338   0.139   2.231   3.245  0.5286  0.2071 -0.0981
14616TIP3    H165339   0.112   2.170   3.177 -0.1105  2.2561 -1.7579
14616TIP3    H265340   0.139   2.317   3.202 -0.1508  1.6068  2.5527
14617TIP3   OH265341   0.024   1.876  15.192  0.3323 -0.2824 -0.1000
14617TIP3    H165342   0.119   1.869  15.187  0.2526 -2.9811  1.1136
14617TIP3    H265343  -0.007   1.843  15.107  0.4906  1.3571 -0.8051
14618TIP3   OH265344   6.155   0.762   2.930 -0.4019  0.5802 -0.0561
14618TIP3    H165345   6.216   0.698   2.967 -1.4592 -0.1053  0.5377
14618TIP3    H265346   6.071   0.742   2.972 -0.7785  2.2578  0.0005
14619TIP3   OH265347   2.913   4.017  11.838 -0.2917 -0.6013  0.7078
14619TIP3    H165348   2.819   4.030  11.854  0.0581 -0.7228  3.0653
14619TIP3    H265349   2.925   3.922  11.841 -0.5633 -0.8211 -2.7489
14620TIP3   OH265350   1.241   4.903  14.082  0.6116  0.1180 -0.4047
14620TIP3    H165351   1.213   4.816  14.111 -0.7090  1.0971  1.3223
14620TIP3    H265352   1.167   4.937  14.033  0.6604  0.7772 -0.0187
14621TIP3   OH265353   3.706   5.658  12.572  0.1879  0.2395  0.0133
14621TIP3    H165354   3.710   5.707  12.654  0.0706  2.0147 -1.0165
14621TIP3    H265355   3.768   5.703  12.514  0.0514 -0.8171 -0.9708
14622TIP3   OH265356   0.290   6.251   0.629  0.0570 -0.2972 -0.6818
14622TIP3    H165357   0.223   6.247   0.560  0.6762 -0.6698 -1.2746
14622TIP3    H265358   0.243   6.228   0.709 -0.4571 -0.8809 -1.1440
14623TIP3   OH265359   5.117   3.242  16.972 -0.1215 -0.1930  0.4350
14623TIP3    H165360   5.146   3.309  16.909  0.5268 -0.1455  0.7816
14623TIP3    H265361   5.198   3.207  17.009 -0.4651 -1.0085  0.4294
14624TIP3   OH265362   5.983   6.670   3.471  0.7113  0.0261 -0.4375
14624TIP3    H165363   5.995   6.588   3.423  1.0662 -1.4657  2.0858
14624TIP3    H265364   5.980   6.643   3.563 -3.7170  2.3500  0.2175
14625TIP3   OH265365   5.360   4.776  10.485  0.1827  0.2359 -0.0504
14625TIP3    H165366   5.375   4.716  10.411  3.0664  3.0985 -1.9320
14625TIP3    H265367   5.278   4.821  10.462  0.1793 -0.0758 -0.6832
14626TIP3   OH265368   1.840   5.625  16.436  0.3364 -0.3188 -0.0224
14626TIP3    H165369   1.769   5.562  16.445  0.4313 -0.2671  1.0678
14626TIP3    H265370   1.822   5.670  16.353 -0.4271 -0.8911 -0.1648
14627TIP3   OH265371   4.713   1.673  12.088  0.1567 -0.6648 -0.6764
14627TIP3    H165372   4.631   1.700  12.128  1.0137 -0.3902  0.9663
14627TIP3    H265373   4.730   1.586  12.125 -0.3689 -1.5631 -2.5172
14628TIP3   OH265374   4.743   1.068   4.837 -0.6119  0.1096  0.0045
14628TIP3    H165375   4.683   1.078   4.763  0.4031 -0.7306 -0.9371
14628TIP3    H265376   4.705   0.996   4.888 -1.2265  0.5855  0.2288
14629TIP3   OH265377   2.300   1.342  15.184 -0.2475 -1.0525  0.7746
14629TIP3    H165378   2.228   1.278  15.187 -0.6492 -0.5684  1.9300
14629TIP3    H265379   2.264   1.420  15.228  1.2714 -1.1002  2.1288
14630TIP3   OH265380   5.536   1.931  12.571  0.1088  0.5799 -0.9395
14630TIP3    H165381   5.601   2.001  12.560  0.9259  0.1540  0.9574
14630TIP3    H265382   5.568   1.860  12.515  1.1503  0.4634 -0.2029
14631TIP3   OH265383   3.241   3.821  16.124 -0.3803  0.0412  0.4596
14631TIP3    H165384   3.179   3.787  16.059  0.9874  0.9419 -1.3728
14631TIP3    H265385   3.187   3.873  16.184 -1.4352  0.6879 -1.0161
14632TIP3   OH265386   2.938   6.728   1.425 -0.1976  0.0006 -0.0631
14632TIP3    H165387   2.932   6.706   1.332 -1.0284  0.5326 -0.1359
14632TIP3    H265388   2.856   6.697   1.462  0.7040 -1.4889  0.7758
14633TIP3   OH265389   6.698   4.521  13.180 -0.4517  0.6779  0.0351
14633TIP3    H165390   6.751   4.442  13.192 -0.2152  0.8389  0.0726
14633TIP3    H265391   6.609   4.489  13.170 -0.1008  0.2525 -2.0808
14634TIP3   OH265392   2.916   5.973  14.838 -0.0034  0.6766  0.1513
14634TIP3    H165393   2.988   6.027  14.873 -0.3491  0.9433  0.4505
14634TIP3    H265394   2.837   6.009  14.878 -0.4732  1.3257 -1.3196
14635TIP3   OH265395   4.857   4.867  14.436  0.1308  0.4167 -0.1213
14635TIP3    H165396   4.866   4.923  14.512  3.3185 -0.0373 -0.0855
14635TIP3    H265397   4.879   4.923  14.362 -0.3576  0.1870 -0.4408
14636TIP3   OH265398   4.088   1.607  11.618 -0.3392  0.2029  0.3453
14636TIP3    H165399   4.000   1.572  11.628  0.7446 -2.5941  0.5848
14636TIP3    H265400   4.098   1.622  11.524  0.0430 -2.6680 -0.1190
14637TIP3   OH265401   6.083   2.306   2.657 -0.0625  0.1118  0.0371
14637TIP3    H165402   6.020   2.235   2.645 -0.3021  0.5759 -1.7082
14637TIP3    H265403   6.079   2.326   2.750 -2.9002  0.4726 -0.0963
14638TIP3   OH265404   5.880   0.306   5.423 -0.7824 -0.3286  0.0644
14638TIP3    H165405   5.786   0.322   5.433 -0.9716 -0.5014 -1.3455
14638TIP3    H265406   5.921   0.390   5.444 -1.1927 -0.4443  1.3943
14639TIP3   OH265407   0.357   6.327  16.874 -0.3889  0.0089  0.3084
14639TIP3    H165408   0.396   6.405  16.835 -0.5315  0.2920  0.7219
14639TIP3    H265409   0.286   6.303  16.815 -0.5505  0.3861  0.3468
14640TIP3   OH265410   0.632   1.756  16.175 -0.1851 -0.1002  0.6313
14640TIP3    H165411   0.622   1.848  16.200  0.6201 -0.8586  4.0710
14640TIP3    H265412   0.714   1.729  16.217 -0.7592 -2.5444  0.2370
14641TIP3   OH265413   5.622   4.729  12.190 -0.1481  0.3987 -0.4077
14641TIP3    H165414   5.710   4.692  12.193 -0.1901  0.3657  0.5822
14641TIP3    H265415   5.571   4.675  12.250 -0.4624  1.4033  0.2429
14642TIP3   OH265416   6.123   6.235  15.073 -0.0846 -0.2942 -0.1579
14642TIP3    H165417   6.035   6.250  15.108  0.3170  0.4004  0.5755
14642TIP3    H265418   6.122   6.144  15.043 -0.4489 -0.8852  1.6234
14643TIP3   OH265419   1.501   6.179   4.908  0.8596  0.2481 -0.0767
14643TIP3    H165420   1.571   6.219   4.856  0.3330  0.8691 -0.3086
14643TIP3    H265421   1.425   6.177   4.850  0.4242  0.4250  0.4831
14644TIP3   OH265422   6.245   4.281   4.314  0.1993 -0.2738 -0.3598
14644TIP3    H165423   6.245   4.272   4.219  0.2051 -1.0800 -0.2904
14644TIP3    H265424   6.251   4.375   4.330  2.6217 -0.2752 -1.1353
14645TIP3   OH265425   2.264   4.151  13.225 -0.4429  0.1439 -0.6353
14645TIP3    H165426   2.247   4.080  13.287 -0.2675  1.2501  0.7220
14645TIP3    H265427   2.184   4.158  13.174 -0.8436 -0.3609 -0.0803
14646TIP3   OH265428   2.142   3.048  16.603 -0.3627  0.2646 -0.0821
14646TIP3    H165429   2.054   3.041  16.639 -0.0808 -1.5537  0.3347
14646TIP3    H265430   2.199   3.015  16.673  0.4286 -0.7603 -1.1764
14647TIP3   OH265431   3.010   0.549   4.268  0.5793  0.2109 -0.0808
14647TIP3    H165432   3.022   0.617   4.202  0.7711 -0.5850 -0.8607
14647TIP3    H265433   2.918   0.556   4.293  0.4622  0.3920 -0.5560
14648TIP3   OH265434   5.346   1.201   1.127 -0.6977  0.4376 -0.1178
14648TIP3    H165435   5.416   1.214   1.191 -0.7997 -0.1125  0.1082
14648TIP3    H265436   5.266   1.207   1.178 -0.8084  0.7709 -0.3282
14649TIP3   OH265437   6.218   6.313   5.771  0.1502  0.2240 -0.6874
14649TIP3    H165438   6.140   6.263   5.746 -0.1266  0.5344 -0.4669
14649TIP3    H265439   6.193   6.404   5.755  0.9055  0.2536 -1.7795
14650TIP3   OH265440   3.823   0.336  16.276  0.6571 -0.3289  0.6255
14650TIP3    H165441   3.787   0.253  16.308  0.0276  0.0178  0.8149
14650TIP3    H265442   3.771   0.358  16.199  2.0048 -1.0264 -0.5155
14651TIP3   OH265443   2.524   2.019  11.233 -0.1167 -0.7434  0.2581
14651TIP3    H165444   2.571   2.101  11.249  2.1958 -1.9325 -0.2669
14651TIP3    H265445   2.572   1.977  11.162 -1.3070 -2.5569  0.4864
14652TIP3   OH265446   5.022   6.112   2.981  0.7118 -0.1188 -0.0139
14652TIP3    H165447   4.953   6.118   3.047 -0.0389  0.6546 -0.8573
14652TIP3    H265448   5.094   6.164   3.016  0.3617  0.1906  0.2463
14653TIP3   OH265449   6.711   1.470   0.179  0.3873  0.3055 -0.3319
14653TIP3    H165450   6.779   1.446   0.116 -0.2120 -0.2823 -0.7685
14653TIP3    H265451   6.682   1.387   0.216 -0.2864  0.5223 -0.3642
14654TIP3   OH265452   5.773   6.021  12.470  0.8386 -0.1550 -0.3922
14654TIP3    H165453   5.736   6.045  12.386  0.1935  1.1029  0.2482
14654TIP3    H265454   5.828   5.945  12.451 -1.3986 -1.5479 -1.4883
14655TIP3   OH265455   6.256   2.318   3.334  0.0950  0.3845 -0.1308
14655TIP3    H165456   6.187   2.282   3.389  1.3974 -2.1871 -0.0954
14655TIP3    H265457   6.314   2.364   3.395 -0.1742  0.2897  0.1999
14656TIP3   OH265458   1.472   2.949   5.446  0.2850  0.0540 -0.3486
14656TIP3    H165459   1.542   3.010   5.426  0.8013 -0.9582 -1.6782
14656TIP3    H265460   1.438   2.978   5.531  2.5000  0.3949  0.4526
14657TIP3   OH265461   1.965   5.002  16.440 -0.0052 -0.1643  0.6255
14657TIP3    H165462   2.007   4.972  16.359 -0.2765 -0.1221  0.4674
14657TIP3    H265463   1.873   4.978  16.429 -0.1105  0.1841  0.7608
14658TIP3   OH265464   0.703   4.095   0.290  1.2208 -0.1864 -0.0175
14658TIP3    H165465   0.700   4.161   0.221  0.1677  0.6864  0.8334
14658TIP3    H265466   0.722   4.013   0.245  0.3644  0.3396 -1.3720
14659TIP3   OH265467   2.792   5.057  12.178 -0.2324 -0.3501 -0.3237
14659TIP3    H165468   2.849   4.981  12.191 -1.0593 -0.9312 -0.0749
14659TIP3    H265469   2.718   5.043  12.237 -0.4010  0.6498 -0.2766
14660TIP3   OH265470   3.156   3.844  13.522 -0.0143  0.4290 -0.6622
14660TIP3    H165471   3.085   3.907  13.504  0.3658  0.6505 -1.3916
14660TIP3    H265472   3.235   3.887  13.490  0.7506  0.9921  1.8612
14661TIP3   OH265473   2.354   2.776  15.299  0.3213 -0.2382  1.1945
14661TIP3    H165474   2.289   2.707  15.317  0.3141 -0.6441 -0.3443
14661TIP3    H265475   2.306   2.858  15.311 -0.4264 -0.5353  0.2200
14662TIP3   OH265476   3.879   4.284  13.999  0.1880  0.0458  0.1054
14662TIP3    H165477   3.899   4.192  14.015  3.4651  0.1676 -2.9147
14662TIP3    H265478   3.909   4.330  14.078  0.5308 -1.1991  0.6990
14663TIP3   OH265479   5.345   3.762  15.029  0.0486  0.8469  0.2900
14663TIP3    H165480   5.429   3.795  15.062 -0.4429  1.4028  1.0048
14663TIP3    H265481   5.356   3.761  14.934  1.9272 -1.9256  0.4679
14664TIP3   OH265482   5.789   1.875  11.087 -0.1613 -0.3981 -0.2045
14664TIP3    H165483   5.855   1.822  11.132  1.0027 -0.0439 -1.4383
14664TIP3    H265484   5.711   1.869  11.142  0.0567 -3.0604 -0.1115
14665TIP3   OH265485   3.557   2.146   2.673 -0.3747 -0.3049 -0.1747
14665TIP3    H165486   3.552   2.098   2.590 -0.5411  0.4865 -0.6183
14665TIP3    H265487   3.640   2.117   2.711  0.7477  0.9210 -1.6133
14666TIP3   OH265488   4.809   0.392   4.313 -0.1583 -0.0412 -0.3969
14666TIP3    H165489   4.760   0.457   4.264  0.9019  1.0920  0.0308
14666TIP3    H265490   4.803   0.312   4.260 -1.4141  0.4018 -0.9415
14667TIP3   OH265491   5.833   1.907  12.118 -0.0612  0.4163 -0.2590
14667TIP3    H165492   5.826   2.003  12.120 -1.1725  0.3989 -1.9161
14667TIP3    H265493   5.927   1.890  12.114  0.0991  1.5072 -1.5360
14668TIP3   OH265494   2.005   6.162  16.062 -0.1009 -0.3235 -0.3864
14668TIP3    H165495   2.045   6.082  16.096 -1.2685 -1.0078 -0.6111
14668TIP3    H265496   2.050   6.178  15.979  1.9150  0.6820  0.8616
14669TIP3   OH265497   3.337   2.237  16.688  0.1558  0.8691 -0.0890
14669TIP3    H165498   3.387   2.156  16.680  2.7283  2.0929  2.4063
14669TIP3    H265499   3.268   2.230  16.622  1.6299 -2.3665 -1.3901
14670TIP3   OH265500   4.474   1.178  14.384 -0.2346 -0.1000 -0.1123
14670TIP3    H165501   4.569   1.181  14.377 -0.2436 -0.4208 -0.3789
14670TIP3    H265502   4.445   1.262  14.349 -0.0150  0.2968  0.6366
14671TIP3   OH265503   3.464   3.495   2.968  0.4418  0.3663  0.1031
14671TIP3    H165504   3.516   3.523   3.044  1.1991  0.7460 -0.5439
14671TIP3    H265505   3.446   3.576   2.921 -1.1714  0.3026  0.5729
14672TIP3   OH265506   3.684   6.428   5.152  0.3639 -0.1048  0.1125
14672TIP3    H165507   3.740   6.351   5.157 -1.1501 -1.1648  1.0726
14672TIP3    H265508   3.732   6.496   5.199  0.8784 -0.9633  0.8383
14673TIP3   OH265509   0.178   4.194  11.115 -1.0465  0.0441  0.2869
14673TIP3    H165510   0.193   4.135  11.042 -0.6291  0.2267  0.2185
14673TIP3    H265511   0.099   4.242  11.092 -0.0305  1.2340 -0.7999
14674TIP3   OH265512   3.838   1.997  15.160  0.7597  0.2447  0.5458
14674TIP3    H165513   3.809   2.086  15.145  0.7782  0.0783 -0.5501
14674TIP3    H265514   3.860   1.994  15.253 -1.1705  0.8058  1.0381
14675TIP3   OH265515   1.469   3.448   6.037 -0.4863  0.0422  0.1149
14675TIP3    H165516   1.486   3.403   6.120 -2.6922 -0.3040  0.3970
14675TIP3    H265517   1.393   3.504   6.055  0.3049  1.5422 -1.0974
14676TIP3   OH265518   3.403   0.625  11.746  0.4207 -0.3162 -0.5427
14676TIP3    H165519   3.321   0.578  11.763  1.7946 -2.0141  1.5883
14676TIP3    H265520   3.393   0.708  11.792  0.3270 -0.9659  0.6136
14677TIP3   OH265521   5.328   5.015  14.913 -0.1126 -0.0770 -0.1451
14677TIP3    H165522   5.248   4.995  14.962 -0.4183 -1.1529 -1.0631
14677TIP3    H265523   5.313   5.104  14.881 -2.0454 -1.1292 -2.3594
14678TIP3   OH265524   6.157   4.914   4.161 -0.0957  0.1028  0.1858
14678TIP3    H165525   6.093   4.861   4.208 -2.0555  1.9279 -0.3329
14678TIP3    H265526   6.161   4.996   4.211 -3.2505  2.6476 -3.3826
14679TIP3   OH265527   6.705   3.617  16.383 -0.2031 -0.5022 -0.0166
14679TIP3    H165528   6.676   3.706  16.403  1.0490 -0.4557  1.7177
14679TIP3    H265529   6.769   3.628  16.313 -1.1666 -0.2094 -0.8773
14680TIP3   OH265530   6.530   1.102  16.913  0.0659 -0.1921 -0.2235
14680TIP3    H165531   6.621   1.116  16.940  0.7583  2.9224 -3.6986
14680TIP3    H265532   6.533   1.024  16.857 -0.0596 -2.1040  2.3535
14681TIP3   OH265533   2.929   1.766   5.066  0.7298 -0.7038 -0.0782
14681TIP3    H165534   2.983   1.692   5.040  1.4537 -0.0790 -0.3483
14681TIP3    H265535   2.871   1.730   5.134  1.4410 -1.3783  0.1754
14682TIP3   OH265536   4.330   1.471  15.001  0.5653 -0.5863 -0.3403
14682TIP3    H165537   4.362   1.508  15.084  1.7546 -1.5259 -0.3622
14682TIP3    H265538   4.264   1.408  15.028 -0.6718  0.7277 -0.2426
14683TIP3   OH265539   4.487   0.509  15.316 -0.0993  0.1625 -0.0099
14683TIP3    H165540   4.424   0.481  15.250  0.7163 -1.2241 -0.2321
14683TIP3    H265541   4.472   0.450  15.390  0.1898  0.5494  0.3559
14684TIP3   OH265542   1.406   2.829   4.211 -0.0028 -0.5706  0.4408
14684TIP3    H165543   1.334   2.806   4.152  1.7444 -1.6470 -1.3231
14684TIP3    H265544   1.389   2.920   4.235 -2.8022 -1.2986  1.3334
14685TIP3   OH265545   4.796   0.343  13.020 -0.2037 -0.1567 -0.3837
14685TIP3    H165546   4.844   0.268  13.053 -0.5827  0.1430  0.8577
14685TIP3    H265547   4.722   0.353  13.080  0.6735  2.1344  0.3751
14686TIP3   OH265548   1.020   0.915  15.332  0.0357  0.8015 -0.3635
14686TIP3    H165549   1.085   0.983  15.350 -0.6406  1.4228 -0.2656
14686TIP3    H265550   0.964   0.914  15.410  0.7821 -0.7179  0.1650
14687TIP3   OH265551   2.286   6.622   0.119  0.2034 -0.1613  0.4105
14687TIP3    H165552   2.302   6.528   0.125  0.5522 -0.3595 -2.7868
14687TIP3    H265553   2.322   6.658   0.200  0.0406 -2.7604  1.6789
14688TIP3   OH265554   3.251   2.056  14.067  0.5383  0.5812 -0.1092
14688TIP3    H165555   3.284   2.126  14.123  0.1896  0.3351  0.4144
14688TIP3    H265556   3.277   2.081  13.978 -1.2118  2.3197 -0.1493
14689TIP3   OH265557   0.934   5.829  16.667  0.0910  0.0690  0.2595
14689TIP3    H165558   1.005   5.779  16.707  0.5331  0.2780 -0.2612
14689TIP3    H265559   0.884   5.863  16.741  0.5974  0.0147  0.6244
14690TIP3   OH265560   2.468   4.831  13.494 -0.1688  0.4072 -0.2970
14690TIP3    H165561   2.445   4.890  13.422 -0.6659 -1.4299 -1.6687
14690TIP3    H265562   2.563   4.840  13.503 -0.1727  1.0207 -0.8234
14691TIP3   OH265563   3.263   6.509  12.754  0.1493  0.3195  0.3061
14691TIP3    H165564   3.189   6.524  12.695  0.4891 -0.7781 -0.4123
14691TIP3    H265565   3.224   6.466  12.830 -0.3471  2.0609  1.0727
14692TIP3   OH265566   5.588   3.554   0.790  0.0713 -0.1350  0.2158
14692TIP3    H165567   5.589   3.625   0.726 -0.9295  1.8147  2.2953
14692TIP3    H265568   5.534   3.486   0.750 -0.4442  1.0112 -1.0653
14693TIP3   OH265569   2.571   4.869  11.726  0.2563 -0.1503 -0.4721
14693TIP3    H165570   2.582   4.807  11.655  1.4690 -1.6608  0.9926
14693TIP3    H265571   2.655   4.868  11.772 -1.5412 -1.6747  2.9202
14694TIP3   OH265572   6.289   5.643  13.506 -0.4480  0.0496 -0.4607
14694TIP3    H165573   6.223   5.585  13.544 -1.7217  0.3357 -2.1968
14694TIP3    H265574   6.283   5.723  13.559 -0.1647 -0.6208  0.5896
14695TIP3   OH265575   2.086   2.761   5.465 -0.8669  0.0225 -0.2560
14695TIP3    H165576   2.066   2.773   5.558  0.4284  0.6871 -0.0494
14695TIP3    H265577   2.063   2.669   5.447  0.6677 -0.6676  1.1924
14696TIP3   OH265578   4.118   6.437   4.191 -0.0221 -0.1563 -0.3861
14696TIP3    H165579   4.088   6.400   4.108  0.9382 -1.3700 -0.1886
14696TIP3    H265580   4.073   6.522   4.196 -2.0270 -1.1400 -0.9524
14697TIP3   OH265581   2.169   3.702   3.683  0.7161  0.0278 -0.6791
14697TIP3    H165582   2.189   3.745   3.600 -0.0230  0.1038 -0.8200
14697TIP3    H265583   2.179   3.771   3.748 -0.8881  0.5422 -0.9496
14698TIP3   OH265584   5.552   3.630   1.083  0.3608  0.0035 -0.5176
14698TIP3    H165585   5.535   3.723   1.067 -1.4333 -0.3138 -0.5263
14698TIP3    H265586   5.581   3.596   0.998  1.7633  0.7061 -0.3326
14699TIP3   OH265587   6.674   0.361  10.536 -0.1121 -0.0524 -0.3750
14699TIP3    H165588   6.735   0.433  10.552  0.1170 -0.1583 -0.7551
14699TIP3    H265589   6.594   0.387  10.582  0.1649  0.1629 -0.0116
14700TIP3   OH265590   6.749   4.969   1.559  0.0713 -0.5337 -0.3011
14700TIP3    H165591   6.789   5.051   1.532  1.3761 -0.8231  0.7126
14700TIP3    H265592   6.812   4.902   1.534 -0.6083 -1.1595 -0.3683
14701TIP3   OH265593   3.370   3.440  13.258  0.5794  0.4571 -0.1330
14701TIP3    H165594   3.338   3.461  13.346 -3.0068  0.1188 -1.2676
14701TIP3    H265595   3.364   3.522  13.209 -1.0499 -0.1786 -1.0479
14702TIP3   OH265596   1.250   4.674  13.240  0.0103 -0.5946 -0.5209
14702TIP3    H165597   1.202   4.717  13.312 -1.4736 -0.2269 -1.6993
14702TIP3    H265598   1.341   4.675  13.268 -0.3863  0.6679  0.8065
14703TIP3   OH265599   3.199   5.716   2.864  0.3195 -0.4784 -0.5457
14703TIP3    H165600   3.115   5.738   2.821  0.1283  0.3858  0.2697
14703TIP3    H265601   3.262   5.717   2.792 -0.0936  0.4452 -0.9149
14704TIP3   OH265602   3.629   2.640  14.137 -0.0408  0.2937 -0.1652
14704TIP3    H165603   3.586   2.596  14.063  2.0326  0.4161 -1.4616
14704TIP3    H265604   3.634   2.572  14.205 -1.4627  0.0308 -0.2933
14705TIP3   OH265605   5.644   1.444  12.721  0.4798 -0.2874 -0.1590
14705TIP3    H165606   5.630   1.416  12.630 -1.7920  1.9537 -0.5495
14705TIP3    H265607   5.736   1.473  12.722  0.2114  0.7309 -2.0534
14706TIP3   OH265608   3.531   6.041   4.415  0.3987  0.2844  0.2343
14706TIP3    H165609   3.473   5.984   4.466 -1.1407  0.5419 -1.2194
14706TIP3    H265610   3.565   6.103   4.479  0.6008 -1.0616  1.4758
14707TIP3   OH265611   5.853   1.452  14.917 -0.0422  0.4332 -0.0903
14707TIP3    H165612   5.758   1.443  14.923 -0.0632  0.4187 -0.4353
14707TIP3    H265613   5.877   1.498  14.997 -0.3484  0.4993 -0.0331
14708TIP3   OH265614   3.836   2.839  15.639  0.2914 -0.1504  0.1611
14708TIP3    H165615   3.833   2.854  15.545  1.0379  0.7497  0.2670
14708TIP3    H265616   3.798   2.752  15.651 -1.9533  0.6692 -0.7261
14709TIP3   OH265617   6.571   0.102  11.627 -0.1510  0.2965  0.3055
14709TIP3    H165618   6.642   0.153  11.666 -0.8794  1.1053  0.5703
14709TIP3    H265619   6.493   0.155  11.638 -0.7412 -0.4065 -0.3597
14710TIP3   OH265620   3.970   5.461  16.881  0.2351 -0.1939  0.2232
14710TIP3    H165621   3.906   5.464  16.810 -0.2110 -0.0982  0.6308
14710TIP3    H265622   3.925   5.499  16.956 -0.8817 -4.3489  1.8003
14711TIP3   OH265623   2.914   1.678   6.393  0.2117  0.2918  0.8026
14711TIP3    H165624   2.886   1.768   6.373  1.9530  0.3958 -1.2647
14711TIP3    H265625   2.984   1.689   6.458 -0.4794  0.3296  1.5586
14712TIP3   OH265626   0.689   5.068   6.297 -0.2292  0.4401 -0.1944
14712TIP3    H165627   0.640   5.035   6.373  0.4004  0.3277  0.1689
14712TIP3    H265628   0.631   5.052   6.222 -0.0825 -1.1992  0.0213
14713TIP3   OH265629   4.531   2.158   3.642  0.3154 -0.0299  0.4998
14713TIP3    H165630   4.473   2.207   3.584  0.4900  0.0095  0.3615
14713TIP3    H265631   4.594   2.222   3.674  0.5933 -0.1808  0.2553
14714TIP3   OH265632   0.147   3.835  11.509  0.4109  0.3123 -0.6989
14714TIP3    H165633   0.140   3.883  11.592  2.8927  0.7655 -0.7074
14714TIP3    H265634   0.103   3.891  11.445  1.2458  1.4768 -0.2684
14715TIP3   OH265635   4.291   3.915  15.109  0.4038  0.8212  0.3234
14715TIP3    H165636   4.354   3.926  15.038  0.1088  0.1113 -0.0604
14715TIP3    H265637   4.302   3.823  15.137 -2.7591 -0.3504 -2.0137
14716TIP3   OH265638   5.364   0.597  11.525  0.9266 -0.2296 -0.1335
14716TIP3    H165639   5.373   0.547  11.606  0.8897  0.0624  0.0486
14716TIP3    H265640   5.374   0.531  11.456 -0.5493 -0.7327  0.1069
14717TIP3   OH265641   4.543   1.988  13.581  0.0017  0.2938  0.3389
14717TIP3    H165642   4.555   2.001  13.675  1.8013  1.7133 -0.0613
14717TIP3    H265643   4.597   2.056  13.541 -2.5622  1.2148 -1.7056
14718TIP3   OH265644   2.298   1.205   5.925 -0.0634 -0.2912 -0.2661
14718TIP3    H165645   2.262   1.127   5.967  3.0307 -1.2166  0.7255
14718TIP3    H265646   2.291   1.187   5.831  1.9595 -2.4196 -0.0438
14719TIP3   OH265647   1.399   1.577  14.636  0.0269  0.1033 -0.2696
14719TIP3    H165648   1.377   1.653  14.690 -0.8273  0.3941 -0.9957
14719TIP3    H265649   1.334   1.579  14.565  0.2431 -1.0776 -0.5129
14720TIP3   OH265650   1.998   0.655  12.623  0.0636 -0.3548  0.1873
14720TIP3    H165651   2.052   0.607  12.560 -0.1666 -0.7437  0.2857
14720TIP3    H265652   2.055   0.726  12.653 -0.3973  0.8081 -1.6681
14721TIP3   OH265653   1.073   4.551   3.634  0.3285  0.0509  0.2502
14721TIP3    H165654   1.090   4.508   3.718 -3.2547  0.9720  1.5576
14721TIP3    H265655   1.094   4.643   3.648 -0.3571  0.2227  0.1959
14722TIP3   OH265656   1.857   3.921   1.268 -0.3898  0.2504  0.3010
14722TIP3    H165657   1.805   3.978   1.212 -0.8643 -0.2714  0.2085
14722TIP3    H265658   1.939   3.968   1.281 -0.9101  1.1118  0.5076
14723TIP3   OH265659   6.680   2.435   1.101 -0.2352  0.5173 -0.5186
14723TIP3    H165660   6.598   2.397   1.134 -0.8384  0.7855 -1.6810
14723TIP3    H265661   6.656   2.522   1.071  0.8726  1.3125  0.8430
14724TIP3   OH265662   3.893   6.156   2.374  0.2049 -0.0422  0.0984
14724TIP3    H165663   3.836   6.088   2.410 -1.0360  0.5324 -0.7410
14724TIP3    H265664   3.938   6.115   2.301 -1.3034  0.3057 -1.0477
14725TIP3   OH265665   6.609   6.595   5.039  0.1441 -0.1376  0.5702
14725TIP3    H165666   6.558   6.619   4.961  2.6534  1.6976 -0.6106
14725TIP3    H265667   6.545   6.561   5.101 -2.5954  2.5726 -0.6381
14726TIP3   OH265668   6.773   0.767   5.188  0.2380  0.0243 -0.4730
14726TIP3    H165669   6.751   0.699   5.125  1.6806  0.0845 -1.0593
14726TIP3    H265670   6.818   0.721   5.260 -1.4876 -0.0598  0.5822
14727TIP3   OH265671   0.718   2.017   0.221  0.1391  0.1920  0.0790
14727TIP3    H165672   0.636   2.050   0.185 -0.8343  0.2417  2.2691
14727TIP3    H265673   0.783   2.085   0.199 -0.1898 -0.2426 -2.3957
14728TIP3   OH265674   5.311   5.012  11.644  0.6549 -0.1689 -0.0092
14728TIP3    H165675   5.297   4.917  11.644  1.0946 -0.2346 -0.1822
14728TIP3    H265676   5.255   5.044  11.573 -0.2669 -0.1827  0.7079
14729TIP3   OH265677   5.680   2.528   2.993 -0.0092  0.1043  0.5474
14729TIP3    H165678   5.698   2.447   2.945 -0.8306  0.6592 -0.6982
14729TIP3    H265679   5.593   2.514   3.031  0.4714 -0.1755  1.5904
14730TIP3   OH265680   4.523   2.057   4.583 -0.4682  0.4422 -0.0412
14730TIP3    H165681   4.548   2.018   4.668 -1.0426  0.8227  0.3041
14730TIP3    H265682   4.536   1.986   4.520  2.1234  0.8309  0.0271
14731TIP3   OH265683   1.147   2.187   1.291 -0.2773  0.5671 -0.0062
14731TIP3    H165684   1.184   2.245   1.358  0.9924  0.3034 -0.4723
14731TIP3    H265685   1.129   2.105   1.337  0.9636  0.2548 -0.0658
14732TIP3   OH265686   1.325   0.168  16.140  0.9742 -0.0376  0.3387
14732TIP3    H165687   1.333   0.170  16.045  0.5353 -2.2954  0.2098
14732TIP3    H265688   1.415   0.156  16.171  1.4807  3.5630  0.3777
14733TIP3   OH265689   0.642   2.814   3.222 -0.6136 -0.0528  0.1818
14733TIP3    H165690   0.593   2.754   3.278 -1.0343  1.0619  1.0416
14733TIP3    H265691   0.577   2.846   3.160 -0.9454  1.2375  1.1661
14734TIP3   OH265692   3.476   6.052   0.640  0.0242 -0.5522  0.2053
14734TIP3    H165693   3.411   6.055   0.710  0.2272  0.1293  0.3653
14734TIP3    H265694   3.497   5.959   0.630 -0.3961 -0.6959  0.6849
14735TIP3   OH265695   4.222   5.807   4.265  0.3473  0.0860 -0.0392
14735TIP3    H165696   4.144   5.861   4.278  1.0434  0.9634  0.5026
14735TIP3    H265697   4.193   5.737   4.206 -1.4032 -0.7745  1.7640
14736TIP3   OH265698   5.985   4.404  12.920  0.1447  0.3474  0.3826
14736TIP3    H165699   5.961   4.436  12.833  3.3197 -0.6040 -0.8960
14736TIP3    H265700   6.051   4.465  12.951  2.9382 -2.2807 -0.1727
14737TIP3   OH265701   0.876   3.448  16.174  0.3032  0.0724  0.2549
14737TIP3    H165702   0.864   3.411  16.086  1.3037  0.1454  0.0817
14737TIP3    H265703   0.861   3.542  16.163  1.6924  0.2568 -0.0948
14738TIP3   OH265704   5.992   2.178  14.005  0.2122  0.0328 -0.1457
14738TIP3    H165705   5.967   2.263  14.040 -0.7812 -1.0138  1.7224
14738TIP3    H265706   6.072   2.155  14.052 -0.1990 -0.6166  0.2498
14739TIP3   OH265707   1.376   1.246   2.270  0.4520 -0.0613 -0.2695
14739TIP3    H165708   1.292   1.289   2.255  0.1992 -0.5609 -0.2996
14739TIP3    H265709   1.371   1.165   2.219 -0.0785 -1.3843  1.8582
14740TIP3   OH265710   2.802   4.840  11.867  0.5140 -0.2586 -0.0269
14740TIP3    H165711   2.863   4.904  11.905  0.9063 -1.1827  0.9229
14740TIP3    H265712   2.857   4.764  11.848 -0.1933 -0.7955  0.0693
14741TIP3   OH265713   4.960   2.478  15.346  0.3512 -0.0357  0.5974
14741TIP3    H165714   4.878   2.436  15.320  0.8757 -0.7670  0.1117
14741TIP3    H265715   4.944   2.571  15.334 -0.7132 -0.1025  1.3693
14742TIP3   OH265716   6.720   0.571  17.068 -0.7249 -0.2454  0.1460
14742TIP3    H165717   6.779   0.530  17.131 -0.3130 -0.0626 -0.1190
14742TIP3    H265718   6.656   0.503  17.048 -0.3323 -0.6056  0.0876
14743TIP3   OH265719   0.394   3.549   1.037  0.1216 -0.1496 -0.3727
14743TIP3    H165720   0.426   3.626   0.989 -0.8643  1.5384  1.6008
14743TIP3    H265721   0.462   3.533   1.103  1.0019 -1.8708 -1.6554
14744TIP3   OH265722   5.604   5.715  15.623  0.3327  0.2000  0.1546
14744TIP3    H165723   5.621   5.621  15.625  0.6698  0.2778  1.7250
14744TIP3    H265724   5.520   5.724  15.578  0.7203 -0.7775 -0.7724
14745TIP3   OH265725   4.539   0.049  11.980 -0.5592 -0.2236 -0.8693
14745TIP3    H165726   4.518   0.140  11.999 -0.1053 -0.0917 -0.9917
14745TIP3    H265727   4.635   0.045  11.982 -0.5944 -0.8519 -0.1446
14746TIP3   OH265728   3.880   4.029   3.745 -0.7582  0.3722 -0.1091
14746TIP3    H165729   3.922   4.064   3.666 -0.1851 -0.1813 -0.0593
14746TIP3    H265730   3.913   4.083   3.816  2.1937 -1.8361  0.3223
14747TIP3   OH265731   4.151   3.232   2.701 -0.1545 -0.0768 -0.7819
14747TIP3    H165732   4.153   3.257   2.609  0.8079 -0.3907 -0.8557
14747TIP3    H265733   4.200   3.302   2.745 -1.9577  0.9152 -0.2879
14748TIP3   OH265734   0.164   3.266   3.544 -0.0020  0.0180  0.0204
14748TIP3    H165735   0.160   3.318   3.464 -0.0135  3.5302  2.1997
14748TIP3    H265736   0.257   3.249   3.557 -0.0355 -1.0076 -0.9530
14749TIP3   OH265737   4.156   6.623  11.856  0.6631  0.0659  0.6309
14749TIP3    H165738   4.076   6.666  11.888 -0.1827  1.3568 -2.9826
14749TIP3    H265739   4.154   6.536  11.896  0.2629  1.8876  4.8120
14750TIP3   OH265740   0.259   0.273   3.814 -0.3585 -0.5304 -0.2066
14750TIP3    H165741   0.295   0.342   3.757  1.0099 -2.0559 -1.2331
14750TIP3    H265742   0.190   0.317   3.863 -0.5288  1.2160 -1.9221
14751TIP3   OH265743   6.047   1.123   3.284  0.2800 -0.4646 -0.6811
14751TIP3    H165744   6.096   1.078   3.215  0.2367  0.4004 -1.2799
14751TIP3    H265745   6.078   1.213   3.281  0.7317 -0.5648  0.8654
14752TIP3   OH265746   6.809   6.387   2.367 -0.0596  0.4206 -0.2316
14752TIP3    H165747   6.720   6.373   2.334 -0.2504 -1.4624  0.9963
14752TIP3    H265748   6.800   6.448   2.439 -0.7533 -1.8528  1.6599
14753TIP3   OH265749   1.513   3.718  14.200  0.2520  0.3063 -0.6649
14753TIP3    H165750   1.573   3.712  14.126  0.0792  0.0804 -0.7901
14753TIP3    H265751   1.456   3.792  14.179 -0.6311 -0.5580 -1.3853
14754TIP3   OH265752   0.319   3.902  15.752 -1.0243 -0.7211 -0.2442
14754TIP3    H165753   0.296   3.809  15.756 -2.5724 -0.3214  0.2755
14754TIP3    H265754   0.244   3.948  15.789 -0.3602  0.7659 -0.6764
14755TIP3   OH265755   1.115   0.183   2.278  0.1820 -0.2433 -0.8524
14755TIP3    H165756   1.193   0.239   2.275  0.8564 -1.1045  0.4121
14755TIP3    H265757   1.058   0.225   2.342 -0.0015 -0.1082 -1.1063
14756TIP3   OH265758   1.911   0.682   0.185  0.3536 -0.2155  0.0204
14756TIP3    H165759   1.874   0.596   0.163 -0.2272  0.4573 -1.6756
14756TIP3    H265760   1.835   0.739   0.196  0.6451 -0.3501  3.1775
14757TIP3   OH265761   0.445   6.333  14.175  0.2529 -0.0441 -0.6267
14757TIP3    H165762   0.399   6.250  14.186  3.7213 -2.4195 -3.1785
14757TIP3    H265763   0.502   6.339  14.252 -1.8781  1.3513  0.9055
14758TIP3   OH265764   5.415   5.378   2.124 -0.3080 -0.3936  0.3870
14758TIP3    H165765   5.508   5.377   2.149 -0.0773 -0.6678 -0.4866
14758TIP3    H265766   5.386   5.288   2.135 -0.0334 -0.6562 -0.9705
14759TIP3   OH265767   6.316   0.752  14.419  0.3999  0.1583 -0.1840
14759TIP3    H165768   6.402   0.788  14.442 -0.4783  1.5799  0.9342
14759TIP3    H265769   6.253   0.817  14.449 -1.1350 -1.3095 -0.1214
14760TIP3   OH265770   3.330   2.118   3.842 -0.1189  0.4014 -0.1123
14760TIP3    H165771   3.290   2.056   3.781 -1.2936  0.3348  0.7039
14760TIP3    H265772   3.261   2.135   3.907  1.4375 -0.2912  1.7511
14761TIP3   OH265773   2.731   0.147  12.997 -0.0483 -0.5824 -0.0026
14761TIP3    H165774   2.775   0.227  12.967  0.4409 -1.0557 -0.5619
14761TIP3    H265775   2.802   0.086  13.015 -0.4164 -0.8392  0.5910
14762TIP3   OH265776   0.234   1.861   4.942 -0.4787 -0.4923 -0.0970
14762TIP3    H165777   0.218   1.862   5.037 -0.9470  1.8338 -0.1770
14762TIP3    H265778   0.329   1.855   4.934 -0.4611 -1.1633  0.5101
14763TIP3   OH265779   3.581   6.615  11.644 -0.1180 -0.1481  0.2733
14763TIP3    H165780   3.549   6.526  11.630 -2.1164  0.3955  1.1234
14763TIP3    H265781   3.506   6.670  11.621  1.1274  1.3205 -0.3420
14764TIP3   OH265782   2.900   3.861   3.539 -0.7057  0.4189 -0.0124
14764TIP3    H165783   2.898   3.915   3.460  3.0413 -0.6098 -0.8633
14764TIP3    H265784   2.946   3.915   3.603 -0.8573 -0.0482  0.4909
14765TIP3   OH265785   5.594   4.731   6.025 -0.5393 -0.2071 -0.2723
14765TIP3    H165786   5.498   4.738   6.021 -0.5445 -0.7195 -1.0376
14765TIP3    H265787   5.614   4.737   6.119 -1.2903  0.3041 -0.1403
14766TIP3   OH265788   0.287   6.107   2.958  0.5532 -0.0217  0.4014
14766TIP3    H165789   0.372   6.073   2.986  0.8463 -0.9519 -1.5497
14766TIP3    H265790   0.280   6.193   3.000  2.7770  0.3891 -0.0331
14767TIP3   OH265791   4.361   6.229   4.595 -0.2983  0.2846 -0.2332
14767TIP3    H165792   4.272   6.263   4.602 -0.7289 -0.7898 -0.4164
14767TIP3    H265793   4.371   6.206   4.503 -0.1126 -0.3353 -0.0614
14768TIP3   OH265794   3.868   3.513   3.595  0.1074 -0.1291 -0.0660
14768TIP3    H165795   3.873   3.593   3.647 -1.7642  1.1343 -1.7747
14768TIP3    H265796   3.840   3.445   3.657  0.9202  0.7021  1.2154
14769TIP3   OH265797   0.315   0.768   2.100 -0.2595 -0.1527  0.0008
14769TIP3    H165798   0.361   0.829   2.042 -0.7565  1.3829  1.1841
14769TIP3    H265799   0.380   0.701   2.121  0.1879 -0.2217 -1.6056
14770TIP3   OH265800   2.986   1.665   1.815 -0.0900 -0.0026 -0.2113
14770TIP3    H165801   3.033   1.582   1.808  0.8303  0.5067 -0.1062
14770TIP3    H265802   3.026   1.709   1.890  1.2986  1.7288 -1.9288
14771TIP3   OH265803   3.575   5.184  15.831  0.3309  0.0668  0.1109
14771TIP3    H165804   3.525   5.260  15.863 -1.0014 -1.4649  1.7988
14771TIP3    H265805   3.520   5.146  15.763 -1.8305 -2.6809  3.2013
14772TIP3   OH265806   0.542   1.740  15.256 -0.7928  0.3065 -0.1638
14772TIP3    H165807   0.532   1.647  15.278 -0.8347 -0.1652 -2.0938
14772TIP3    H265808   0.624   1.745  15.208 -0.4690  1.3904  0.4847
14773TIP3   OH265809   3.737   0.876  12.721  0.1859  0.0094 -0.6117
14773TIP3    H165810   3.710   0.932  12.794  1.9075 -0.7745  0.6438
14773TIP3    H265811   3.699   0.918  12.644 -1.8606  0.7097  0.7442
14774TIP3   OH265812   3.756   3.555   2.892 -0.4137 -0.3929 -0.3262
14774TIP3    H165813   3.696   3.607   2.839 -0.5234 -2.2358 -2.0571
14774TIP3    H265814   3.746   3.590   2.981 -1.4182  1.6541 -1.2020
14775TIP3   OH265815   0.862   1.869  15.634 -0.5999 -0.0906  0.1713
14775TIP3    H165816   0.881   1.781  15.600  1.2340  0.5910 -0.6571
14775TIP3    H265817   0.841   1.921  15.557  1.6949  1.0020  0.2104
14776TIP3   OH265818   5.043   3.207  12.455 -0.0280 -0.3221 -0.2593
14776TIP3    H165819   4.976   3.143  12.433  0.3307 -1.0001  0.5862
14776TIP3    H265820   5.030   3.224  12.548  0.4103  0.2062 -0.2925
14777TIP3   OH265821   2.974   6.032   2.441  0.0803  0.0617 -0.8899
14777TIP3    H165822   3.017   6.110   2.475  1.1755 -1.3792  1.1788
14777TIP3    H265823   2.909   6.010   2.508  0.5916 -1.4252 -0.8570
14778TIP3   OH265824   5.655   0.219   1.343 -0.7811 -0.1048  0.1711
14778TIP3    H165825   5.562   0.197   1.336 -0.4404 -1.8843  0.9893
14778TIP3    H265826   5.658   0.286   1.411 -1.4127 -0.4590  0.5623
14779TIP3   OH265827   5.154   5.587  13.890  0.2888  0.2009  0.0641
14779TIP3    H165828   5.134   5.495  13.902 -1.6294  0.7567  1.2707
14779TIP3    H265829   5.229   5.604  13.948  0.9662 -0.6975 -0.5462
14780TIP3   OH265830   2.963   1.776   3.507 -0.2693 -0.4636 -0.5462
14780TIP3    H165831   2.921   1.855   3.473  0.0031  0.6811  1.7237
14780TIP3    H265832   3.056   1.788   3.489 -0.3365 -0.7370 -1.0956
14781TIP3   OH265833   4.576   6.585  17.204  0.3812  0.0767 -0.4056
14781TIP3    H165834   4.637   6.517  17.177  0.8324  0.3766 -0.1325
14781TIP3    H265835   4.574   6.579  17.299 -2.7242 -2.3198 -0.5350
14782TIP3   OH265836   6.805   0.710  16.488  0.2318 -0.1830  0.5975
14782TIP3    H165837   6.820   0.795  16.529  1.1369  0.1843 -0.4480
14782TIP3    H265838   6.712   0.710  16.465  0.1958  0.4628  0.7386
14783TIP3   OH265839   5.940   1.237  13.698 -0.1746  0.5739  0.0039
14783TIP3    H165840   5.954   1.146  13.724  1.2206  0.5026 -0.9597
14783TIP3    H265841   6.027   1.277  13.705 -1.1464  2.3995  2.5386
14784TIP3   OH265842   0.159   6.046  14.804 -0.1303  0.5568  0.6645
14784TIP3    H165843   0.201   6.109  14.861  0.9460  0.0853  0.3953
14784TIP3    H265844   0.217   5.970  14.804 -0.7757  0.0522 -0.0217
14785TIP3   OH265845   5.214   6.267   6.494  0.1409 -0.5307  0.7741
14785TIP3    H165846   5.261   6.207   6.553  0.0781  0.6248  2.0304
14785TIP3    H265847   5.246   6.354   6.519 -1.0071  0.0901  0.0968
14786TIP3   OH265848   3.665   6.449  15.348  0.0841  0.1806 -0.2157
14786TIP3    H165849   3.635   6.359  15.330 -0.3702  0.2864 -0.0009
14786TIP3    H265850   3.744   6.459  15.295 -0.8140  0.2291 -1.5868
14787TIP3   OH265851   4.226   1.780   6.043 -0.2222  0.3014  0.0195
14787TIP3    H165852   4.219   1.764   6.137 -1.4805  2.3460  0.3050
14787TIP3    H265853   4.162   1.850   6.026 -0.9207 -0.9293 -2.5762
14788TIP3   OH265854   4.907   2.047   2.444 -0.2247  0.3013  0.0177
14788TIP3    H165855   4.965   1.971   2.434  0.8258  1.0123  0.6175
14788TIP3    H265856   4.966   2.120   2.464 -1.3561  0.9827  0.9078
14789TIP3   OH265857   1.422   5.816   3.003  0.4525  0.2705 -0.0024
14789TIP3    H165858   1.483   5.885   2.975  0.8866  0.1026  0.5238
14789TIP3    H265859   1.397   5.772   2.922  0.7146  0.6005 -0.2651
14790TIP3   OH265860   2.299   2.292   4.897  0.4252 -0.2286 -0.0954
14790TIP3    H165861   2.318   2.346   4.974  0.0632 -0.2369  0.0013
14790TIP3    H265862   2.306   2.202   4.929  0.1532 -0.2313 -0.0413
14791TIP3   OH265863   5.617   1.988  15.312  0.0146 -0.5064  0.0286
14791TIP3    H165864   5.554   2.058  15.325  0.9409  0.7589 -2.1152
14791TIP3    H265865   5.607   1.961  15.221  0.7770 -2.0723  0.3752
14792TIP3   OH265866   2.009   4.981  11.970 -0.5575  0.0606 -0.7941
14792TIP3    H165867   1.958   5.042  11.918  0.9911  1.8050 -0.2966
14792TIP3    H265868   2.100   4.996  11.945  0.0033 -0.8126  0.6013
14793TIP3   OH265869   6.078   4.876   3.065  0.4909 -0.4040  0.5358
14793TIP3    H165870   6.127   4.894   2.984  1.8131 -0.3890  1.3328
14793TIP3    H265871   5.990   4.911   3.047  0.2679 -1.8971 -1.5166
14794TIP3   OH265872   4.372   2.058   0.939  0.9948  0.2079 -0.1506
14794TIP3    H165873   4.328   2.042   0.856  1.0839 -0.0572 -0.1497
14794TIP3    H265874   4.303   2.052   1.005  1.2217 -1.3914 -0.0375
14795TIP3   OH265875   1.970   0.478  15.903  0.1858 -0.7991  0.2843
14795TIP3    H165876   1.950   0.559  15.856  0.9663 -0.6977  0.1137
14795TIP3    H265877   1.998   0.507  15.990  0.3049 -0.8976  0.2780
14796TIP3   OH265878   5.496   4.290  16.705 -0.7066 -0.0049 -0.1932
14796TIP3    H165879   5.428   4.341  16.661  0.9347  1.5428 -1.0246
14796TIP3    H265880   5.449   4.218  16.747 -2.7499  0.5833 -1.3946
14797TIP3   OH265881   1.896   3.903   2.954 -0.5249 -0.2896 -0.0958
14797TIP3    H165882   1.901   3.997   2.974 -0.9526 -0.2982  0.0686
14797TIP3    H265883   1.934   3.860   3.031 -0.1347 -0.2430 -0.2630
14798TIP3   OH265884   3.896   5.178  16.606 -0.1159 -0.1712 -0.1708
14798TIP3    H165885   3.990   5.191  16.595 -0.1652  0.0406 -0.3294
14798TIP3    H265886   3.866   5.256  16.652  0.0640 -0.9763  1.3465
14799TIP3   OH265887   3.128   1.501  15.210 -0.5406  0.2304  0.0935
14799TIP3    H165888   3.077   1.452  15.146  1.1788 -1.4856 -0.0183
14799TIP3    H265889   3.125   1.592  15.179 -0.3405 -0.4510 -2.0171
14800TIP3   OH265890   4.055   1.595   2.248 -0.4462  0.0181  0.2452
14800TIP3    H165891   4.121   1.633   2.306 -0.9513  2.6082 -0.8442
14800TIP3    H265892   3.976   1.588   2.302 -0.0050 -0.7248  0.8117
14801TIP3   OH265893   6.171   4.590   3.910  0.5844  0.2040  0.0047
14801TIP3    H165894   6.232   4.662   3.929 -0.4738  1.0491  0.2621
14801TIP3    H265895   6.091   4.634   3.881 -0.4543 -0.8489  1.2661
14802TIP3   OH265896   1.258   5.064  10.655  0.6000  0.6584 -0.5315
14802TIP3    H165897   1.284   5.133  10.594  1.8888 -0.7265 -1.5778
14802TIP3    H265898   1.180   5.099  10.698  0.7538  2.4312 -1.6219
14803TIP3   OH265899   0.213   4.543  13.820  0.1681 -0.0449 -0.2243
14803TIP3    H165900   0.183   4.475  13.760 -1.5364  0.9777 -0.5705
14803TIP3    H265901   0.280   4.591  13.771 -0.0697 -0.2136 -0.7209
14804TIP3   OH265902   6.040   2.557   5.052  0.0223 -0.3362 -0.1977
14804TIP3    H165903   6.055   2.547   4.958 -1.5273  0.7676 -0.5756
14804TIP3    H265904   6.118   2.603   5.084  0.0390  0.3180 -1.1529
14805TIP3   OH265905   3.035   1.469  16.816 -0.3932  0.3894  0.1490
14805TIP3    H165906   2.990   1.550  16.842  0.8036  0.7949  0.9942
14805TIP3    H265907   2.983   1.399  16.855  0.3945  0.9048  2.1886
14806TIP3   OH265908   6.438   0.195  13.701  0.4027  0.3185  0.0309
14806TIP3    H165909   6.398   0.113  13.732  1.5515 -0.0955  0.4229
14806TIP3    H265910   6.431   0.254  13.776 -0.0650  0.4558 -0.1186
14807TIP3   OH265911   5.989   4.786  11.835 -0.2230 -0.0804  0.0335
14807TIP3    H165912   6.035   4.789  11.752 -2.9396  2.2456 -1.4730
14807TIP3    H265913   5.916   4.726  11.820 -1.2058  0.9820  0.4473
14808TIP3   OH265914   6.646   4.313   4.469 -0.5574 -0.3829 -0.2729
14808TIP3    H165915   6.672   4.386   4.412  0.4572 -0.7734 -0.3106
14808TIP3    H265916   6.660   4.346   4.557  3.1903 -1.6879 -0.3041
14809TIP3   OH265917   3.551   1.589   0.793 -0.3560  0.4224  0.3191
14809TIP3    H165918   3.592   1.626   0.871 -0.5441 -1.0362  1.1389
14809TIP3    H265919   3.463   1.565   0.821 -0.6232  0.4247 -0.5037
14810TIP3   OH265920   2.972   2.715   1.329 -0.6909 -0.3079 -0.5440
14810TIP3    H165921   3.067   2.719   1.325 -0.6609  0.7377  0.7895
14810TIP3    H265922   2.945   2.694   1.239  0.7531  0.1340 -1.0987
14811TIP3   OH265923   4.010   3.412  15.173  0.0658  0.5906 -0.1046
14811TIP3    H165924   3.973   3.491  15.210  0.7599  1.6965 -1.7119
14811TIP3    H265925   4.102   3.414  15.200 -0.0340  0.0575  0.2861
14812TIP3   OH265926   4.675   4.337   1.476  0.4437 -0.0197 -0.4707
14812TIP3    H165927   4.659   4.287   1.556  2.2675 -0.8412 -0.5972
14812TIP3    H265928   4.593   4.330   1.427 -0.3293 -0.4126  0.8226
14813TIP3   OH265929   0.887   6.442   3.001  0.5479  0.2813  0.4683
14813TIP3    H165930   0.892   6.374   2.934  0.8657  0.1482  0.6294
14813TIP3    H265931   0.874   6.523   2.952 -2.1128 -0.1625  0.3612
14814TIP3   OH265932   4.445   2.036  11.474 -0.3272  0.4508 -0.1123
14814TIP3    H165933   4.472   1.991  11.394 -2.6922  0.2885 -0.8533
14814TIP3    H265934   4.409   1.967  11.529  0.8992  0.6310  0.9495
14815TIP3   OH265935   4.170   3.855  12.393  0.1143 -0.0627 -0.1951
14815TIP3    H165936   4.160   3.819  12.305 -0.3589 -1.3233  0.3581
14815TIP3    H265937   4.261   3.837  12.416 -0.2556 -1.3865  0.2742
14816TIP3   OH265938   5.962   4.746  11.307  0.4251  0.3112 -0.3508
14816TIP3    H165939   6.026   4.680  11.279  0.0207  0.3315 -1.3402
14816TIP3    H265940   5.961   4.809  11.235  2.0579  2.3227  1.3227
14817TIP3   OH265941   5.783   6.227  15.061 -0.5375 -0.1728  0.0144
14817TIP3    H165942   5.769   6.322  15.060 -0.5740 -0.1786 -0.1928
14817TIP3    H265943   5.757   6.200  15.149  0.8036  0.1978  0.5303
14818TIP3   OH265944   1.420   4.294  13.203 -0.0976  0.6266  0.2272
14818TIP3    H165945   1.392   4.281  13.294  1.9526 -1.4503  0.5964
14818TIP3    H265946   1.378   4.222  13.155 -1.3827  1.8677 -0.5381
14819TIP3   OH265947   0.081   5.644   0.506  0.2344  0.0655  0.3453
14819TIP3    H165948   0.033   5.565   0.528  0.2409 -0.0181  0.0634
14819TIP3    H265949   0.173   5.616   0.501  0.1299 -0.1253 -0.7364
14820TIP3   OH265950   4.587   6.733   0.514  0.2499 -0.0685  0.0594
14820TIP3    H165951   4.594   6.644   0.481  1.4456  0.0114  0.0811
14820TIP3    H265952   4.575   6.722   0.609  2.3382 -0.1934  0.3490
14821TIP3   OH265953   1.799   1.127  12.169 -0.0927  0.0733 -0.2893
14821TIP3    H165954   1.811   1.221  12.184  1.6134  0.1197 -1.7686
14821TIP3    H265955   1.710   1.120  12.137 -1.0115  0.8977  1.9422
14822TIP3   OH265956   2.362   2.839   0.085 -0.3378 -0.4076 -0.7166
14822TIP3    H165957   2.446   2.868   0.050  0.4309 -0.5984  0.9187
14822TIP3    H265958   2.341   2.760   0.036  1.0104 -1.0032 -0.3546
14823TIP3   OH265959   0.622   0.954  17.160  0.2935 -0.1482  0.5100
14823TIP3    H165960   0.584   0.869  17.183  0.1128  0.2625  1.7659
14823TIP3    H265961   0.670   0.981  17.238  1.2130  0.4313 -0.2463
14824TIP3   OH265962   4.333   1.302   2.197 -0.0688  0.1665 -0.0636
14824TIP3    H165963   4.381   1.237   2.146  0.2018 -0.1853  0.6320
14824TIP3    H265964   4.401   1.356   2.237 -0.2988  1.0278 -0.8351
14825TIP3   OH265965   2.576   1.994  13.344  0.3080  0.5450  0.5160
14825TIP3    H165966   2.492   2.001  13.299  0.6061  0.4689 -0.0615
14825TIP3    H265967   2.554   1.965  13.432 -0.1917 -0.5591  0.0413
14826TIP3   OH265968   3.837   3.110  14.250 -0.0307  0.4357  0.5482
14826TIP3    H165969   3.832   3.014  14.245 -0.6038  0.4814  0.1972
14826TIP3    H265970   3.887   3.127  14.330  0.9253 -0.1718  0.0875
14827TIP3   OH265971   1.894   1.540   4.254  0.0214  0.4195 -0.2316
14827TIP3    H165972   1.878   1.623   4.298 -1.0850 -0.3270  0.8216
14827TIP3    H265973   1.989   1.535   4.246  0.1688  1.1690  0.9066
14828TIP3   OH265974   5.735   5.368   5.206  0.2863  0.1877  0.2723
14828TIP3    H165975   5.806   5.429   5.184 -0.1153  1.0475  1.3118
14828TIP3    H265976   5.752   5.342   5.296  0.1775 -0.8662 -0.0081
14829TIP3   OH265977   6.493   6.768  14.295 -0.2663  0.4355  0.6169
14829TIP3    H165978   6.482   6.676  14.273 -1.8738  0.6504  0.4641
14829TIP3    H265979   6.469   6.815  14.215  0.9270  0.9804  0.5645
14830TIP3   OH265980   0.596   1.605   4.025  0.2983 -0.1942 -0.0950
14830TIP3    H165981   0.571   1.694   4.052 -2.6192 -0.4614 -1.7239
14830TIP3    H265982   0.608   1.611   3.931  0.2525 -1.5123 -0.1886
14831TIP3   OH265983   4.433   4.842   0.078 -1.0045 -0.0098  0.6730
14831TIP3    H165984   4.507   4.889   0.118  1.1410 -3.4023  0.8702
14831TIP3    H265985   4.432   4.873  -0.012  1.1958 -0.4317  0.4632
14832TIP3   OH265986   2.341   4.428  13.468 -0.7913 -0.1512  0.0809
14832TIP3    H165987   2.270   4.482  13.505  0.0518  1.1520 -0.1715
14832TIP3    H265988   2.421   4.467  13.502  0.1400  2.2024 -4.3676
14833TIP3   OH265989   1.274   0.140  14.259 -0.3893 -0.1632  0.0959
14833TIP3    H165990   1.301   0.136  14.351 -1.3762  1.3305  0.4543
14833TIP3    H265991   1.298   0.228  14.231 -0.8082 -0.3489 -0.8626
14834TIP3   OH265992   0.641   6.223   5.628 -0.2331 -0.5034  0.1841
14834TIP3    H165993   0.546   6.219   5.638 -0.3317  0.5258 -0.2014
14834TIP3    H265994   0.674   6.240   5.716 -0.3950 -0.9857  0.3385
14835TIP3   OH265995   4.862   2.649   0.233 -0.6499  0.0237  0.3787
14835TIP3    H165996   4.930   2.582   0.231 -0.0832  0.6040 -0.8940
14835TIP3    H265997   4.895   2.717   0.174 -2.2642  0.3840 -0.1252
14836TIP3   OH265998   5.351   4.667  15.262 -0.4394  0.1414 -0.2341
14836TIP3    H165999   5.370   4.629  15.348 -0.1942  0.0364 -0.3332
14836TIP3    H266000   5.336   4.760  15.280 -0.3821  0.1225 -0.0784
14837TIP3   OH266001   1.555   1.352   5.869  0.3485  0.0720 -0.4906
14837TIP3    H166002   1.580   1.295   5.797 -0.5892 -0.2680 -0.5583
14837TIP3    H266003   1.535   1.436   5.828 -1.6135 -0.5348 -0.8235
14838TIP3   OH266004   1.338   6.063   3.507 -0.4434 -0.0417 -0.0251
14838TIP3    H166005   1.362   6.070   3.600 -1.1401  0.6347  0.1131
14838TIP3    H266006   1.421   6.072   3.460 -0.1252 -0.0750  0.5274
14839TIP3   OH266007   4.564   1.819  15.039 -0.2137  0.8406 -0.1183
14839TIP3    H166008   4.527   1.781  14.959  2.6915 -0.0752 -1.1007
14839TIP3    H266009   4.606   1.745  15.083  0.0620  1.7535  1.1744
14840TIP3   OH266010   1.056   2.592  14.046  0.0665  0.0054 -0.4061
14840TIP3    H166011   1.060   2.499  14.023 -2.8966 -0.5950  1.2163
14840TIP3    H266012   1.130   2.605  14.104  0.9996 -1.1373 -1.2967
14841TIP3   OH266013   6.379   0.686   0.599 -0.1455 -0.2826  0.2656
14841TIP3    H166014   6.429   0.701   0.679  0.9482  3.5695 -1.0248
14841TIP3    H266015   6.290   0.715   0.620 -0.4906 -1.6787  0.8051
14842TIP3   OH266016   6.568   0.773  11.454 -0.0756 -0.1938  0.6869
14842TIP3    H166017   6.585   0.812  11.368 -3.4977 -0.9628 -0.4210
14842TIP3    H266018   6.525   0.842  11.504  1.0846 -0.0379  1.4710
14843TIP3   OH266019   5.559   0.515  16.369 -0.6198 -0.2069  0.0614
14843TIP3    H166020   5.556   0.565  16.450 -0.6776 -0.4223  0.1923
14843TIP3    H266021   5.548   0.581  16.300  1.2586  0.2227  0.1382
14844TIP3   OH266022   4.012   3.788  12.592  0.6564 -0.3681 -0.2467
14844TIP3    H166023   3.959   3.868  12.591 -0.6255 -1.1791 -3.3611
14844TIP3    H266024   4.078   3.802  12.525  1.0918 -1.5061 -0.0593
14845TIP3   OH266025   3.021   4.164  17.025 -0.3222  0.2305  0.0444
14845TIP3    H166026   3.051   4.246  17.064  0.0883  0.2390 -0.2828
14845TIP3    H266027   3.097   4.131  16.977 -0.7732  0.1471 -0.6287
14846TIP3   OH266028   2.657   5.874   0.947  0.0843 -0.2442 -0.2030
14846TIP3    H166029   2.691   5.907   1.030  0.7400 -0.6286 -0.3168
14846TIP3    H266030   2.692   5.785   0.940  0.9182  0.1592 -1.3955
14847TIP3   OH266031   5.372   6.350  12.612  0.1717 -0.1400 -0.8780
14847TIP3    H166032   5.375   6.436  12.571 -2.1876  0.7444  0.6987
14847TIP3    H266033   5.442   6.352  12.678 -1.2885  1.4167  0.6672
14848TIP3   OH266034   3.873   3.239   4.736 -0.0608 -0.3626 -0.0692
14848TIP3    H166035   3.963   3.272   4.737 -0.8154  1.7951 -0.6528
14848TIP3    H266036   3.829   3.288   4.805 -1.4786  0.6398 -1.6557
14849TIP3   OH266037   4.972   6.154  11.243 -0.2780 -0.0639 -0.3526
14849TIP3    H166038   5.038   6.222  11.228  0.4012 -0.8207 -0.8583
14849TIP3    H266039   4.994   6.086  11.180 -0.8063 -0.8573  0.3167
14850TIP3   OH266040   3.113   3.657  12.186 -0.1450 -0.1588 -0.1524
14850TIP3    H166041   3.199   3.620  12.169 -0.8350 -1.2889 -1.2387
14850TIP3    H266042   3.063   3.586  12.226 -1.0056  0.0466 -0.8389
14851TIP3   OH266043   1.465   0.221  12.668  0.0984  0.0065  0.2204
14851TIP3    H166044   1.542   0.229  12.611 -0.6157  0.2627 -0.7209
14851TIP3    H266045   1.406   0.163  12.620 -0.7829  0.7439  0.4013
14852TIP3   OH266046   6.226   3.231   1.775  0.0925  0.1581  0.5274
14852TIP3    H166047   6.169   3.258   1.703  0.6297  0.4730  0.2160
14852TIP3    H266048   6.214   3.136   1.781  0.2444  0.0936 -0.1468
14853TIP3   OH266049   5.830   3.555   2.567  0.4963  0.3065  0.2867
14853TIP3    H166050   5.878   3.522   2.491 -1.6347 -0.1471 -0.9073
14853TIP3    H266051   5.897   3.570   2.634  2.6856  2.6820 -2.3482
14854TIP3   OH266052   3.637   5.991  15.875 -0.2569 -0.0669  0.0929
14854TIP3    H166053   3.682   5.988  15.791 -1.8597  1.4541 -0.8681
14854TIP3    H266054   3.549   5.958  15.857  0.3118 -2.7979  1.8905
14855TIP3   OH266055   6.255   0.758   3.659 -0.2002  0.5868  0.4308
14855TIP3    H166056   6.312   0.787   3.588 -0.6471  0.9099  0.1977
14855TIP3    H266057   6.292   0.675   3.688 -0.8034 -0.2251 -1.0920
14856TIP3   OH266058   1.890   2.869  11.688  0.1214 -0.0177  0.1284
14856TIP3    H166059   1.854   2.820  11.761 -1.0113  0.6505  0.0354
14856TIP3    H266060   1.813   2.900  11.640  0.8447 -0.9628 -1.6947
14857TIP3   OH266061   2.682   4.676  12.802  0.2239  0.2325  0.2670
14857TIP3    H166062   2.713   4.588  12.823  0.6752  0.2495 -0.3348
14857TIP3    H266063   2.587   4.669  12.804  0.2605 -0.2475  0.2977
14858TIP3   OH266064   1.213   2.645  12.770  0.4529 -0.2391 -0.2268
14858TIP3    H166065   1.127   2.668  12.735 -0.3593 -0.8597  1.3096
14858TIP3    H266066   1.251   2.728  12.797  0.2228  0.0008 -0.6255
14859TIP3   OH266067   0.979   0.407   4.953  0.1124 -0.1022 -0.0876
14859TIP3    H166068   1.007   0.319   4.978 -0.8503 -0.8946 -1.7496
14859TIP3    H266069   0.977   0.406   4.857 -0.5371  1.5232 -0.1148
14860TIP3   OH266070   3.329   2.763  13.557 -0.1238  0.1489 -0.3353
14860TIP3    H166071   3.366   2.678  13.533 -0.4321  0.0179 -0.3510
14860TIP3    H266072   3.240   2.743  13.585 -0.6452  0.6334 -1.6079
14861TIP3   OH266073   6.094   1.264  12.144  0.3084 -0.5329 -0.2445
14861TIP3    H166074   6.122   1.336  12.087  0.2765  0.9209  1.5608
14861TIP3    H266075   5.999   1.265  12.139  0.3375 -1.2606 -1.1818
14862TIP3   OH266076   1.909   0.906   4.510  0.3873 -0.1823  0.0464
14862TIP3    H166077   1.882   0.826   4.466  2.0560 -0.8116  0.1525
14862TIP3    H266078   1.866   0.976   4.460 -0.3816 -1.0772 -0.5685
14863TIP3   OH266079   1.372   3.385  11.611 -0.0204 -0.0427  0.0957
14863TIP3    H166080   1.374   3.291  11.593  0.4267 -0.0612  0.2448
14863TIP3    H266081   1.430   3.423  11.545 -2.3958  0.4246 -1.7751
14864TIP3   OH266082   4.428   0.302   0.629  0.3627 -0.0582  0.7401
14864TIP3    H166083   4.368   0.308   0.703  0.0176  0.6532  0.4113
14864TIP3    H266084   4.397   0.227   0.578  0.4710 -0.4143  1.1898
14865TIP3   OH266085   2.777   0.713   1.408  0.0629 -0.1202  0.2800
14865TIP3    H166086   2.833   0.790   1.418 -0.4622  0.3733 -0.5265
14865TIP3    H266087   2.834   0.639   1.428  0.1681  0.5567  2.5967
14866TIP3   OH266088   5.374   5.306  13.019 -0.1030 -0.3241 -0.6964
14866TIP3    H166089   5.447   5.256  13.056  1.1200  0.7484 -1.6262
14866TIP3    H266090   5.328   5.243  12.963  0.2713 -0.9325 -0.3233
14867TIP3   OH266091   0.778   3.696  15.089  0.3238 -0.0759  0.5794
14867TIP3    H166092   0.729   3.614  15.101 -0.8014  0.4966 -0.0671
14867TIP3    H266093   0.840   3.697  15.162  1.5417 -2.3511 -0.3655
14868TIP3   OH266094   3.237   2.680  16.580  0.2026 -0.0431 -0.5847
14868TIP3    H166095   3.330   2.699  16.574  0.0959  1.1623  1.1602
14868TIP3    H266096   3.198   2.728  16.506  0.6350  1.8608  0.3954
14869TIP3   OH266097   0.710   5.372  13.458 -0.0662  0.3327 -1.0726
14869TIP3    H166098   0.768   5.434  13.504  1.6221 -0.9130 -1.4659
14869TIP3    H266099   0.692   5.303  13.522 -1.8711  1.1572 -0.6652
14870TIP3   OH266100   4.177   1.419  11.395 -0.3878 -0.0930 -0.0022
14870TIP3    H166101   4.093   1.464  11.393 -0.2420  0.1640 -0.5475
14870TIP3    H266102   4.170   1.356  11.467 -0.8777  0.2470  0.2440
14871TIP3   OH266103   1.093   0.309   2.770 -0.5945  0.3353  0.2515
14871TIP3    H166104   1.029   0.259   2.721  0.4605  0.7932 -1.6708
14871TIP3    H266105   1.100   0.264   2.854 -1.3514 -1.3636 -0.5679
14872TIP3   OH266106   1.386   0.029  16.734 -0.7792  0.2097 -0.0850
14872TIP3    H166107   1.358  -0.000  16.647  1.5827  1.3728 -1.2838
14872TIP3    H266108   1.477  -0.002  16.742 -1.3078 -0.7971  2.4056
14873TIP3   OH266109   4.278   1.705  13.377 -0.1667  0.1021 -0.3989
14873TIP3    H166110   4.360   1.753  13.367 -0.2764  0.8008  1.8220
14873TIP3    H266111   4.214   1.754  13.326 -0.7202  3.5184  3.3666
14874TIP3   OH266112   1.852   5.821  16.797 -0.0598  0.1319 -0.1492
14874TIP3    H166113   1.825   5.743  16.749  0.4175 -0.0123 -0.1804
14874TIP3    H266114   1.776   5.843  16.851 -0.7674  0.5720 -1.3033
14875TIP3   OH266115   5.269   3.676  14.682  0.0740  0.1178 -0.1068
14875TIP3    H166116   5.175   3.667  14.694 -0.1873  2.9299  0.2526
14875TIP3    H266117   5.282   3.672  14.587 -0.3316 -0.8227 -0.1257
14876TIP3   OH266118   1.521   6.489   2.084  0.1574  0.3642 -0.1916
14876TIP3    H166119   1.466   6.559   2.049  0.3374  1.5101  1.7377
14876TIP3    H266120   1.590   6.535   2.132  1.5511 -1.1013 -0.7640
14877TIP3   OH266121   5.637   0.972   6.350 -0.4511 -0.1697 -0.1674
14877TIP3    H166122   5.613   1.064   6.339 -0.6776 -0.3266 -1.0102
14877TIP3    H266123   5.724   0.974   6.390 -1.8417  0.4116  3.0371
14878TIP3   OH266124   4.756   0.482  14.149 -0.7917  0.3124 -0.0455
14878TIP3    H166125   4.768   0.531  14.231 -1.2314  0.1963  0.0852
14878TIP3    H266126   4.662   0.470  14.141 -0.6447 -1.1900  0.3144
14879TIP3   OH266127   3.145   6.582  16.265  0.4470 -0.2208 -0.1153
14879TIP3    H166128   3.225   6.529  16.266  1.1949  0.8990  0.1787
14879TIP3    H266129   3.091   6.544  16.335  1.4025  0.0320  0.7782
14880TIP3   OH266130   6.481   2.731  11.493 -0.6170 -0.1178 -0.1410
14880TIP3    H166131   6.408   2.792  11.490 -0.0409  0.6819  1.5563
14880TIP3    H266132   6.442   2.649  11.526 -1.5093 -0.9133 -3.0055
14881TIP3   OH266133   4.060   1.725  11.356 -0.3482  0.4413 -0.2740
14881TIP3    H166134   4.146   1.747  11.321 -0.5667 -0.4552 -1.4244
14881TIP3    H266135   4.001   1.790  11.316 -0.3668  0.3364 -0.4221
14882TIP3   OH266136   4.369   5.393  12.889 -0.6088 -0.0615  0.1457
14882TIP3    H166137   4.305   5.432  12.949  1.2801  0.8245  1.6597
14882TIP3    H266138   4.360   5.299  12.901 -1.1352  0.0806  0.8731
14883TIP3   OH266139   2.770   2.081  10.619 -0.3142 -0.2811 -0.2389
14883TIP3    H166140   2.710   2.130  10.562 -0.1498  1.7426  1.2544
14883TIP3    H266141   2.713   2.032  10.677 -0.5980  2.0124  1.4945
14884TIP3   OH266142   4.715   6.759   4.939 -0.0671  0.0600 -0.4755
14884TIP3    H166143   4.716   6.806   4.855 -0.1645  0.1417 -0.4310
14884TIP3    H266144   4.693   6.669   4.916 -2.9266  0.6475 -0.2544
14885TIP3   OH266145   2.730   5.566   2.578 -0.2700 -0.1611  0.2802
14885TIP3    H166146   2.797   5.629   2.604  0.1485 -0.0696 -0.9638
14885TIP3    H266147   2.709   5.518   2.658  0.6989  0.3495  0.8514
14886TIP3   OH266148   5.512   6.623   1.522  0.1275  0.0301 -0.4579
14886TIP3    H166149   5.450   6.612   1.594  1.4532 -0.5955  0.5885
14886TIP3    H266150   5.479   6.699   1.474 -1.1696  0.0036  0.3696
14887TIP3   OH266151   3.560   3.428  17.046 -0.4222 -0.1698  0.3001
14887TIP3    H166152   3.491   3.456  16.986  1.2020  1.8094 -0.6795
14887TIP3    H266153   3.548   3.333  17.054 -0.8693 -0.4273 -2.8754
14888TIP3   OH266154   0.012   3.591  12.342 -0.0428 -0.3432  0.5781
14888TIP3    H166155  -0.023   3.516  12.390  0.9810  0.5480  2.8000
14888TIP3    H266156  -0.007   3.667  12.398 -2.6919  1.3434 -2.4557
14889TIP3   OH266157   3.296   1.282  11.705 -0.7192 -0.0390 -0.5666
14889TIP3    H166158   3.295   1.192  11.671  0.2100 -0.4735  0.5371
14889TIP3    H266159   3.228   1.283  11.772 -0.4578 -0.0323 -0.3001
14890TIP3   OH266160   3.698   4.531   2.328  0.4486 -0.3691 -0.5138
14890TIP3    H166161   3.734   4.490   2.407 -1.0947 -0.5827  0.1065
14890TIP3    H266162   3.605   4.507   2.330 -0.4468  2.9413 -0.2749
14891TIP3   OH266163   3.079   3.907   3.899  0.1626  0.1276 -0.3248
14891TIP3    H166164   3.111   3.981   3.846 -1.3821  0.3398 -0.9921
14891TIP3    H266165   3.009   3.945   3.953 -0.2696 -0.7323 -0.2742
14892TIP3   OH266166   0.023   2.500  11.667  0.1576 -0.6109  0.5127
14892TIP3    H166167   0.064   2.582  11.692 -1.1707 -0.5691  2.7162
14892TIP3    H266168  -0.071   2.515  11.681 -0.3385 -1.6934 -1.4544
14893TIP3   OH266169   5.039   0.887  16.925 -0.7803  0.0568  0.4173
14893TIP3    H166170   5.082   0.822  16.870  0.8033  2.9989 -1.9394
14893TIP3    H266171   4.958   0.909  16.879 -0.1015  1.5491 -0.1008
14894TIP3   OH266172   2.280   3.000   5.780  0.4526 -0.4090  0.1544
14894TIP3    H166173   2.282   3.091   5.750  3.0778 -0.6625 -0.6130
14894TIP3    H266174   2.287   3.006   5.875  1.5846  0.1723  0.0396
14895TIP3   OH266175   5.438   4.641   4.638  0.4102 -0.0614 -0.4645
14895TIP3    H166176   5.422   4.698   4.713  1.2178 -0.5403  0.0689
14895TIP3    H266177   5.427   4.552   4.672 -1.3062 -0.2399 -1.3962
14896TIP3   OH266178   5.066   5.088   3.667  0.1030  0.1617 -0.1690
14896TIP3    H166179   5.004   5.160   3.654 -0.5218 -0.6136 -1.5951
14896TIP3    H266180   5.091   5.094   3.759 -2.0148  0.5338  0.3979
14897TIP3   OH266181   3.468   3.454  11.379 -0.0409 -0.4104  0.3432
14897TIP3    H166182   3.493   3.486  11.466  1.7089 -1.3172  0.2018
14897TIP3    H266183   3.548   3.460  11.327 -1.1219  0.3382 -1.2966
14898TIP3   OH266184   4.998   2.679   4.228 -0.2963  0.1493 -0.1778
14898TIP3    H166185   5.005   2.701   4.135 -0.9205 -0.6915 -0.4247
14898TIP3    H266186   5.084   2.644   4.250 -0.8656 -1.8134 -1.0141
14899TIP3   OH266187   3.692   5.702  14.657 -0.1068  0.4577  0.0287
14899TIP3    H166188   3.627   5.648  14.612  0.8663 -1.5681  0.9505
14899TIP3    H266189   3.668   5.792  14.636 -1.0925 -0.3572 -2.5287
14900TIP3   OH266190   2.074   6.048   2.326  0.1483  0.4030  0.1322
14900TIP3    H166191   1.985   6.076   2.351  0.4847  1.2080  0.4407
14900TIP3    H266192   2.112   6.016   2.408 -0.3322 -1.2351 -0.2744
14901TIP3   OH266193   6.741   2.018   0.746  0.3086  0.5322  0.0700
14901TIP3    H166194   6.688   1.952   0.790  0.7914  0.3182  0.3364
14901TIP3    H266195   6.742   2.093   0.806 -1.6182  1.4126 -0.9740
14902TIP3   OH266196   0.008   3.858   0.582 -0.2361  0.9866  0.1636
14902TIP3    H166197   0.049   3.778   0.549  0.3815  0.8783  1.1689
14902TIP3    H266198  -0.068   3.871   0.526  1.7306  1.7794 -2.4264
14903TIP3   OH266199   2.970   4.669   1.718  0.1417 -0.2642 -0.5500
14903TIP3    H166200   2.961   4.749   1.770 -0.3022  0.9249 -2.4370
14903TIP3    H266201   3.047   4.626   1.755  1.2892  1.7790 -0.4946
14904TIP3   OH266202   1.071   2.141  16.076 -0.4604 -0.5876  0.0289
14904TIP3    H166203   1.143   2.185  16.121  0.9879 -2.2202 -0.6540
14904TIP3    H266204   1.070   2.180  15.989 -1.5233  0.6374  0.5663
14905TIP3   OH266205   0.700   1.993   5.773 -0.5516  0.4871  0.2878
14905TIP3    H166206   0.698   1.899   5.754  0.3598  0.5997 -0.3900
14905TIP3    H266207   0.730   1.999   5.864  1.9117  0.1925 -0.4534
14906TIP3   OH266208   4.445   5.642  15.630 -0.1644  0.1128 -0.5505
14906TIP3    H166209   4.394   5.597  15.563 -0.7030  1.4901 -1.0650
14906TIP3    H266210   4.421   5.734  15.622  1.1432  0.5449  0.3180
14907TIP3   OH266211   3.777   1.996   0.957  0.3939  0.5805 -0.1806
14907TIP3    H166212   3.864   2.019   0.925  0.3618  0.0012 -0.7065
14907TIP3    H266213   3.753   2.067   1.016  1.7341  0.1435  0.9090
14908TIP3   OH266214   2.665   2.794  11.553 -0.0113  0.2470 -0.0634
14908TIP3    H166215   2.711   2.778  11.635 -2.2654  0.0232  1.1663
14908TIP3    H266216   2.680   2.887  11.535 -0.6329  0.6276  1.3169
14909TIP3   OH266217   4.397   5.303  11.558  0.2669  0.6362  0.1508
14909TIP3    H166218   4.354   5.385  11.581 -1.4260 -0.5291  1.2782
14909TIP3    H266219   4.426   5.315  11.468 -1.4418  1.8830 -0.2545
14910TIP3   OH266220   3.241   2.761  16.854  0.0061  0.5529  0.3029
14910TIP3    H166221   3.205   2.697  16.793 -0.3092  0.3905  0.6563
14910TIP3    H266222   3.271   2.833  16.799 -2.3198  1.4209  0.0893
14911TIP3   OH266223   3.311   3.423  14.047 -0.0653 -0.1860  0.2059
14911TIP3    H166224   3.221   3.453  14.039  0.0414 -0.4226 -2.0378
14911TIP3    H266225   3.364   3.493  14.009  0.8084  0.4136  2.4414
14912TIP3   OH266226   6.366   3.619  13.863  0.1963 -0.8389  0.1090
14912TIP3    H166227   6.417   3.640  13.941 -0.0988 -2.6132  0.8061
14912TIP3    H266228   6.417   3.656  13.791  1.3036 -0.5919  0.9943
14913TIP3   OH266229   3.132   3.624  17.163  0.3009  0.1490  0.3440
14913TIP3    H166230   3.163   3.653  17.249 -0.0687  1.6732 -0.0230
14913TIP3    H266231   3.174   3.540  17.150 -0.7165 -0.7894  2.6507
14914TIP3   OH266232   1.103   4.506   5.220 -0.4816 -0.2286  0.1613
14914TIP3    H166233   1.117   4.579   5.279  1.1676 -0.4737  0.1139
14914TIP3    H266234   1.035   4.453   5.261  0.0463  0.0576  1.4209
14915TIP3   OH266235   3.490   2.986   1.929 -0.5529 -0.3392 -0.2508
14915TIP3    H166236   3.506   2.941   2.013 -1.2029  1.8918  1.1107
14915TIP3    H266237   3.435   2.926   1.880  1.0351 -2.3307  0.3186
14916TIP3   OH266238   1.306   4.881  10.862 -0.3124 -0.0961 -0.3225
14916TIP3    H166239   1.278   4.954  10.805 -0.5612  0.4102  0.4442
14916TIP3    H266240   1.288   4.803  10.810 -4.3976  0.1201  0.5970
14917TIP3   OH266241   4.020   1.926  11.121 -0.1069  0.3891  0.3410
14917TIP3    H166242   4.024   1.831  11.107  1.1212  0.7060 -1.6286
14917TIP3    H266243   3.931   1.950  11.096 -0.6823 -0.3526  1.6327
14918TIP3   OH266244   2.425   4.575   4.257  0.2152 -0.2344  0.1947
14918TIP3    H166245   2.451   4.498   4.307 -0.5708 -0.1304  0.7691
14918TIP3    H266246   2.401   4.540   4.170 -0.8716 -0.7433  0.6854
14919TIP3   OH266247   2.331   4.189   2.856  0.2136  0.3206 -0.2409
14919TIP3    H166248   2.353   4.219   2.768 -1.8936  0.2500 -0.8234
14919TIP3    H266249   2.256   4.242   2.882 -0.5982 -1.1846  0.5970
14920TIP3   OH266250   2.786   0.793   4.477 -0.5393  0.4128  0.2117
14920TIP3    H166251   2.794   0.858   4.408 -1.9194  0.8047  0.3990
14920TIP3    H266252   2.778   0.709   4.431  0.0341  0.5006 -0.0556
14921TIP3   OH266253   5.921   0.009  13.553  0.5251 -0.5688  0.5742
14921TIP3    H166254   5.874   0.087  13.583  1.7139 -0.3123  1.8261
14921TIP3    H266255   5.878  -0.064  13.599 -0.3759 -0.6331 -0.3496
14922TIP3   OH266256   3.953   1.092  16.223  0.4745 -0.4478  0.2813
14922TIP3    H166257   3.945   1.185  16.245 -1.0763 -0.5942  0.4356
14922TIP3    H266258   4.040   1.067  16.252  1.2831  1.2020 -0.6788
14923TIP3   OH266259   4.481   4.717   1.722  0.4210  0.1125  0.4195
14923TIP3    H166260   4.514   4.642   1.771  1.0185  0.3831  0.4303
14923TIP3    H266261   4.483   4.688   1.630 -3.4320 -1.4592  0.7453
14924TIP3   OH266262   0.501   1.299  12.253 -0.1886 -0.1101  0.2700
14924TIP3    H166263   0.559   1.267  12.184  1.0789 -0.4622  1.4769
14924TIP3    H266264   0.444   1.225  12.273  0.2044 -0.3776  0.4020
14925TIP3   OH266265   2.019   0.268   0.706  0.1488  0.5638 -0.4871
14925TIP3    H166266   2.021   0.360   0.731  0.9412  0.2342  0.6808
14925TIP3    H266267   1.942   0.232   0.752  0.6527  0.3285  0.1749
14926TIP3   OH266268   3.953   1.924   2.466 -0.4294  0.0997  0.6461
14926TIP3    H166269   3.928   2.012   2.439 -1.0719 -0.4590 -0.6195
14926TIP3    H266270   4.047   1.930   2.481 -0.2686  0.7322 -0.5491
14927TIP3   OH266271   3.975   0.966   0.836  0.1335 -0.3001 -0.5396
14927TIP3    H166272   4.017   0.950   0.751  0.6922  1.4603 -0.6243
14927TIP3    H266273   4.046   0.953   0.900  0.7007  2.0935 -0.6393
14928TIP3   OH266274   2.319   0.775   0.741 -0.4967  0.1984  0.0879
14928TIP3    H166275   2.228   0.804   0.747 -0.3083  1.3669 -2.2200
14928TIP3    H266276   2.340   0.780   0.648  2.2670  1.0366  0.7103
14929TIP3   OH266277   1.105   2.914  13.059 -0.1683 -0.6845  0.0161
14929TIP3    H166278   1.021   2.959  13.050 -0.0332 -0.1036  1.4773
14929TIP3    H266279   1.163   2.979  13.097  0.4909 -1.5712  0.5411
14930TIP3   OH266280   0.128   2.306   2.220 -0.2519 -0.0664  0.0990
14930TIP3    H166281   0.073   2.347   2.153  0.6853  0.1411 -0.5591
14930TIP3    H266282   0.100   2.346   2.302 -0.8409  0.2904 -0.2747
14931TIP3   OH266283   6.691   2.115   6.514  0.4122  0.4189 -0.1334
14931TIP3    H166284   6.656   2.199   6.544 -3.5183 -0.9598 -0.6400
14931TIP3    H266285   6.707   2.066   6.595  2.7085  1.5789  0.1627
14932TIP3   OH266286   5.553   5.214   0.447  0.4519 -0.2151  0.0889
14932TIP3    H166287   5.589   5.222   0.536  2.5553  0.0893 -0.7483
14932TIP3    H266288   5.534   5.304   0.421  0.0793 -0.2798  0.1374
14933TIP3   OH266289   0.805   1.135  15.206 -0.0976  0.0660  0.8698
14933TIP3    H166290   0.819   1.066  15.271 -3.7926  0.4808  2.2456
14933TIP3    H266291   0.886   1.186  15.206  0.9804 -1.5963  3.1524
14934TIP3   OH266292   3.669   4.536  14.281  0.7351  0.1303 -0.6694
14934TIP3    H166293   3.592   4.520  14.227 -1.3139  1.8870  1.6744
14934TIP3    H266294   3.708   4.616  14.246 -1.3903  2.0680  1.2284
14935TIP3   OH266295   1.220   4.967  11.103 -0.2616  0.3228 -0.3449
14935TIP3    H166296   1.149   5.020  11.068 -0.7535 -0.1111 -0.0063
14935TIP3    H266297   1.239   4.903  11.034  0.7823  1.3451 -1.0309
14936TIP3   OH266298   5.718   5.929  17.241  0.1378 -0.0903 -0.4703
14936TIP3    H166299   5.688   5.998  17.301  0.1617 -0.3423 -0.1661
14936TIP3    H266300   5.776   5.875  17.294 -1.1811 -1.3061 -0.2531
14937TIP3   OH266301   0.266   5.052   4.843  0.1445  0.3483  0.5745
14937TIP3    H166302   0.226   5.058   4.929  1.0219 -0.8967  1.0836
14937TIP3    H266303   0.351   5.010   4.858  0.9751  1.5079 -0.6883
14938TIP3   OH266304   5.417   6.188   4.369  0.0708  0.3358 -0.3728
14938TIP3    H166305   5.457   6.241   4.437 -0.1739 -0.8088  0.6895
14938TIP3    H266306   5.361   6.127   4.417 -1.0932  0.3556 -1.6862
14939TIP3   OH266307   1.821   0.544   2.913 -0.0515  0.3265  0.3550
14939TIP3    H166308   1.783   0.480   2.973 -0.5532  0.8630  0.6256
14939TIP3    H266309   1.794   0.516   2.826  0.3248 -0.2208  0.4167
14940TIP3   OH266310   4.264   6.781  13.338  0.0465  0.5382 -0.2849
14940TIP3    H166311   4.239   6.739  13.256 -1.4219 -0.8657  0.8505
14940TIP3    H266312   4.186   6.829  13.366  0.6652  1.3456  0.0799
14941TIP3   OH266313   1.683   3.130   5.504  0.2234 -0.0119 -0.1250
14941TIP3    H166314   1.665   3.222   5.522 -0.6510 -0.4890  1.4938
14941TIP3    H266315   1.779   3.124   5.505  0.3334  1.1489 -1.7403
14942TIP3   OH266316   1.449   3.077   4.329 -0.1695 -0.1055  0.2129
14942TIP3    H166317   1.428   2.995   4.374 -0.1446  0.3689  1.1010
14942TIP3    H266318   1.544   3.078   4.324 -0.1964 -0.4484 -0.4031
14943TIP3   OH266319   1.534   1.544   4.474  0.1857  0.3032  0.0859
14943TIP3    H166320   1.450   1.560   4.517  0.6754  0.5875  0.9459
14943TIP3    H266321   1.579   1.629   4.477  0.8140 -0.0337  0.3186
14944TIP3   OH266322   0.381   1.880   6.199  0.1213  0.3451 -0.5373
14944TIP3    H166323   0.337   1.965   6.199 -1.5834 -0.5014  0.6133
14944TIP3    H266324   0.310   1.816   6.191  1.2103 -1.0340  0.4831
14945TIP3   OH266325   2.225   2.467  11.698  0.0696  0.0276 -1.0255
14945TIP3    H166326   2.165   2.540  11.684 -0.4392 -0.2859 -0.5222
14945TIP3    H266327   2.292   2.477  11.631 -1.0753 -0.1652 -2.2206
14946TIP3   OH266328   6.654   0.219   5.369  0.0188 -0.2582 -0.1002
14946TIP3    H166329   6.663   0.204   5.463 -0.4710  0.1799  0.0184
14946TIP3    H266330   6.657   0.314   5.360 -0.2756 -0.2875 -0.4905
14947TIP3   OH266331   6.554   6.295   3.454 -0.4095  0.2551  0.3379
14947TIP3    H166332   6.472   6.297   3.404 -0.3606  1.6703  0.3069
14947TIP3    H266333   6.608   6.230   3.408 -1.9914 -1.6524  1.1374
14948TIP3   OH266334   3.301   4.257  13.625 -0.0061 -0.3926 -0.0804
14948TIP3    H166335   3.336   4.345  13.644 -1.7490  0.9443 -2.7382
14948TIP3    H266336   3.224   4.249  13.681 -0.0907 -0.0570 -0.1480
14949TIP3   OH266337   6.654   2.642  15.363 -0.1205  0.1926  0.0962
14949TIP3    H166338   6.611   2.561  15.388  0.4743 -0.1558 -0.0058
14949TIP3    H266339   6.591   2.711  15.385 -0.4855 -0.2709  0.4937
14950TIP3   OH266340   5.472   5.272  11.603 -0.5814  0.0627 -0.0405
14950TIP3    H166341   5.416   5.197  11.586 -1.6940  0.5327  1.4586
14950TIP3    H266342   5.547   5.236  11.651 -0.6058 -0.2476 -0.2344
14951TIP3   OH266343   5.063   3.145   4.656  0.0861 -0.0875  0.0572
14951TIP3    H166344   5.108   3.221   4.693  1.8500 -1.2590  0.3704
14951TIP3    H266345   4.978   3.144   4.701 -0.3207  2.1689 -0.5642
14952TIP3   OH266346   4.879   4.614  12.371  0.1608  0.1530 -0.2004
14952TIP3    H166347   4.896   4.536  12.424  0.9982  0.3757 -0.1422
14952TIP3    H266348   4.935   4.604  12.295  0.1131  0.5961 -0.2932
14953TIP3   OH266349   3.522   5.304  11.716  0.5601 -0.4308 -0.0555
14953TIP3    H166350   3.533   5.357  11.795 -0.6265 -0.0019 -0.1669
14953TIP3    H266351   3.545   5.215  11.742 -0.7250 -0.4552  1.0112
14954TIP3   OH266352   3.854   3.552   0.013 -0.0149 -0.1987  0.5888
14954TIP3    H166353   3.885   3.628  -0.037 -1.3680  0.0411  0.0930
14954TIP3    H266354   3.931   3.524   0.063  0.7308  0.9801  0.1435
14955TIP3   OH266355   6.030   6.329  13.923  0.0781 -0.7079  0.0995
14955TIP3    H166356   6.080   6.350  13.844  1.5952  0.3791  1.3191
14955TIP3    H266357   5.957   6.391  13.921 -0.9816 -1.9845 -1.4419
14956TIP3   OH266358   3.669   2.051  12.923  0.9318  0.0082  0.4060
14956TIP3    H166359   3.734   1.982  12.915 -0.1160 -1.0526  0.8163
14956TIP3    H266360   3.636   2.044  13.012  0.2120  0.4754  0.1856
14957TIP3   OH266361   4.550   6.253   4.109  0.5105  0.7316 -0.2843
14957TIP3    H166362   4.479   6.293   4.158  0.3733 -1.9889  1.8505
14957TIP3    H266363   4.629   6.277   4.157  0.5904 -0.0798 -0.0054
14958TIP3   OH266364   3.272   0.997  11.632 -0.3436  0.5768 -0.5185
14958TIP3    H166365   3.256   0.904  11.646  0.9918  0.4750  0.4986
14958TIP3    H266366   3.195   1.029  11.584 -1.0333 -0.9338 -0.4257
14959TIP3   OH266367   2.094   2.692   4.458  0.0325 -0.0661  0.2410
14959TIP3    H166368   2.147   2.697   4.537 -0.9445  0.5292  0.8680
14959TIP3    H266369   2.006   2.715   4.487 -0.3204  0.2122 -1.0326
14960TIP3   OH266370   1.848   6.387   3.574  0.3310 -0.3270  0.3779
14960TIP3    H166371   1.765   6.419   3.608  0.2233 -0.7003  0.4652
14960TIP3    H266372   1.855   6.297   3.607  0.4938 -0.4962 -0.1094
14961TIP3   OH266373   1.556   3.455   3.362 -0.6556 -0.2373 -0.0505
14961TIP3    H166374   1.596   3.389   3.305 -0.9666 -0.5447  0.0887
14961TIP3    H266375   1.625   3.520   3.375 -0.5203 -0.2583 -0.6294
14962TIP3   OH266376   6.247   2.997   5.474 -0.1442 -0.0103 -0.0577
14962TIP3    H166377   6.257   2.926   5.539 -2.0720 -1.1003 -0.9193
14962TIP3    H266378   6.337   3.024   5.455  0.6565 -2.3123  0.2244
14963TIP3   OH266379   1.933   1.458   0.195 -0.1116  0.1413  0.1704
14963TIP3    H166380   1.926   1.444   0.101 -0.5688  0.3182  0.1765
14963TIP3    H266381   2.027   1.472   0.210  0.0056 -0.2153 -0.2083
14964TIP3   OH266382   5.547   0.636   0.610  0.0544 -0.2263 -0.0428
14964TIP3    H166383   5.629   0.673   0.577 -0.9148  1.5538 -0.4950
14964TIP3    H266384   5.530   0.562   0.551  0.9283 -0.1353 -0.4211
14965TIP3   OH266385   1.756   1.159  14.549 -0.9575 -0.4416  0.1710
14965TIP3    H166386   1.684   1.183  14.606 -0.0320  2.2124  0.2561
14965TIP3    H266387   1.834   1.168  14.603 -0.3009 -0.5596 -0.7385
14966TIP3   OH266388   0.908   6.423   5.553  0.2880 -0.1683 -0.3205
14966TIP3    H166389   0.851   6.364   5.602  0.7951  1.0863  1.8663
14966TIP3    H266390   0.851   6.494   5.525 -0.1288 -1.2058 -2.1079
14967TIP3   OH266391   2.058   6.754   0.980  0.3843 -0.4272  0.3525
14967TIP3    H166392   2.098   6.837   0.952  2.8593 -2.4709 -2.5004
14967TIP3    H266393   2.030   6.712   0.899 -0.3686 -2.6211  1.7100
14968TIP3   OH266394   6.760   0.393   1.767  0.0403 -0.5371  0.7935
14968TIP3    H166395   6.741   0.439   1.849  2.3832  0.9881  0.5273
14968TIP3    H266396   6.840   0.344   1.785 -0.3108 -1.4531 -0.1119
14969TIP3   OH266397   1.654   1.184   1.787 -0.7159  0.2287  0.1042
14969TIP3    H166398   1.733   1.197   1.840  0.2343 -0.9880 -0.9949
14969TIP3    H266399   1.609   1.111   1.828 -1.6227  1.3223  1.1073
14970TIP3   OH266400   1.182   2.694  14.994  0.3210 -0.4453 -0.1365
14970TIP3    H166401   1.087   2.684  14.988  0.2072  0.1512  0.5837
14970TIP3    H266402   1.217   2.636  14.927 -0.5659 -0.4883 -0.5595
14971TIP3   OH266403   6.767   2.606   5.413  0.2153  0.3675 -0.3086
14971TIP3    H166404   6.742   2.695   5.386 -1.1494  0.0074 -0.2435
14971TIP3    H266405   6.721   2.593   5.496 -0.8527 -0.9851 -1.1000
14972TIP3   OH266406   3.615   3.819   0.428  0.0173  0.2717  0.2942
14972TIP3    H166407   3.691   3.799   0.482  0.1120 -3.1239 -0.9718
14972TIP3    H266408   3.610   3.746   0.366 -2.5397  1.9341 -1.5440
14973TIP3   OH266409   4.154   0.804   4.466  0.2864 -0.0393 -0.0352
14973TIP3    H166410   4.119   0.868   4.404  0.4587 -0.2383 -0.3388
14973TIP3    H266411   4.156   0.722   4.417 -0.2827 -0.3605  0.4612
14974TIP3   OH266412   4.632   2.908  14.495  0.5890 -0.2218  0.2581
14974TIP3    H166413   4.583   2.988  14.482 -3.1994 -2.2038  1.4832
14974TIP3    H266414   4.622   2.859  14.414  0.5729 -0.6202  0.4957
14975TIP3   OH266415   1.515   6.624  11.110 -0.4290  0.1697 -0.3467
14975TIP3    H166416   1.489   6.576  11.031  1.4067  0.0071 -0.8916
14975TIP3    H266417   1.506   6.716  11.086  0.7095  0.1309 -0.9862
14976TIP3   OH266418   5.057   1.379  16.583  0.2893 -0.2342  0.5639
14976TIP3    H166419   5.093   1.357  16.497  2.0015 -0.7614  1.3791
14976TIP3    H266420   5.082   1.305  16.639 -1.0920 -0.0548  1.4402
14977TIP3   OH266421   0.048   5.807  11.748 -0.5237  0.2995  0.0120
14977TIP3    H166422   0.042   5.711  11.742  1.8310  0.1279 -0.0372
14977TIP3    H266423  -0.021   5.839  11.689 -2.3938 -1.3425  1.2610
14978TIP3   OH266424   4.478   1.775   2.621 -0.2300  0.0435  0.2745
14978TIP3    H166425   4.504   1.689   2.587 -2.1856  0.4884 -2.5088
14978TIP3    H266426   4.554   1.830   2.605  0.0979 -0.5637 -0.3002
14979TIP3   OH266427   5.240   1.778  14.948 -0.2090 -0.2405  0.2128
14979TIP3    H166428   5.310   1.733  14.995  0.3753  0.2113 -0.2231
14979TIP3    H266429   5.271   1.868  14.938 -0.9779  0.0394  0.2794
14980TIP3   OH266430   5.193   4.609   3.816 -0.8716 -0.2429  0.0542
14980TIP3    H166431   5.186   4.697   3.853  0.1376 -0.1292 -0.0073
14980TIP3    H266432   5.287   4.590   3.817 -1.1421 -1.5853  0.6872
14981TIP3   OH266433   2.354   5.363  14.628 -0.4940  0.4762 -0.8948
14981TIP3    H166434   2.444   5.336  14.611 -0.2103  0.3558  0.6583
14981TIP3    H266435   2.307   5.345  14.547  0.7223 -0.1632 -1.4711
14982TIP3   OH266436   4.468   2.987   1.204 -0.7055  0.1414 -0.2722
14982TIP3    H166437   4.527   2.946   1.141  0.6145  1.0789  0.3342
14982TIP3    H266438   4.380   2.962   1.175 -0.0954  0.2497 -2.2578
14983TIP3   OH266439   3.458   5.074  10.991  0.1109 -0.0476  0.4873
14983TIP3    H166440   3.440   5.061  10.898  3.5520  1.5303 -0.5080
14983TIP3    H266441   3.435   5.165  11.008 -0.6767 -0.3815  1.2431
14984TIP3   OH266442   2.544   1.254   2.213  0.2837 -0.2762  0.2721
14984TIP3    H166443   2.636   1.261   2.189 -0.3868  0.8681 -2.2358
14984TIP3    H266444   2.518   1.344   2.236 -0.2749 -0.5346  0.6613
14985TIP3   OH266445   1.832   2.019   1.034 -0.3608  0.2480 -0.1621
14985TIP3    H166446   1.926   2.020   1.015 -0.0134  0.7182  1.4716
14985TIP3    H266447   1.826   1.976   1.119 -1.6225  0.2741 -0.2391
14986TIP3   OH266448   4.068   0.301   3.623 -0.6888  0.2277 -0.3284
14986TIP3    H166449   4.055   0.299   3.718  0.3285 -2.9780 -0.2090
14986TIP3    H266450   4.002   0.240   3.589  1.4009 -1.5550 -1.3019
14987TIP3   OH266451   2.754   6.260   6.132 -0.4986  0.2911  0.3169
14987TIP3    H166452   2.836   6.219   6.161  0.2872 -0.2596 -2.5078
14987TIP3    H266453   2.778   6.307   6.052 -2.5890  1.6370  0.4401
14988TIP3   OH266454   2.744   4.412  13.629 -0.5970 -0.2626 -0.3601
14988TIP3    H166455   2.759   4.404  13.535 -1.9379 -0.6189 -0.5451
14988TIP3    H266456   2.667   4.468  13.637 -0.2654  0.0773  0.5427
14989TIP3   OH266457   4.721   6.362  12.487  0.0836  0.0696 -0.1251
14989TIP3    H166458   4.772   6.297  12.535  0.6605 -1.2832 -2.4479
14989TIP3    H266459   4.765   6.445  12.504  1.2248 -0.6284  0.3958
14990TIP3   OH266460   2.957   1.049  16.022  0.3800 -0.3374 -0.1721
14990TIP3    H166461   2.953   1.076  15.930  1.8281 -1.3828 -0.5523
14990TIP3    H266462   2.897   1.109  16.067  0.7677  1.1407 -1.5703
14991TIP3   OH266463   5.033   2.445  13.396 -0.2321 -0.3090 -0.1460
14991TIP3    H166464   4.951   2.468  13.353 -0.0039  2.0770  0.6067
14991TIP3    H266465   5.100   2.491  13.344  0.1577  1.5699  1.9601
14992TIP3   OH266466   4.150   4.477  12.116 -0.3652 -0.3642 -0.0150
14992TIP3    H166467   4.159   4.540  12.045  0.8690 -0.9175 -0.3700
14992TIP3    H266468   4.240   4.451  12.136 -0.7952 -1.2355  0.8203
14993TIP3   OH266469   5.452   4.245   4.666  0.0691  0.1483  0.5223
14993TIP3    H166470   5.376   4.200   4.629  0.6450  0.0058 -0.4975
14993TIP3    H266471   5.527   4.207   4.621  0.7157  0.6301  1.1806
14994TIP3   OH266472   5.361   4.667   2.900 -0.4454 -0.6415 -0.2572
14994TIP3    H166473   5.449   4.664   2.937 -0.6687 -0.7624  0.2737
14994TIP3    H266474   5.303   4.659   2.976 -0.9052 -1.0297 -0.6476
14995TIP3   OH266475   5.032   2.142  12.677 -0.2227  0.0475  0.6264
14995TIP3    H166476   4.984   2.079  12.730 -0.6572 -0.7775 -0.7386
14995TIP3    H266477   5.110   2.094  12.649 -0.3074  0.2831 -0.0026
14996TIP3   OH266478   3.318   2.778   1.789  0.0498  0.5517  0.4622
14996TIP3    H166479   3.275   2.693   1.785  0.4232  0.3870 -0.1377
14996TIP3    H266480   3.248   2.839   1.813 -0.3211  0.1510  0.4060
14997TIP3   OH266481   0.969   2.431   5.934  0.0290 -0.5558  0.5296
14997TIP3    H166482   0.883   2.472   5.944 -0.3733 -1.0129 -0.9003
14997TIP3    H266483   0.991   2.397   6.021 -0.2674  1.4314  1.4165
14998TIP3   OH266484   3.599   5.048   0.758  0.5505 -0.1520 -0.1485
14998TIP3    H166485   3.507   5.075   0.753  0.4233 -0.6498 -0.5664
14998TIP3    H266486   3.648   5.128   0.743  0.1754 -0.0364 -0.7925
14999TIP3   OH266487   6.748   6.235  12.123  0.0492 -0.2645 -0.0495
14999TIP3    H166488   6.829   6.217  12.074  1.9125 -1.5646  3.3049
14999TIP3    H266489   6.726   6.325  12.100 -0.0563 -1.3081 -4.3894
15000TIP3   OH266490   1.184   0.087  14.990  0.5990  0.0388 -0.2571
15000TIP3    H166491   1.162   0.125  14.905  1.9147 -2.0363 -1.5605
15000TIP3    H266492   1.101   0.057  15.026  0.2606 -0.5932 -1.5594
15001TIP3   OH266493   6.621   3.488   4.013 -0.6059  0.5935 -0.0937
15001TIP3    H166494   6.702   3.533   3.990 -1.2033  0.6641 -2.1981
15001TIP3    H266495   6.644   3.432   4.088  0.8159  2.2710  0.7412
15002TIP3   OH266496   0.481   5.259   6.602  0.2378 -0.6002  0.1046
15002TIP3    H166497   0.514   5.173   6.628  1.7535 -0.2408 -0.5719
15002TIP3    H266498   0.539   5.287   6.531 -0.6101  0.7207 -0.0921
15003TIP3   OH266499   4.920   3.840   1.997  0.4261 -0.1687 -0.4405
15003TIP3    H166500   4.958   3.924   2.023  1.1732 -1.2659  2.1392
15003TIP3    H266501   4.981   3.774   2.029 -1.1163 -1.7841 -0.7221
15004TIP3   OH266502   6.746   5.123  16.153  0.0424  0.3697 -0.0563
15004TIP3    H166503   6.670   5.095  16.104  0.1628  0.4526 -0.2941
15004TIP3    H266504   6.730   5.216  16.171  0.6582  0.7119 -1.1911
15005TIP3   OH266505   1.136   4.378  14.315  0.2666  0.1806  0.6378
15005TIP3    H166506   1.116   4.294  14.272  1.9383 -0.1959  0.5826
15005TIP3    H266507   1.069   4.438  14.281 -0.4193 -0.9151  0.0140
15006TIP3   OH266508   0.051   5.495   2.062  0.3424  0.2104 -0.0968
15006TIP3    H166509  -0.033   5.452   2.046  0.0543  0.6722  0.1814
15006TIP3    H266510   0.095   5.494   1.976  0.0491 -0.0061 -0.2459
15007TIP3   OH266511   1.604   5.060   5.263 -0.3117 -0.4120  0.1080
15007TIP3    H166512   1.652   5.071   5.181  0.5716 -2.0272  0.3755
15007TIP3    H266513   1.661   5.098   5.330 -0.6801  0.2045  0.0713
15008TIP3   OH266514   1.242   4.295   6.470 -0.2610  0.9197  0.7007
15008TIP3    H166515   1.204   4.318   6.555  1.1370 -1.1889  1.9381
15008TIP3    H266516   1.196   4.216   6.443  1.0191  0.1331  0.7336
15009TIP3   OH266517   4.390   2.829   0.048 -0.2851 -0.3622  0.6812
15009TIP3    H166518   4.386   2.870   0.134  0.5554 -1.0702  1.0697
15009TIP3    H266519   4.453   2.757   0.059  1.8801  1.1790 -1.1726
15010TIP3   OH266520   5.089   5.766   6.705  0.7633  0.1065  0.3958
15010TIP3    H166521   5.120   5.819   6.631 -1.0732  1.1410  0.3467
15010TIP3    H266522   5.157   5.699   6.716  1.3954  0.3418 -1.7855
15011TIP3   OH266523   4.255   1.500   0.306 -0.6122  0.1160 -0.5127
15011TIP3    H166524   4.191   1.530   0.242 -0.0608 -0.0159 -1.1253
15011TIP3    H266525   4.209   1.434   0.357 -0.6112 -0.7767 -1.6689
15012TIP3   OH266526   6.511   2.360  13.692 -0.4580  0.2246 -0.5906
15012TIP3    H166527   6.430   2.322  13.726 -0.5427  0.6345 -0.3358
15012TIP3    H266528   6.516   2.329  13.602 -0.9401  0.2660 -0.6320
15013TIP3   OH266529   0.425   2.865   4.732  0.6679 -0.0602 -0.3264
15013TIP3    H166530   0.493   2.898   4.791 -0.6253  1.5087  0.3335
15013TIP3    H266531   0.367   2.940   4.717 -1.0950 -1.4263 -0.6152
15014TIP3   OH266532   2.563   2.327  16.334  0.0049  0.5712 -0.3560
15014TIP3    H166533   2.530   2.265  16.270  1.2942 -0.7599  0.2258
15014TIP3    H266534   2.659   2.323  16.325  0.1380  1.9395  0.1945
15015TIP3   OH266535   5.112   6.461   2.058 -0.3552  0.3457  0.1707
15015TIP3    H166536   5.188   6.472   2.001  0.7232 -1.0127  1.2881
15015TIP3    H266537   5.148   6.424   2.139 -2.1730 -0.0841  0.8098
15016TIP3   OH266538   2.845   6.115   0.679 -0.1871  0.4977 -0.3201
15016TIP3    H166539   2.863   6.111   0.773  2.2676 -0.3305 -0.7924
15016TIP3    H266540   2.874   6.203   0.653  1.3934 -0.1279 -0.7210
15017TIP3   OH266541   2.918   5.387   6.510  0.1365 -0.1074  0.4785
15017TIP3    H166542   2.901   5.455   6.575 -0.3808  0.0830  0.1539
15017TIP3    H266543   2.843   5.392   6.450 -0.7135 -2.0478  1.3524
15018TIP3   OH266544   3.476   4.136   6.418 -0.6689  0.0355  0.4213
15018TIP3    H166545   3.445   4.200   6.482 -0.3377 -0.0373  0.6570
15018TIP3    H266546   3.522   4.070   6.471 -1.8051 -0.8784  0.2839
15019TIP3   OH266547   1.057   5.415  16.317  0.1859  0.5425 -0.0017
15019TIP3    H166548   0.970   5.456  16.313  0.3048  0.6325 -2.4450
15019TIP3    H266549   1.118   5.486  16.299  0.5386 -0.2055 -1.8416
15020TIP3   OH266550   4.223   2.183  14.240  0.3460 -0.0936  0.0390
15020TIP3    H166551   4.273   2.200  14.320  0.3046 -1.0019  0.2669
15020TIP3    H266552   4.132   2.198  14.265  0.3970  0.3497 -0.0388
15021TIP3   OH266553   3.720   5.928   4.259  0.4728  0.1899 -0.8053
15021TIP3    H166554   3.660   5.964   4.324  2.0561  0.4218  0.5670
15021TIP3    H266555   3.676   5.848   4.228 -0.3885  0.1792  0.4076
15022TIP3   OH266556   5.726   0.349   3.909 -0.1334  0.0420 -0.3915
15022TIP3    H166557   5.676   0.269   3.892  3.4280 -2.1412 -1.1684
15022TIP3    H266558   5.735   0.391   3.824  1.4714 -0.9329 -0.7327
15023TIP3   OH266559   5.182   5.355  11.409 -0.0471 -0.3224 -0.7836
15023TIP3    H166560   5.275   5.379  11.413  0.1765 -1.0931 -1.2167
15023TIP3    H266561   5.138   5.435  11.382  0.3324  0.4214  0.7091
15024TIP3   OH266562   4.335   5.529  14.040 -0.1451  0.5585 -0.0825
15024TIP3    H166563   4.271   5.458  14.043  1.2905 -0.7082  1.4898
15024TIP3    H266564   4.297   5.598  14.095 -1.4420  0.9327 -1.4354
15025TIP3   OH266565   5.327   6.603   5.047  0.1333  0.7856  0.5974
15025TIP3    H166566   5.330   6.690   5.006  0.5095  0.2005 -0.6623
15025TIP3    H266567   5.341   6.619   5.140  0.8882  2.0134  0.2773
15026TIP3   OH266568   0.630   1.832  13.682  0.1125 -0.1265 -0.0292
15026TIP3    H166569   0.557   1.806  13.626  0.0170 -1.0241  0.4974
15026TIP3    H266570   0.706   1.832  13.625  0.0576 -1.2721 -0.1163
15027TIP3   OH266571   0.608   5.131  13.333  0.2787 -0.4234 -0.1706
15027TIP3    H166572   0.517   5.143  13.306  0.5117  1.1664 -0.3006
15027TIP3    H266573   0.639   5.220  13.352  1.7364 -0.9748  0.0763
15028TIP3   OH266574   0.181   4.441   4.126 -0.0044 -0.6344  0.4927
15028TIP3    H166575   0.141   4.356   4.104 -0.0304 -0.7628  1.0283
15028TIP3    H266576   0.108   4.494   4.159 -0.5381  0.5532 -2.4710
15029TIP3   OH266577   0.932   3.378   0.266  0.4653 -0.4060 -0.2331
15029TIP3    H166578   0.973   3.422   0.340 -0.4756 -0.3102  0.2304
15029TIP3    H266579   0.848   3.346   0.300  0.9430 -2.1772 -0.6738
15030TIP3   OH266580   6.483   5.996  13.774  0.1476  0.0473 -0.3942
15030TIP3    H166581   6.537   5.994  13.853  0.5446  0.9120 -0.6279
15030TIP3    H266582   6.533   6.051  13.713  0.5258 -1.7562 -1.7408
15031TIP3   OH266583   2.749   3.598  16.541 -0.0171  0.4046 -0.3208
15031TIP3    H166584   2.804   3.653  16.597  0.2662 -1.0953  0.9127
15031TIP3    H266585   2.673   3.578  16.596  0.5381 -1.5604 -0.2207
15032TIP3   OH266586   1.869   3.908   0.621  0.2548  0.1478  0.5000
15032TIP3    H166587   1.915   3.978   0.576  0.8105  0.6892  1.8885
15032TIP3    H266588   1.917   3.829   0.598  0.7069  0.4597  0.3805
15033TIP3   OH266589   1.676   5.127  11.674 -0.0980 -0.0589  0.0144
15033TIP3    H166590   1.743   5.175  11.721  0.7105 -0.5859 -0.5922
15033TIP3    H266591   1.724   5.069  11.615 -1.0756 -0.5432 -0.3242
15034TIP3   OH266592   2.705   4.474   5.008  0.1374  0.4182 -0.1023
15034TIP3    H166593   2.678   4.523   4.930 -0.6313 -1.9940 -1.3983
15034TIP3    H266594   2.680   4.530   5.081  0.7188  2.6596 -1.5503
15035TIP3   OH266595   0.112   6.465   4.214 -0.1236  0.0554 -0.1255
15035TIP3    H166596   0.056   6.540   4.194 -0.5886 -0.4498 -0.7321
15035TIP3    H266597   0.144   6.436   4.128 -1.5788 -1.7072 -0.1064
15036TIP3   OH266598   0.856   6.186  13.471 -0.5804  0.2921  0.4014
15036TIP3    H166599   0.839   6.235  13.551 -0.1393 -0.5309  1.0155
15036TIP3    H266600   0.806   6.231  13.404 -1.5398  0.5772  1.2867
15037TIP3   OH266601   4.760   5.387   0.782  0.4191 -0.4223 -0.1518
15037TIP3    H166602   4.847   5.349   0.793  0.1874 -0.6855  0.8181
15037TIP3    H266603   4.711   5.356   0.858 -0.5468 -0.3426 -0.7378
15038TIP3   OH266604   4.327   6.277   0.883  0.0726 -0.0495  0.1723
15038TIP3    H166605   4.251   6.235   0.844  0.7487 -1.2734  0.1324
15038TIP3    H266606   4.368   6.325   0.812  1.5193 -2.5815 -0.7960
15039TIP3   OH266607   0.438   0.543  14.268  0.4201  0.1685  0.4241
15039TIP3    H166608   0.470   0.633  14.255 -0.2841  0.6076  1.6737
15039TIP3    H266609   0.390   0.547  14.350 -2.0232 -0.7218 -0.9233
15040TIP3   OH266610   0.455   1.547   2.283  0.0448 -0.0668  0.1409
15040TIP3    H166611   0.386   1.487   2.254  0.4935  0.1619 -1.4665
15040TIP3    H266612   0.529   1.491   2.304 -0.4919 -0.2836  1.4973
15041TIP3   OH266613   5.408   4.545   4.387  0.2853  0.3788 -0.6728
15041TIP3    H166614   5.427   4.594   4.466 -0.4018 -0.3535 -0.0476
15041TIP3    H266615   5.347   4.600   4.338  0.6105  0.7697 -0.6379
15042TIP3   OH266616   5.000   4.105   3.142 -0.6693 -0.0185  0.0032
15042TIP3    H166617   5.028   4.130   3.053 -1.1217  1.5130  0.2714
15042TIP3    H266618   4.913   4.068   3.130 -1.0940  0.9868 -0.1132
15043TIP3   OH266619   4.195   6.727  17.164 -0.4730 -0.2021 -0.2038
15043TIP3    H166620   4.220   6.635  17.156  0.0993  0.1634 -2.9672
15043TIP3    H266621   4.275   6.776  17.145 -1.2705  0.8890 -0.8574
15044TIP3   OH266622   4.095   3.383  14.916 -0.5732  0.3580  0.5355
15044TIP3    H166623   4.132   3.294  14.911  1.7523  1.2777  0.6930
15044TIP3    H266624   4.067   3.393  15.007 -0.9098 -0.2325  0.5001
15045TIP3   OH266625   3.430   1.807  13.040 -0.2440 -0.5317 -0.1661
15045TIP3    H166626   3.411   1.819  12.947  1.9022 -0.0814 -0.5920
15045TIP3    H266627   3.467   1.891  13.067  0.9127 -1.2652  0.5958
15046TIP3   OH266628   4.125   4.784  13.295 -0.4724 -0.2041 -1.2444
15046TIP3    H166629   4.129   4.689  13.300  1.8959 -0.0513  0.5665
15046TIP3    H266630   4.035   4.806  13.319 -0.9420 -1.9396 -1.3733
15047TIP3   OH266631   4.955   4.511   4.245 -0.0312 -0.0257  0.0956
15047TIP3    H166632   5.048   4.532   4.257 -0.3383  1.3929  0.0268
15047TIP3    H266633   4.940   4.521   4.151 -0.1152 -0.8662  0.0139
15048TIP3   OH266634   2.941   4.062  10.600  0.2887  0.4337 -0.1568
15048TIP3    H166635   2.882   4.047  10.526 -1.3223  0.2207  1.1490
15048TIP3    H266636   3.018   4.103  10.561 -1.6348  2.8043 -1.5741
15049TIP3   OH266637   3.171   1.723  10.635 -0.2561 -0.1146  0.2518
15049TIP3    H166638   3.254   1.714  10.682  1.1890 -0.9952 -2.3678
15049TIP3    H266639   3.125   1.642  10.652  0.6923 -0.8505 -0.6455
15050TIP3   OH266640   6.370   4.695   1.603 -0.4052  0.4465  0.1258
15050TIP3    H166641   6.400   4.783   1.629 -0.2603  0.4031  0.1069
15050TIP3    H266642   6.362   4.648   1.686  2.5566 -0.4841 -0.0446
15051TIP3   OH266643   5.729   1.640  14.751  0.5014 -0.1977 -0.0252
15051TIP3    H166644   5.692   1.674  14.832  2.9450  2.5507  0.0002
15051TIP3    H266645   5.805   1.589  14.779 -0.6839 -2.2104 -0.3807
15052TIP3   OH266646   0.303   3.020   3.627 -0.1389 -0.2060  0.2060
15052TIP3    H166647   0.306   3.082   3.700 -1.5401  0.3950 -0.2416
15052TIP3    H266648   0.211   3.014   3.604  0.2116 -0.9715 -1.0343
15053TIP3   OH266649   6.808   1.767   1.686  0.4040 -0.2299 -0.5996
15053TIP3    H166650   6.762   1.753   1.769  2.6608 -2.3072  0.3491
15053TIP3    H266651   6.843   1.856   1.694 -1.1846  0.3864 -0.2424
15054TIP3   OH266652   2.527   5.272   4.872  0.2452 -0.1625 -0.1968
15054TIP3    H166653   2.622   5.275   4.867  0.2809 -0.8965  0.0299
15054TIP3    H266654   2.504   5.182   4.847 -0.4088  0.1182 -0.6231
15055TIP3   OH266655   5.390   2.554  14.735  0.0181  0.5763  0.2997
15055TIP3    H166656   5.374   2.533  14.827  2.0482  1.6223  0.9322
15055TIP3    H266657   5.378   2.649  14.730 -2.8319  0.1860 -1.1405
15056TIP3   OH266658   4.108   0.614   2.011  0.0053  0.2935  0.2465
15056TIP3    H166659   4.202   0.601   1.999 -0.0046  1.1077 -0.7300
15056TIP3    H266660   4.075   0.528   2.039  0.9911 -0.0514  0.3599
15057TIP3   OH266661   1.254   4.201   4.515 -0.6354 -0.2926  0.3182
15057TIP3    H166662   1.187   4.175   4.577 -0.9173  0.8847  0.5074
15057TIP3    H266663   1.253   4.297   4.516  0.0010 -0.2598 -0.7938
15058TIP3   OH266664   6.304   0.376   0.549  0.2253  0.4958  0.5140
15058TIP3    H166665   6.361   0.347   0.478  1.6677  0.3562  1.6972
15058TIP3    H266666   6.309   0.472   0.546 -0.3605  0.5193 -0.0557
15059TIP3   OH266667   5.281   3.640   0.236 -0.7425 -0.2063 -0.3065
15059TIP3    H166668   5.340   3.604   0.302 -1.6174  2.6753  2.1579
15059TIP3    H266669   5.196   3.601   0.256 -0.8207 -0.0282 -0.2886
15060TIP3   OH266670   1.566   6.247  16.826 -0.0922  0.3415 -0.2386
15060TIP3    H166671   1.652   6.271  16.791  1.3944  0.9623  3.6239
15060TIP3    H266672   1.531   6.329  16.863 -0.9085 -0.5759  1.0862
15061TIP3   OH266673   5.738   4.094   1.321  0.6150  0.4107  0.2749
15061TIP3    H166674   5.733   4.160   1.251 -2.4991 -0.8345 -0.7575
15061TIP3    H266675   5.727   4.144   1.402 -1.7903  1.1613 -0.4964
15062TIP3   OH266676   1.656   5.603  11.349 -0.7834 -0.2047 -0.3455
15062TIP3    H166677   1.686   5.602  11.440  1.2385 -0.2072 -0.9960
15062TIP3    H266678   1.717   5.546  11.303 -0.8528  1.0199 -1.9899
15063TIP3   OH266679   6.427   1.703  16.323  0.4188  0.1210  0.2038
15063TIP3    H166680   6.478   1.779  16.348  0.8063 -0.2698  0.6018
15063TIP3    H266681   6.488   1.646  16.277  0.3298 -0.3144  0.6156
15064TIP3   OH266682   4.317   3.299   3.853  0.1126  0.0919  0.1271
15064TIP3    H166683   4.358   3.212   3.857 -0.6384 -0.2741 -0.0938
15064TIP3    H266684   4.226   3.284   3.879 -0.1973  0.6982 -0.5774
15065TIP3   OH266685   2.896   4.527  17.270  0.1665 -0.4147  0.6103
15065TIP3    H166686   2.853   4.613  17.277  0.5884 -0.0473 -1.1452
15065TIP3    H266687   2.825   4.464  17.279 -0.4376  0.1614 -0.0642
15066TIP3   OH266688   5.351   5.198  13.321 -0.2417 -0.3368  0.5081
15066TIP3    H166689   5.342   5.197  13.416 -0.6946 -0.7301  0.4613
15066TIP3    H266690   5.381   5.287  13.301  1.1099 -0.6470  1.1233
15067TIP3   OH266691   0.155   2.050  10.581  0.0532 -0.3508  0.2331
15067TIP3    H166692   0.201   2.117  10.531  0.8149 -1.2511 -0.3081
15067TIP3    H266693   0.062   2.071  10.571  0.2452  0.0420 -0.7481
15068TIP3   OH266694   2.201   2.089   5.428 -0.3901 -0.5012  0.5358
15068TIP3    H166695   2.138   2.142   5.478  1.5816  1.3820  1.0913
15068TIP3    H266696   2.261   2.054   5.494  1.6362  1.1801 -0.3432
15069TIP3   OH266697   3.963   3.543  13.226  0.5935 -0.0808  0.3558
15069TIP3    H166698   3.927   3.465  13.267  0.5471 -0.5088 -0.4958
15069TIP3    H266699   4.032   3.510  13.168 -0.6883  0.3253 -1.4351
15070TIP3   OH266700   4.127   3.008  14.616 -0.3567 -0.1445 -0.4457
15070TIP3    H166701   4.145   2.929  14.564  2.1930  0.5462 -0.7122
15070TIP3    H266702   4.101   2.975  14.702  2.8589 -1.3323  0.1386
15071TIP3   OH266703   6.595   6.068   4.175  0.3584  0.6658 -0.2203
15071TIP3    H166704   6.525   6.100   4.232  0.5163  0.9810 -0.2041
15071TIP3    H266705   6.594   6.127   4.100  0.0336  0.1401 -0.6322
15072TIP3   OH266706   0.023   2.976   0.851  0.3279 -0.2379  0.0961
15072TIP3    H166707   0.017   3.067   0.881 -1.6016 -0.6059  0.8921
15072TIP3    H266708   0.108   2.947   0.883  2.0973  2.0253 -2.3310
15073TIP3   OH266709   2.463   2.414   0.079 -0.0496  0.3691 -0.2188
15073TIP3    H166710   2.440   2.483   0.142  1.6659  0.3716  0.4256
15073TIP3    H266711   2.529   2.362   0.124 -1.0789 -1.5187 -0.8256
15074TIP3   OH266712   6.763   0.993  13.087  0.4947 -0.4279  0.2561
15074TIP3    H166713   6.810   1.071  13.120  0.8701  0.3812 -2.1285
15074TIP3    H266714   6.753   0.938  13.165  2.9033  0.6486  1.4143
15075TIP3   OH266715   1.344   4.248  13.465  0.0962 -0.2634  0.0396
15075TIP3    H166716   1.367   4.335  13.496  1.0057 -0.2853 -0.5500
15075TIP3    H266717   1.413   4.191  13.500 -1.1811 -0.9680  1.4993
15076TIP3   OH266718   4.385   0.129  11.004 -0.1641  0.7801  0.3031
15076TIP3    H166719   4.440   0.207  11.015 -0.4964  0.9762  0.5887
15076TIP3    H266720   4.413   0.091  10.921 -1.2892  2.2536 -0.7807
15077TIP3   OH266721   4.699   2.649   1.251  0.0998 -0.4429 -0.2918
15077TIP3    H166722   4.777   2.609   1.212  1.4502  0.3040  1.5637
15077TIP3    H266723   4.718   2.743   1.250 -0.5356 -0.2987  0.6790
15078TIP3   OH266724   0.276   3.895  13.067 -0.4064  0.4089 -0.3444
15078TIP3    H166725   0.286   3.832  13.138 -0.0824  1.2834  0.3878
15078TIP3    H266726   0.317   3.975  13.099 -0.7754  0.9891 -1.2873
15079TIP3   OH266727   2.840   4.427   1.394  0.5356  0.4769  0.8370
15079TIP3    H166728   2.853   4.378   1.313 -1.1966  2.6831 -0.8358
15079TIP3    H266729   2.769   4.381   1.438 -2.0338  2.1834 -1.3798
15080TIP3   OH266730   6.225   4.731   0.255 -0.0592 -0.6976 -0.0772
15080TIP3    H166731   6.158   4.695   0.196  1.7518 -1.0865 -1.9415
15080TIP3    H266732   6.191   4.817   0.279 -0.6514 -0.3626 -2.0274
15081TIP3   OH266733   0.007   4.284  13.231 -0.2417  0.2464  0.3386
15081TIP3    H166734  -0.005   4.200  13.186  2.3772 -0.8191  1.5156
15081TIP3    H266735   0.062   4.263  13.306  1.3255  3.1844  0.0888
15082TIP3   OH266736   2.403   1.544  13.474 -0.3729  0.4830 -0.0990
15082TIP3    H166737   2.478   1.486  13.482 -0.7318  0.1871  1.2349
15082TIP3    H266738   2.390   1.554  13.380  0.8394 -0.0973 -0.3355
15083TIP3   OH266739   2.505   5.763  17.015 -1.0224  0.2048  0.4804
15083TIP3    H166740   2.465   5.721  17.091 -0.4909  0.2568  0.7921
15083TIP3    H266741   2.599   5.756  17.031 -0.8978 -0.6184 -0.6337
15084TIP3   OH266742   6.075   5.861   2.922 -0.4571  1.1725  0.3539
15084TIP3    H166743   6.055   5.775   2.884  1.5074  1.1163 -0.6190
15084TIP3    H266744   6.045   5.923   2.855  1.9112  1.1078 -0.7963
15085TIP3   OH266745   0.758   5.348   2.882  0.7663 -0.2392 -0.2059
15085TIP3    H166746   0.812   5.343   2.803 -0.0099  1.4172 -0.8613
15085TIP3    H266747   0.745   5.257   2.908  2.4902 -0.7299 -0.9878
15086TIP3   OH266748   4.914   0.997   2.944 -0.3530 -1.0698 -0.7848
15086TIP3    H166749   4.838   0.965   2.993  1.1555 -1.5604  1.3363
15086TIP3    H266750   4.908   1.092   2.948 -0.4011 -1.1080  0.1364
15087TIP3   OH266751   1.554   0.258   4.971 -0.1525 -0.2304 -0.9500
15087TIP3    H166752   1.466   0.295   4.976 -0.3550 -0.8073 -0.1201
15087TIP3    H266753   1.580   0.246   5.062  1.9737  2.6946 -1.0803
15088TIP3   OH266754   2.496   0.846   1.309  0.5267  0.0779 -0.0218
15088TIP3    H166755   2.537   0.864   1.224  0.5512  1.1953  0.2255
15088TIP3    H266756   2.548   0.775   1.346  1.7756  0.9758 -0.0376
15089TIP3   OH266757   2.880   2.822  15.415 -0.2176  0.5665  0.0511
15089TIP3    H166758   2.790   2.854  15.408 -0.4046 -0.2358 -1.4189
15089TIP3    H266759   2.933   2.897  15.387 -0.6170 -0.0908 -2.6013
15090TIP3   OH266760   1.776   1.308   0.723 -0.0107  0.2108  0.3412
15090TIP3    H166761   1.840   1.375   0.698  0.0607  0.3067  0.7802
15090TIP3    H266762   1.693   1.355   0.726 -0.1615  0.0166 -0.5523
15091TIP3   OH266763   5.157   4.262   3.347  0.1948 -0.3619  0.9300
15091TIP3    H166764   5.127   4.195   3.285  0.0475 -0.1607  0.7863
15091TIP3    H266765   5.250   4.274   3.325 -0.8417  2.9568 -2.2703
15092TIP3   OH266766   2.140   4.355   5.668 -0.2604 -0.8118  0.2934
15092TIP3    H166767   2.070   4.357   5.602  1.6857 -3.7706 -1.9841
15092TIP3    H266768   2.122   4.277   5.720 -0.7211  0.4884  2.1159
15093TIP3   OH266769   2.719   6.691  15.766  0.0875  0.5262  1.2713
15093TIP3    H166770   2.656   6.622  15.745 -0.4215  0.9043  1.5670
15093TIP3    H266771   2.688   6.768  15.718  0.6659  0.5514  0.9227
15094TIP3   OH266772   3.131   6.389  12.950  0.1519  0.1977 -0.5017
15094TIP3    H166773   3.153   6.300  12.979 -0.2719  1.0695  2.7056
15094TIP3    H266774   3.040   6.401  12.980 -0.0691  1.4267 -1.6506
15095TIP3   OH266775   0.645   0.634  12.323 -0.1046  0.4734  0.6433
15095TIP3    H166776   0.567   0.620  12.270 -1.0649  1.8564  1.6522
15095TIP3    H266777   0.698   0.556  12.309 -0.6907  0.4692 -1.7220
15096TIP3   OH266778   3.414   2.178  11.453 -0.0469  0.2008 -0.0671
15096TIP3    H166779   3.486   2.163  11.392  0.5192  0.1720  0.6045
15096TIP3    H266780   3.374   2.092  11.464  0.3947  0.0384  0.2801
15097TIP3   OH266781   6.538   4.068  15.250  0.2552 -0.2674  0.2449
15097TIP3    H166782   6.488   4.109  15.179  0.7704 -1.3022 -0.7211
15097TIP3    H266783   6.558   4.141  15.309  0.8509  0.8422 -1.2745
15098TIP3   OH266784   0.642   4.660  12.984 -0.9738 -0.2810 -0.2397
15098TIP3    H166785   0.652   4.746  13.025 -2.2908 -1.1303  1.9574
15098TIP3    H266786   0.551   4.635  13.002 -0.7158 -1.9657 -1.1593
15099TIP3   OH266787   0.531   6.756   6.519 -0.1699  0.2141 -0.1958
15099TIP3    H166788   0.622   6.745   6.492  0.2505 -0.8582  1.6146
15099TIP3    H266789   0.536   6.799   6.604 -1.3981  0.9535 -0.4831
15100TIP3   OH266790   6.627   1.189  12.143 -0.0250 -0.2808  0.1095
15100TIP3    H166791   6.535   1.164  12.157 -0.0608  0.0941  0.5617
15100TIP3    H266792   6.675   1.140  12.210  0.0781 -0.2871  0.0310
15101TIP3   OH266793   4.137   2.192   4.586  0.3234 -0.0203 -0.5776
15101TIP3    H166794   4.166   2.224   4.672  0.3016 -3.3884  0.7778
15101TIP3    H266795   4.042   2.193   4.592  0.3177  0.2103 -0.7292
15102TIP3   OH266796   2.380   2.369   3.066 -0.1365 -0.5928  0.6685
15102TIP3    H166797   2.368   2.307   3.138 -1.5073  0.4274  1.3215
15102TIP3    H266798   2.294   2.376   3.025  0.6112 -1.1318 -1.0695
15103TIP3   OH266799   5.289   1.705   3.810 -0.2018 -0.3440  0.2793
15103TIP3    H166800   5.330   1.637   3.757 -1.2664 -0.7106 -0.0723
15103TIP3    H266801   5.359   1.735   3.869  0.5290 -1.0617 -0.2203
15104TIP3   OH266802   4.059   6.172  12.299 -0.6598  0.0539  0.4955
15104TIP3    H166803   4.078   6.208  12.386  0.4081  1.1968 -0.2115
15104TIP3    H266804   3.964   6.158  12.300 -0.9213  1.7793  1.1858
15105TIP3   OH266805   5.031   5.251   3.898  0.0646 -0.1880 -0.4838
15105TIP3    H166806   4.982   5.323   3.936 -0.1565 -0.9154  0.6136
15105TIP3    H266807   5.002   5.173   3.946  1.7267 -0.7392 -0.3376
15106TIP3   OH266808   1.333   3.937  10.969  0.2155 -0.1490  0.1079
15106TIP3    H166809   1.427   3.953  10.956 -0.0883  0.7375 -1.0284
15106TIP3    H266810   1.317   3.853  10.927  0.4821 -0.2638  0.2336
15107TIP3   OH266811   3.960   1.298  13.427 -0.0512  0.7171 -0.3324
15107TIP3    H166812   4.018   1.252  13.367 -0.2176  1.6765 -1.2303
15107TIP3    H266813   3.893   1.338  13.371 -2.0223 -0.9804  0.7249
15108TIP3   OH266814   4.445   1.375  11.795  0.2764 -0.2480  0.0137
15108TIP3    H166815   4.477   1.299  11.748 -0.6179 -1.3003  1.0673
15108TIP3    H266816   4.428   1.343  11.884 -0.7455  1.0007  0.2906
15109TIP3   OH266817   2.972   5.945  12.442 -0.5704  0.4398 -0.8238
15109TIP3    H166818   3.034   5.981  12.505 -1.6720  0.9515 -0.0089
15109TIP3    H266819   3.025   5.923  12.365  0.7480  0.0246  0.1913
15110TIP3   OH266820   0.043   2.924   3.210  0.2107  0.3209  0.2039
15110TIP3    H166821   0.033   3.019   3.213 -0.7302  0.2462 -0.2144
15110TIP3    H266822  -0.032   2.891   3.261 -0.4940 -0.2344 -1.1731
15111TIP3   OH266823   6.117   2.867  12.465  0.0148 -0.0641  0.2703
15111TIP3    H166824   6.140   2.877  12.557  2.0941 -3.3656  0.2000
15111TIP3    H266825   6.199   2.882  12.418 -0.4563 -0.9169 -0.8497
15112TIP3   OH266826   5.552   3.561   6.586  0.0605 -0.3611 -0.7668
15112TIP3    H166827   5.501   3.634   6.620  0.8439 -0.2399  0.1662
15112TIP3    H266828   5.622   3.601   6.535  0.5974 -0.4358 -0.1060
15113TIP3   OH266829   5.741   1.599  14.481 -0.5307 -0.1735  0.3710
15113TIP3    H166830   5.764   1.680  14.436  1.7993 -0.8347  0.2828
15113TIP3    H266831   5.766   1.615  14.572 -2.2065  0.0002  0.8180
15114TIP3   OH266832   4.452   4.974  14.822  0.2562 -0.0396  0.2281
15114TIP3    H166833   4.474   4.886  14.851 -1.3081 -0.8208 -0.8674
15114TIP3    H266834   4.387   5.005  14.885  0.5935  0.2182  0.4478
15115TIP3   OH266835   5.866   0.343  16.325 -0.3612  0.6961  0.6580
15115TIP3    H166836   5.870   0.374  16.235  1.7113  1.1725  0.8953
15115TIP3    H266837   5.848   0.250  16.317  0.7816  0.5396 -0.2988
15116TIP3   OH266838   5.804   6.820  11.197 -0.4626  0.2026 -0.1299
15116TIP3    H166839   5.861   6.896  11.187  0.5293 -0.3709  1.0188
15116TIP3    H266840   5.764   6.807  11.111  0.1708  1.3835 -0.5969
15117TIP3   OH266841   2.918   1.714  15.535 -0.3279  0.2564  0.0780
15117TIP3    H166842   2.981   1.646  15.509 -0.4373  0.1437  0.1065
15117TIP3    H266843   2.969   1.774  15.589 -0.2054  0.2526 -0.0319
15118TIP3   OH266844   6.008   5.848   1.654 -0.0985  0.0137 -0.1048
15118TIP3    H166845   5.932   5.791   1.640 -0.5872  0.4325  0.7478
15118TIP3    H266846   6.021   5.847   1.749  0.0862  1.0495 -0.1072
15119TIP3   OH266847   5.898   3.636   3.620 -0.5543  0.7257  0.1772
15119TIP3    H166848   5.893   3.547   3.657  1.2465  0.4361 -0.2029
15119TIP3    H266849   5.834   3.686   3.670 -2.1437 -0.9620 -0.1089
15120TIP3   OH266850   2.258   5.228   1.223 -0.4271 -0.2646 -0.4546
15120TIP3    H166851   2.232   5.166   1.155 -0.5014 -2.2990  1.3974
15120TIP3    H266852   2.348   5.204   1.245 -0.6817 -0.1446  0.7370
15121TIP3   OH266853   3.373   4.780   5.157  0.8820 -0.5273 -0.2346
15121TIP3    H166854   3.333   4.703   5.117  0.1781  0.2692 -1.0839
15121TIP3    H266855   3.461   4.784   5.119  1.3079 -1.5323  0.6389
15122TIP3   OH266856   3.376   1.319   2.512 -0.2102 -1.1303  0.6575
15122TIP3    H166857   3.342   1.250   2.456  1.0416 -1.1199 -0.1383
15122TIP3    H266858   3.471   1.312   2.503 -0.0704  0.6988  0.5445
15123TIP3   OH266859   3.450   5.389   3.830  0.3105  0.4379  0.0381
15123TIP3    H166860   3.460   5.304   3.787  0.5961 -0.1134  1.1868
15123TIP3    H266861   3.514   5.445   3.786 -0.4351  0.2840 -1.2684
15124TIP3   OH266862   1.137   1.566   0.816 -0.5208 -1.0462 -0.0123
15124TIP3    H166863   1.181   1.501   0.760 -1.1327 -2.5727  1.2609
15124TIP3    H266864   1.044   1.557   0.794 -0.7173 -1.3676  0.9550
15125TIP3   OH266865   0.943   2.563   0.551 -0.1973 -0.3566  0.4749
15125TIP3    H166866   1.012   2.624   0.525  1.3789 -1.4819  1.7988
15125TIP3    H266867   0.923   2.514   0.472  0.1680  0.3408 -0.0525
15126TIP3   OH266868   3.725   3.096  13.896  0.7578 -0.3178 -0.0795
15126TIP3    H166869   3.769   3.099  13.981  0.3516  0.8730  0.1035
15126TIP3    H266870   3.675   3.015  13.898 -0.7626  0.6299  1.5916
15127TIP3   OH266871   3.636   6.354   0.346 -0.0255 -0.3360 -0.5470
15127TIP3    H166872   3.673   6.431   0.303 -0.4234  0.1165 -0.0811
15127TIP3    H266873   3.591   6.307   0.276  0.4845 -0.3133 -0.8951
15128TIP3   OH266874   5.766   3.645   6.415  0.2378  0.4350  0.4846
15128TIP3    H166875   5.848   3.666   6.371  0.1580 -0.4764 -0.0847
15128TIP3    H266876   5.716   3.727   6.410  1.4497  1.2823  1.6285
15129TIP3   OH266877   5.304   5.256   1.693  0.0637  0.1854  0.5729
15129TIP3    H166878   5.328   5.177   1.644  0.6898 -1.0348  2.7536
15129TIP3    H266879   5.310   5.229   1.785 -2.4552  1.9831  1.3266
15130TIP3   OH266880   1.420   2.360  11.907 -0.2998 -0.1587  0.0319
15130TIP3    H166881   1.471   2.284  11.882 -0.5510 -0.6431  0.9849
15130TIP3    H266882   1.482   2.417  11.953 -0.5376 -0.5828  0.8708
15131TIP3   OH266883   0.309   5.506   0.082  0.0566  0.5507 -0.3036
15131TIP3    H166884   0.228   5.536   0.042 -0.4032 -1.4833 -0.9811
15131TIP3    H266885   0.284   5.480   0.171 -0.0610 -0.2012 -0.5565
15132TIP3   OH266886   2.589   0.994  11.011 -0.4056  0.3729 -0.3949
15132TIP3    H166887   2.580   1.087  11.033  0.4552  0.2471  0.5036
15132TIP3    H266888   2.603   0.994  10.916 -0.6609  1.1457 -0.4405
15133TIP3   OH266889   0.011   3.040  16.127 -0.1940  0.4579  0.1384
15133TIP3    H166890   0.083   3.074  16.074 -0.1609  1.2390  0.6669
15133TIP3    H266891   0.021   2.945  16.123  0.3045  0.5322 -0.5594
15134TIP3   OH266892   1.205   0.325   0.180 -0.4146 -0.3514  0.1900
15134TIP3    H166893   1.185   0.237   0.151  0.0816  0.1484 -1.7359
15134TIP3    H266894   1.134   0.348   0.240  0.2596 -2.5955  1.8898
15135TIP3   OH266895   0.252   6.510  14.457  0.2616 -0.5318 -0.1733
15135TIP3    H166896   0.189   6.507  14.528  1.4936  0.3208  0.9895
15135TIP3    H266897   0.245   6.599  14.423  0.7841 -0.4470 -0.0678
15136TIP3   OH266898   4.413   5.497  16.369 -0.1162 -0.1255 -0.1521
15136TIP3    H166899   4.481   5.564  16.358  0.4906 -0.6790  0.1825
15136TIP3    H266900   4.333   5.547  16.384  0.9225  0.5359  3.7182
15137TIP3   OH266901   5.604   3.294   4.239 -0.1734 -0.3874  0.0898
15137TIP3    H166902   5.690   3.334   4.227 -0.4891  0.1276 -0.5032
15137TIP3    H266903   5.623   3.201   4.253  0.7391  0.3006  4.0857
15138TIP3   OH266904   4.372   5.335  12.305  0.0439  0.5048  0.4246
15138TIP3    H166905   4.299   5.317  12.364  2.6126 -1.2664  3.1400
15138TIP3    H266906   4.330   5.369  12.226 -3.7970 -1.6465  1.4267
15139TIP3   OH266907   6.324   3.352   2.634  0.1125 -0.2055  0.1102
15139TIP3    H166908   6.377   3.407   2.691 -0.4085 -0.1810  0.5744
15139TIP3    H266909   6.388   3.297   2.588  0.4020 -2.0970  2.6707
15140TIP3   OH266910   1.344   2.891  14.232 -0.2219  0.8508  0.3815
15140TIP3    H166911   1.344   2.966  14.291 -2.0683  0.9824  0.2375
15140TIP3    H266912   1.359   2.816  14.290  1.8951  1.3290  0.4870
15141TIP3   OH266913   1.025   5.355  12.378  0.3944  0.0120  0.5644
15141TIP3    H166914   1.091   5.370  12.445  0.7805 -2.2385  0.7263
15141TIP3    H266915   0.948   5.325  12.426 -0.2104  0.9739  0.2210
15142TIP3   OH266916   2.702   6.480  16.406 -0.1516  0.5178  0.3953
15142TIP3    H166917   2.690   6.506  16.315 -0.8575 -0.1182  0.3049
15142TIP3    H266918   2.732   6.560  16.450 -0.9404  1.1285 -0.1564
15143TIP3   OH266919   0.276   5.683   4.057 -0.0309 -0.5864  0.0597
15143TIP3    H166920   0.258   5.600   4.102  1.4767 -1.5539 -1.0771
15143TIP3    H266921   0.299   5.658   3.968 -0.8736  1.1664 -0.6704
15144TIP3   OH266922   2.843   2.701  13.444  0.5390 -0.5368  0.2513
15144TIP3    H166923   2.815   2.770  13.384  0.6960 -0.0419  0.7413
15144TIP3    H266924   2.794   2.623  13.416 -1.3646  0.3096  1.0967
15145TIP3   OH266925   6.341   2.476  11.590  0.6496  0.1320 -0.5998
15145TIP3    H166926   6.310   2.402  11.537 -0.2121  0.7399 -0.9623
15145TIP3    H266927   6.263   2.532  11.600  0.3338 -0.7962  2.7165
15146TIP3   OH266928   2.536   6.746   2.962  0.2585 -0.0116 -0.0902
15146TIP3    H166929   2.573   6.831   2.937  0.4312  0.1944  0.8408
15146TIP3    H266930   2.531   6.749   3.058  1.3560 -1.4920  0.0368
15147TIP3   OH266931   3.039   4.682   4.019  0.1509  0.1803  0.8095
15147TIP3    H166932   3.090   4.634   3.953 -0.3295 -1.7748  1.8104
15147TIP3    H266933   3.084   4.664   4.101 -2.3384 -1.9619  1.7777
15148TIP3   OH266934   1.852   0.018  16.392 -0.5246  0.1630  0.0264
15148TIP3    H166935   1.904  -0.062  16.404 -1.3828 -0.3638  0.2584
15148TIP3    H266936   1.889   0.079  16.456 -0.1980 -0.2122  0.2062
15149TIP3   OH266937   2.968   4.101   3.053  0.5360 -0.1661  0.4152
15149TIP3    H166938   3.014   4.047   2.989 -0.0806  0.8138 -0.8928
15149TIP3    H266939   3.030   4.170   3.076 -0.2881  1.2646 -1.4904
15150TIP3   OH266940   5.422   0.720   4.116 -0.4084  0.2255  0.1425
15150TIP3    H166941   5.446   0.718   4.209 -1.2161 -0.5765  0.3361
15150TIP3    H266942   5.498   0.682   4.071  0.0358  0.7224  0.4558
15151TIP3   OH266943   2.919   6.145   6.463  0.3821 -0.5179  0.1602
15151TIP3    H166944   2.901   6.231   6.500  2.4213  0.1943 -0.4300
15151TIP3    H266945   2.938   6.161   6.371 -0.4590 -1.7506 -0.2352
15152TIP3   OH266946   2.680   0.671  10.982 -0.6157  0.0283  0.2542
15152TIP3    H166947   2.696   0.660  10.888 -0.9932 -1.4724  0.3518
15152TIP3    H266948   2.586   0.688  10.988 -0.6344 -0.1126  0.3714
15153TIP3   OH266949   2.941   1.456  14.901 -0.2312  0.2707 -0.0155
15153TIP3    H166950   2.923   1.420  14.814  0.8064  0.4138 -0.2896
15153TIP3    H266951   2.945   1.551  14.887 -0.0611  0.2939  0.1901
15154TIP3   OH266952   4.001   1.156  14.786 -0.2680  0.5142 -0.2094
15154TIP3    H166953   3.971   1.204  14.709  1.3549  1.6769 -0.1405
15154TIP3    H266954   4.060   1.089  14.751  0.7203  1.2481  0.0382
15155TIP3   OH266955   5.785   2.506  12.908  0.5381 -0.0042  0.6777
15155TIP3    H166956   5.780   2.461  12.993 -0.6344 -1.7828 -0.2898
15155TIP3    H266957   5.866   2.474  12.869  1.0577  0.7830  1.1055
15156TIP3   OH266958   1.522   2.958  16.699 -0.0707 -0.0703  0.3436
15156TIP3    H166959   1.439   3.004  16.684  0.5166  0.7977 -0.2985
15156TIP3    H266960   1.515   2.878  16.647 -1.3087 -0.9911  1.8775
15157TIP3   OH266961   2.410   4.279  14.464  0.6721 -0.2580 -0.4255
15157TIP3    H166962   2.424   4.193  14.425 -1.8069 -0.1775 -1.5573
15157TIP3    H266963   2.407   4.263  14.558 -0.1903 -1.4673 -0.6552
15158TIP3   OH266964   0.367   2.675  12.918 -0.5382  0.5472  0.1154
15158TIP3    H166965   0.392   2.649  13.006 -0.9724 -0.3955 -0.0380
15158TIP3    H266966   0.276   2.703  12.926 -0.5084  0.6761  0.0104
15159TIP3   OH266967   5.336   1.857   4.108  0.1664  0.1101  0.2897
15159TIP3    H166968   5.367   1.941   4.075 -1.2882  0.5181 -0.1017
15159TIP3    H266969   5.363   1.855   4.200  1.8423  0.1701 -0.1953
15160TIP3   OH266970   1.128   1.080   2.564  0.0393  0.2887 -0.5549
15160TIP3    H166971   1.101   1.113   2.478  2.7264  0.6965 -1.3126
15160TIP3    H266972   1.092   0.992   2.569 -0.9544  0.6236 -1.6993
15161TIP3   OH266973   0.049   5.052   3.783  0.4318 -0.0940 -0.4440
15161TIP3    H166974   0.118   4.993   3.815  1.6276 -0.0415 -2.7856
15161TIP3    H266975   0.046   5.035   3.689 -3.2587 -0.5672 -0.2954
15162TIP3   OH266976   0.074   3.931  12.424 -0.4582 -0.3340 -0.5297
15162TIP3    H166977   0.155   3.885  12.401  0.2693  0.1677  0.9583
15162TIP3    H266978   0.089   3.962  12.514 -1.4860  1.5539 -0.9772
15163TIP3   OH266979   0.870   6.590  12.980 -0.2761 -1.0455 -0.1990
15163TIP3    H166980   0.836   6.522  13.039 -0.2426  0.6039  1.7915
15163TIP3    H266981   0.962   6.598  13.003  0.1191 -1.4910 -1.5978
15164TIP3   OH266982   2.925   2.258  15.597  0.0013 -0.3226  0.4599
15164TIP3    H166983   2.948   2.173  15.559  2.5066  0.7853 -0.6381
15164TIP3    H266984   2.840   2.244  15.637 -0.0589 -3.1083 -0.5160
15165TIP3   OH266985   4.394   1.591   1.569  0.0833  0.5393 -0.3910
15165TIP3    H166986   4.383   1.672   1.618  0.9050  1.2285 -1.3220
15165TIP3    H266987   4.346   1.526   1.620  0.8116  1.2507  1.2448
15166TIP3   OH266988   5.014   6.783  16.199 -0.1560  0.2466 -0.2725
15166TIP3    H166989   5.093   6.823  16.164  0.6120 -2.4500 -1.7613
15166TIP3    H266990   4.990   6.717  16.134 -3.2495  0.5515  0.4970
15167TIP3   OH266991   3.950   1.923   6.769  0.5505 -0.0988  0.4101
15167TIP3    H166992   3.940   1.981   6.845  0.5356 -0.3069  0.5663
15167TIP3    H266993   3.942   1.981   6.694  2.3454  0.4066  0.5787
15168TIP3   OH266994   5.797   3.535  11.140  0.4524  0.0612  0.0249
15168TIP3    H166995   5.821   3.449  11.108  1.2010 -0.0631  0.9116
15168TIP3    H266996   5.880   3.579  11.156  0.0846  0.3663  1.1307
15169TIP3   OH266997   1.322   6.168   4.720 -0.0563 -0.4922  0.0165
15169TIP3    H166998   1.338   6.226   4.646 -0.2094  0.5057  0.7594
15169TIP3    H266999   1.255   6.106   4.689 -1.0077  0.6753 -0.2786
15170TIP3   OH267000   6.074   4.470  16.697  0.1503  0.0169  0.0883
15170TIP3    H167001   6.139   4.523  16.743 -0.6657 -0.0030  1.2850
15170TIP3    H267002   6.053   4.399  16.757 -0.7387 -0.1597 -0.4222
15171TIP3   OH267003   5.137   6.253  15.405 -0.3690 -0.4749  0.1897
15171TIP3    H167004   5.215   6.292  15.367 -0.0863 -2.3236 -1.2169
15171TIP3    H267005   5.159   6.160  15.414 -1.8335 -0.7447  1.2844
15172TIP3   OH267006   2.288   6.196  13.240 -0.6300  0.6310 -0.0945
15172TIP3    H167007   2.252   6.202  13.328 -1.7030 -1.6762 -0.3386
15172TIP3    H267008   2.312   6.286  13.217  0.7941  1.0954  3.0031
15173TIP3   OH267009   4.182   5.720  11.006 -0.2877 -0.2926  0.7419
15173TIP3    H167010   4.246   5.658  10.972  0.2806 -0.3956  1.9822
15173TIP3    H267011   4.223   5.805  10.997 -0.6679 -0.1886 -0.0408
15174TIP3   OH267012   6.692   5.284  12.220 -0.3286 -0.2050  0.3024
15174TIP3    H167013   6.737   5.202  12.199 -0.2601 -0.3436  0.9733
15174TIP3    H267014   6.690   5.287  12.316 -0.6497  0.4031  0.2835
15175TIP3   OH267015   0.481   2.994   2.698 -0.0074  0.6275 -0.4693
15175TIP3    H167016   0.564   2.965   2.735 -1.2877 -0.4807  1.6201
15175TIP3    H267017   0.421   2.921   2.712 -0.7921  0.5380 -3.9512
15176TIP3   OH267018   4.894   3.282  11.491  0.1144 -0.2903 -0.4444
15176TIP3    H167019   4.817   3.326  11.527 -0.6916 -0.8652 -1.4287
15176TIP3    H267020   4.954   3.353  11.469  0.3047  0.1041  1.2884
15177TIP3   OH267021   2.768   4.168  11.279  0.2376  0.3806 -0.3904
15177TIP3    H167022   2.844   4.117  11.304  0.4230 -0.1447 -1.9360
15177TIP3    H267023   2.703   4.151  11.347  0.7663 -0.8697 -0.1832
15178TIP3   OH267024   3.063   5.052  16.683  0.0120  0.4372  0.2089
15178TIP3    H167025   3.139   5.052  16.741 -0.3622  0.0568  0.6966
15178TIP3    H267026   3.079   4.979  16.624  0.1044  0.4620  0.2035
15179TIP3   OH267027   6.165   6.138  16.550 -0.1397 -0.4899  0.1530
15179TIP3    H167028   6.072   6.117  16.557 -0.3926  0.8664  1.1510
15179TIP3    H267029   6.174   6.223  16.593  1.2191  0.3463 -1.6743
15180TIP3   OH267030   1.324   4.382   0.654 -0.5093 -0.1038  0.0473
15180TIP3    H167031   1.247   4.360   0.602 -0.5753 -1.6210  0.7406
15180TIP3    H267032   1.398   4.346   0.604 -0.3193  0.7744 -0.3005
15181TIP3   OH267033   6.795   1.872  15.890  0.0604 -0.3168  0.4801
15181TIP3    H167034   6.733   1.869  15.817  0.8405 -0.6265 -0.1743
15181TIP3    H267035   6.740   1.876  15.968 -0.7858 -0.7016 -0.0906
15182TIP3   OH267036   2.551   0.938   1.586  0.2706 -0.3222  0.6992
15182TIP3    H167037   2.483   1.003   1.602  0.7246  0.2225  0.4013
15182TIP3    H267038   2.536   0.909   1.496  1.7709  1.3847 -0.1251
15183TIP3   OH267039   6.684   0.604  14.269 -0.3001  0.0405  0.2593
15183TIP3    H167040   6.667   0.604  14.175 -0.6622 -0.7667  0.3213
15183TIP3    H267041   6.747   0.674  14.282 -0.1457  0.0640 -0.6094
15184TIP3   OH267042   0.884   4.598   4.527  0.2004  0.7900 -0.6781
15184TIP3    H167043   0.819   4.655   4.485  0.1356  2.3308  1.4370
15184TIP3    H267044   0.964   4.612   4.477 -1.2605 -1.8590 -3.9265
15185TIP3   OH267045   1.324   6.762  16.495  1.0421  0.2343  0.3613
15185TIP3    H167046   1.353   6.671  16.503  0.3378  0.0918  1.3617
15185TIP3    H267047   1.395   6.806  16.448  1.6811 -0.6783  0.4613
15186TIP3   OH267048   0.154   1.441   5.360  0.6146 -0.4624  0.5175
15186TIP3    H167049   0.244   1.458   5.330  0.5523 -0.0394  0.5814
15186TIP3    H267050   0.099   1.499   5.308  0.5003  0.2581  1.4278
15187TIP3   OH267051   0.166   6.319   0.406 -0.3576  0.2910 -0.3421
15187TIP3    H167052   0.198   6.355   0.323 -0.9344  0.1161 -0.6443
15187TIP3    H267053   0.092   6.375   0.430 -0.5863 -0.0447 -0.2659
15188TIP3   OH267054   6.396   2.832  14.925 -0.3090  0.3989  0.7506
15188TIP3    H167055   6.307   2.830  14.888 -0.2941  0.2543  0.7192
15188TIP3    H267056   6.385   2.800  15.014 -0.0468 -1.2130  0.2188
15189TIP3   OH267057   1.893   4.527  14.435  0.5626  0.2485 -0.0531
15189TIP3    H167058   1.879   4.486  14.350  0.7964  2.3412 -1.1336
15189TIP3    H267059   1.976   4.573  14.426 -0.7567  2.8024  0.3566
15190TIP3   OH267060   1.083   3.983  11.044  1.0126 -0.2269  0.5069
15190TIP3    H167061   1.169   3.965  11.008  1.0236 -0.6296  0.7417
15190TIP3    H267062   1.057   3.903  11.088 -0.2240 -0.7085 -1.0293
15191TIP3   OH267063   2.065   6.178  12.613 -0.5036 -0.5108 -0.2810
15191TIP3    H167064   1.995   6.128  12.572 -2.6532  0.7035  1.7961
15191TIP3    H267065   2.030   6.203  12.699  1.6543  1.8875 -0.0292
15192TIP3   OH267066   6.646   1.201  15.235 -0.8245 -0.2825  0.0084
15192TIP3    H167067   6.563   1.190  15.281 -0.0132  0.2160  1.6195
15192TIP3    H267068   6.658   1.296  15.230  0.0067 -0.3607  0.4512
15193TIP3   OH267069   3.918   5.779  12.437  0.4536  0.2447  0.1704
15193TIP3    H167070   4.000   5.829  12.442 -0.9563  2.5095  1.0592
15193TIP3    H267071   3.903   5.767  12.343  1.1557  0.9112 -0.0312
15194TIP3   OH267072   5.343   0.539  16.616  0.4775  0.0074 -0.5937
15194TIP3    H167073   5.428   0.558  16.655 -0.6491  1.3057  1.3355
15194TIP3    H267074   5.314   0.458  16.659 -0.0242  0.5376  0.0957
15195TIP3   OH267075   6.524   4.530   0.912 -0.3769  0.4341 -0.5731
15195TIP3    H167076   6.501   4.480   0.834  0.1065 -0.8314  0.0785
15195TIP3    H267077   6.498   4.620   0.891 -2.2192 -0.2550 -1.3641
15196TIP3   OH267078   1.240   0.828  16.973  0.1479  0.0661  0.0573
15196TIP3    H167079   1.153   0.800  17.002  1.1678  0.2173  3.4820
15196TIP3    H267080   1.291   0.747  16.968  0.4701  0.2408  0.4799
15197TIP3   OH267081   3.684   0.798  14.272 -0.2487  0.4956  0.1202
15197TIP3    H167082   3.694   0.791  14.177  0.5942 -1.2234  0.3050
15197TIP3    H267083   3.696   0.891  14.291 -1.6650  1.0675 -1.5801
15198TIP3   OH267084   3.679   3.379  15.790  0.7457 -0.2874  0.3814
15198TIP3    H167085   3.771   3.383  15.816  0.3224  1.8125  1.7295
15198TIP3    H267086   3.644   3.304  15.837  1.4189 -0.1317  1.1468
15199TIP3   OH267087   4.615   5.312  15.916 -0.5414  0.4224 -0.0307
15199TIP3    H167088   4.618   5.281  15.825 -1.6316  2.0714 -0.6452
15199TIP3    H267089   4.562   5.392  15.913  1.6093  1.9830  1.6121
15200TIP3   OH267090   0.062   5.783  16.869  0.3704  0.1733 -0.3889
15200TIP3    H167091   0.014   5.779  16.952  0.2262  3.8961 -0.2081
15200TIP3    H267092   0.131   5.717  16.877  0.4347  0.5809  2.7268
15201TIP3   OH267093   0.724   5.913  13.802 -0.5152  0.5767 -0.1760
15201TIP3    H167094   0.707   5.923  13.709 -1.9881 -0.3033 -0.0123
15201TIP3    H267095   0.791   5.845  13.807 -0.6402  0.4212 -0.5817
15202TIP3   OH267096   1.619   4.329   1.826  0.3110  0.0071 -0.5561
15202TIP3    H167097   1.651   4.411   1.788  1.4025 -0.1111  0.1088
15202TIP3    H267098   1.543   4.354   1.877 -0.5960  0.3092 -2.0263
15203TIP3   OH267099   5.382   2.639   3.013  0.1330  0.2481 -0.0668
15203TIP3    H167100   5.343   2.599   2.935 -2.3246  2.7728 -0.1872
15203TIP3    H267101   5.309   2.651   3.073  1.5310  0.9258  1.5381
15204TIP3   OH267102   1.220   6.451  11.775  0.2232 -0.3277 -0.3973
15204TIP3    H167103   1.190   6.542  11.774  0.5198 -0.2144  0.3092
15204TIP3    H267104   1.310   6.456  11.808 -0.1815 -0.9738  0.8591
15205TIP3   OH267105   4.121   6.020   3.534  0.5602 -0.4579  0.0167
15205TIP3    H167106   4.139   5.948   3.473  2.3397  1.3497 -1.7194
15205TIP3    H267107   4.207   6.041   3.571  0.4554  2.0714 -1.0728
15206TIP3   OH267108   4.922   2.353   6.102 -0.0438  0.6989  0.0083
15206TIP3    H167109   5.011   2.387   6.100 -0.1390  0.9784  0.4511
15206TIP3    H267110   4.916   2.303   6.183  0.0322 -0.2192 -0.5469
15207TIP3   OH267111   2.932   3.895  16.971 -1.0324 -0.6824 -0.4013
15207TIP3    H167112   2.988   3.909  16.894  2.3150 -1.3159  1.7969
15207TIP3    H267113   2.932   3.979  17.016  0.5152 -1.4303  1.0572
15208TIP3   OH267114   1.867   2.183  14.802 -0.1426 -0.1864 -0.0030
15208TIP3    H167115   1.927   2.184  14.877 -0.2166  0.8355  0.0503
15208TIP3    H267116   1.864   2.091  14.775 -0.0454 -0.5465  1.1876
15209TIP3   OH267117   1.617   1.179   4.740  0.1169  0.2880  0.3572
15209TIP3    H167118   1.605   1.089   4.770 -0.1789  0.3709  0.4863
15209TIP3    H267119   1.599   1.232   4.817 -0.7842  0.5060 -0.0063
15210TIP3   OH267120   2.119   2.489  15.989 -0.2835  0.7300 -0.4192
15210TIP3    H167121   2.214   2.495  15.996 -0.2324  0.2079 -0.6198
15210TIP3    H267122   2.087   2.572  16.025  0.1827  0.2214  1.2082
15211TIP3   OH267123   1.555   0.217  10.773  0.0757 -0.7191  0.8413
15211TIP3    H167124   1.651   0.216  10.773  0.1064  0.6789 -0.5149
15211TIP3    H267125   1.532   0.308  10.750 -1.5611 -1.4617 -0.5529
15212TIP3   OH267126   1.730   6.671  15.997  0.0900  0.3942  0.5585
15212TIP3    H167127   1.715   6.597  15.938 -2.7698  1.5657 -0.2658
15212TIP3    H267128   1.756   6.630  16.080 -1.3349 -1.5695  0.0789
15213TIP3   OH267129   3.097   3.537  14.359 -0.2284 -0.2796 -0.0904
15213TIP3    H167130   3.120   3.557  14.449 -0.6547  1.2232 -0.3011
15213TIP3    H267131   3.177   3.502  14.321  0.6037  1.1842  0.2730
15214TIP3   OH267132   3.823   4.297   1.723 -0.1329  0.2865  0.1033
15214TIP3    H167133   3.863   4.228   1.669 -1.4849  1.0464 -1.9613
15214TIP3    H267134   3.867   4.377   1.696  0.3303  0.4610  1.3555
15215TIP3   OH267135   2.167   3.109  16.114 -0.2700 -0.2600 -0.2601
15215TIP3    H167136   2.149   3.131  16.206 -0.3941 -1.7947  0.0922
15215TIP3    H267137   2.233   3.040  16.118 -1.0556 -1.0796 -1.2963
15216TIP3   OH267138   3.464   6.498  10.991 -0.0067 -0.2287  0.1424
15216TIP3    H167139   3.513   6.427  11.033  2.7244  1.7710  0.4468
15216TIP3    H267140   3.441   6.558  11.061 -2.3962 -0.7917 -0.1033
15217TIP3   OH267141   4.078   4.327   3.596 -0.3360 -0.5679  0.3237
15217TIP3    H167142   4.097   4.233   3.605  0.8224 -0.3990 -0.2135
15217TIP3    H267143   4.145   4.358   3.535 -0.7316  0.6091  0.4918
15218TIP3   OH267144   1.278   0.569  15.065  0.8318 -0.2472  0.1588
15218TIP3    H167145   1.216   0.616  15.120  1.1942 -2.1199  2.2722
15218TIP3    H267146   1.268   0.607  14.978 -1.5748  1.0798  0.9819
15219TIP3   OH267147   6.696   0.562   6.067 -0.0259  0.1669  0.4619
15219TIP3    H167148   6.609   0.531   6.040  0.4196  0.2413 -1.1154
15219TIP3    H267149   6.750   0.483   6.066 -0.1866  0.0246  1.9804
15220TIP3   OH267150   0.547   1.133   5.462  0.6956 -0.3337  0.2384
15220TIP3    H167151   0.633   1.141   5.503  0.4162  0.7546  0.6481
15220TIP3    H267152   0.486   1.164   5.529  0.1299  0.3316 -0.5731
15221TIP3   OH267153   6.151   5.614  16.456  0.0540 -0.1161 -0.8014
15221TIP3    H167154   6.209   5.544  16.426  0.6023  0.2112 -0.5229
15221TIP3    H267155   6.210   5.685  16.482 -0.3990 -0.4224  1.1439
15222TIP3   OH267156   4.873   2.054   5.888  0.3227  0.4552 -0.0399
15222TIP3    H167157   4.850   1.991   5.957 -0.6334 -0.2576 -1.0017
15222TIP3    H267158   4.968   2.045   5.879  0.1294 -1.2285 -0.5227
15223TIP3   OH267159   1.959   6.478   5.721 -0.3821 -0.2517 -0.8252
15223TIP3    H167160   1.876   6.438   5.749 -0.3494  0.3594  0.1987
15223TIP3    H267161   2.003   6.410   5.671  0.4739 -2.1734  2.4042
15224TIP3   OH267162   0.838   5.141   5.746 -0.2581 -0.1012 -0.3759
15224TIP3    H167163   0.782   5.065   5.761 -1.3109  0.9178  0.9382
15224TIP3    H267164   0.781   5.206   5.704  0.6314 -0.0091 -1.4883
15225TIP3   OH267165   0.980   1.545   2.644 -0.2879  0.2339 -0.1960
15225TIP3    H167166   1.003   1.485   2.573 -0.3988  1.3050 -1.1353
15225TIP3    H267167   1.045   1.614   2.640 -1.3952  1.2821 -0.4624
15226TIP3   OH267168   4.010   1.625  13.265  0.3912 -0.1247 -0.4442
15226TIP3    H167169   3.938   1.562  13.260 -0.1358  0.4727 -0.4445
15226TIP3    H267170   4.089   1.571  13.267  0.0551 -0.7558 -2.6197
15227TIP3   OH267171   2.003   0.078   2.137  0.0678  0.1715 -0.0100
15227TIP3    H167172   2.000   0.170   2.163  1.7576  0.6707 -1.4542
15227TIP3    H267173   1.934   0.069   2.072 -0.5012  0.2668  0.5794
15228TIP3   OH267174   1.957   3.693   5.320  0.3357  0.0187  0.5327
15228TIP3    H167175   2.010   3.677   5.398  0.6054 -1.3983  0.0867
15228TIP3    H267176   2.020   3.691   5.248 -0.5057 -3.5326 -0.1989
15229TIP3   OH267177   2.795   3.680  14.867  0.6023  0.2408 -0.0558
15229TIP3    H167178   2.882   3.656  14.900  0.3069  1.1912  1.4750
15229TIP3    H267179   2.809   3.762  14.819  0.4300  0.8907  0.9720
15230TIP3   OH267180   3.510   5.056  12.008 -0.3007 -0.3520  0.4954
15230TIP3    H167181   3.472   4.968  12.004 -0.3228 -0.2950 -1.0631
15230TIP3    H267182   3.590   5.045  12.059  0.3241 -1.5301 -0.6999
15231TIP3   OH267183   2.747   1.403  15.337  0.0779 -0.5381  0.9142
15231TIP3    H167184   2.729   1.497  15.328 -0.5580 -0.7037  0.3712
15231TIP3    H267185   2.671   1.369  15.384 -0.2993 -0.9808  0.0073
15232TIP3   OH267186   4.436   6.809   2.802  0.4756 -0.5942  0.3848
15232TIP3    H167187   4.499   6.783   2.734 -1.2819  0.4947 -1.7406
15232TIP3    H267188   4.431   6.904   2.795 -0.8880 -0.6107  0.9841
15233TIP3   OH267189   0.974   1.013   3.251 -0.0250 -0.6313  0.1629
15233TIP3    H167190   1.009   0.927   3.227 -0.1332 -0.0660 -2.1966
15233TIP3    H267191   0.932   1.045   3.170  0.6248  1.9337  0.7982
15234TIP3   OH267192   2.759   0.519   6.298  0.1598 -0.5062  0.4513
15234TIP3    H167193   2.829   0.538   6.236  1.4987  0.3973  2.2133
15234TIP3    H267194   2.748   0.424   6.294  0.9579 -0.5607 -0.3923
15235TIP3   OH267195   0.910   4.624  13.311 -0.6508  0.3036 -0.2855
15235TIP3    H167196   0.900   4.645  13.219 -5.5937 -0.0613  0.0371
15235TIP3    H267197   0.905   4.528  13.315 -1.6197  0.3782  0.4469
15236TIP3   OH267198   5.949   3.984  13.527 -0.0842 -0.3226 -0.8148
15236TIP3    H167199   5.992   4.057  13.483  1.0427 -0.4495  0.0745
15236TIP3    H267200   6.019   3.938  13.572 -1.2137 -0.1697  1.1685
15237TIP3   OH267201   4.861   4.329   1.812 -0.2193 -0.1402  0.0912
15237TIP3    H167202   4.912   4.331   1.732 -1.4954  1.1716 -0.7274
15237TIP3    H267203   4.811   4.248   1.807  0.2931 -0.4467 -0.0607
15238TIP3   OH267204   1.730   5.989   0.694  0.0237  0.2389  0.3695
15238TIP3    H167205   1.698   5.967   0.781  0.9451  0.1179  0.6887
15238TIP3    H267206   1.732   6.085   0.692 -0.5650  0.2501  0.2653
15239TIP3   OH267207   6.507   2.418  15.754 -0.5300 -0.0890 -0.6085
15239TIP3    H167208   6.434   2.439  15.813 -0.6999 -1.6406 -0.2612
15239TIP3    H267209   6.580   2.469  15.787 -1.2283  0.8117 -0.4346
15240TIP3   OH267210   4.948   4.613  14.386  0.0294 -0.6838 -0.0321
15240TIP3    H167211   4.904   4.698  14.384  2.5225  0.6252 -2.4644
15240TIP3    H267212   4.882   4.552  14.354 -1.2625  0.6004  0.0886
15241TIP3   OH267213   2.144   0.994  16.626 -0.5627 -0.3132  0.4199
15241TIP3    H167214   2.237   1.015  16.616 -0.8794  0.7521 -0.3533
15241TIP3    H267215   2.137   0.959  16.715  1.0479 -2.9951 -0.4382
15242TIP3   OH267216   6.037   1.931  17.073 -0.0251 -0.1411 -0.4638
15242TIP3    H167217   5.990   1.992  17.016  2.6431  1.9098 -0.5932
15242TIP3    H267218   6.094   1.882  17.014 -0.9057 -1.5646 -0.1404
15243TIP3   OH267219   4.464   5.638   4.568 -0.2162 -0.1628 -0.6978
15243TIP3    H167220   4.388   5.630   4.625  1.4420  1.2196  1.8030
15243TIP3    H267221   4.472   5.733   4.552  2.1043 -0.0829  0.7099
15244TIP3   OH267222   0.417   1.572  13.016  0.1725  0.2914 -0.5513
15244TIP3    H167223   0.469   1.492  13.011 -0.0915  0.1022 -0.2512
15244TIP3    H267224   0.446   1.614  13.097 -2.2400 -1.2735  1.1878
15245TIP3   OH267225   3.016   1.841  17.182  0.1262 -0.5850  0.3654
15245TIP3    H167226   3.074   1.767  17.168 -0.2191 -0.7830 -0.0257
15245TIP3    H267227   3.022   1.860  17.275 -0.9229 -2.0485  0.7430
15246TIP3   OH267228   4.883   0.609   2.509 -0.0837  0.3366  1.0094
15246TIP3    H167229   4.968   0.571   2.532  1.1656  2.0202 -0.5164
15246TIP3    H267230   4.887   0.698   2.545 -0.9337  0.6174  0.4229
15247TIP3   OH267231   5.330   0.563  15.569 -0.1043 -0.1953  0.1636
15247TIP3    H167232   5.256   0.530  15.518 -0.4860  0.2945  0.3964
15247TIP3    H267233   5.360   0.640  15.521 -0.5187  0.3194  0.7128
15248TIP3   OH267234   0.974   0.638   3.549 -0.5300 -0.6261  0.5839
15248TIP3    H167235   0.979   0.712   3.609  0.2611  0.3378 -0.6629
15248TIP3    H267236   0.918   0.668   3.478 -1.8962 -1.9498  1.0683
15249TIP3   OH267237   0.271   0.078   1.578  0.0084  0.0900 -0.3666
15249TIP3    H167238   0.279   0.095   1.484 -0.3857 -2.0449 -0.8343
15249TIP3    H267239   0.339   0.012   1.596 -0.7320 -0.4276  0.5729
15250TIP3   OH267240   1.888   4.785   3.505 -0.4225 -0.0922 -0.0986
15250TIP3    H167241   1.923   4.758   3.590  0.8099 -0.0641 -0.5915
15250TIP3    H267242   1.896   4.880   3.505  0.5883 -0.1681 -0.6712
15251TIP3   OH267243   0.995   4.182   3.669 -0.6741 -0.2808 -0.5639
15251TIP3    H167244   1.038   4.114   3.719 -0.6017  0.3737  0.2714
15251TIP3    H267245   1.054   4.200   3.596 -1.0108 -1.5768 -1.1617
15252TIP3   OH267246   1.419   4.883  14.946 -0.2404 -0.1226  0.2421
15252TIP3    H167247   1.378   4.968  14.958  1.5314  0.7723  0.2024
15252TIP3    H267248   1.360   4.821  14.987  0.0918  1.5387  3.3503
15253TIP3   OH267249   3.806   4.528   4.952 -0.4012  0.7089 -0.1296
15253TIP3    H167250   3.772   4.499   4.867 -0.7524  0.7958 -0.0187
15253TIP3    H267251   3.900   4.532   4.939 -0.4163  0.3204 -0.3956
15254TIP3   OH267252   5.809   0.344  13.394  0.4734 -0.3016  0.2417
15254TIP3    H167253   5.718   0.355  13.364  0.5534 -0.8366 -0.2003
15254TIP3    H267254   5.849   0.286  13.329  0.0432 -3.3366  2.5878
15255TIP3   OH267255   4.177   1.433  10.946  0.4127 -0.7482 -0.3227
15255TIP3    H167256   4.128   1.490  11.005 -2.4318 -1.3736 -1.9919
15255TIP3    H267257   4.251   1.486  10.917 -0.6174  1.1086  0.3390
15256TIP3   OH267258   2.596   1.256   2.936  0.4971 -0.0966 -0.4791
15256TIP3    H167259   2.609   1.331   2.994 -0.7981 -0.8536  0.8232
15256TIP3    H267260   2.628   1.285   2.851 -1.1275  2.3372 -0.2816
15257TIP3   OH267261   0.626   2.823   2.351  0.5025  0.1812 -0.1546
15257TIP3    H167262   0.693   2.891   2.348  1.0920 -0.4362 -0.8540
15257TIP3    H267263   0.627   2.783   2.264 -1.1329  0.5172 -0.3582
15258TIP3   OH267264   4.485   5.417   4.800 -0.2455 -0.2915 -0.1029
15258TIP3    H167265   4.453   5.507   4.804  0.9894  0.2445 -1.6315
15258TIP3    H267266   4.406   5.364   4.795 -0.9882  0.6938  1.0005
15259TIP3   OH267267   1.541   6.506  15.561 -0.1294 -0.1865 -0.5446
15259TIP3    H167268   1.567   6.540  15.476 -0.4446 -0.6389 -0.8231
15259TIP3    H267269   1.446   6.506  15.560 -0.1809  1.9558  0.6781
15260TIP3   OH267270   1.698   5.481   5.162  0.2304 -0.2183 -0.0539
15260TIP3    H167271   1.681   5.480   5.067  1.2860  0.8298 -0.2623
15260TIP3    H267272   1.776   5.535   5.172 -0.4987  0.5730  1.5309
15261TIP3   OH267273   4.540   2.063  12.211  0.2926 -0.0217 -0.0340
15261TIP3    H167274   4.448   2.039  12.196  0.3123  0.4655 -0.9523
15261TIP3    H267275   4.574   2.085  12.124  0.8630  1.2562  0.5038
15262TIP3   OH267276   3.110   6.217  11.019 -0.3792  0.9276  0.2370
15262TIP3    H167277   3.041   6.255  11.074 -1.4650  1.5760 -1.5238
15262TIP3    H267278   3.146   6.291  10.971 -0.0027  0.2570 -0.5249
15263TIP3   OH267279   5.541   1.235   2.817  0.0725 -0.4051 -0.0196
15263TIP3    H167280   5.550   1.314   2.763 -2.3769 -0.9440 -1.3022
15263TIP3    H267281   5.608   1.176   2.785  2.4057  1.3745  1.4230
15264TIP3   OH267282   5.656   0.403  13.987 -0.0292 -0.4238 -0.6210
15264TIP3    H167283   5.734   0.352  13.963  0.0786 -0.5269 -0.0500
15264TIP3    H267284   5.600   0.340  14.034  0.8718  0.4317  1.6374
15265TIP3   OH267285   0.109   2.367   0.145 -0.4301  0.6749  0.1246
15265TIP3    H167286   0.122   2.324   0.060 -0.3563  1.8190 -0.4546
15265TIP3    H267287   0.063   2.302   0.198 -0.5375 -0.0308 -0.8224
15266TIP3   OH267288   2.261   2.150  11.103 -1.0123  0.3633  0.4344
15266TIP3    H167289   2.286   2.234  11.063 -2.2769 -0.0203 -1.2187
15266TIP3    H267290   2.285   2.159  11.195 -0.1768  2.1547  0.0657
15267TIP3   OH267291   5.365   4.454  15.959  0.0037  0.0624  0.2379
15267TIP3    H167292   5.457   4.471  15.980  0.0033 -0.2113  0.4691
15267TIP3    H267293   5.369   4.396  15.883 -0.0033  1.7734 -1.0926
15268TIP3   OH267294   5.111   5.765   2.734 -0.2977  0.2970 -0.0107
15268TIP3    H167295   5.068   5.847   2.710 -1.5781 -0.5772 -0.7874
15268TIP3    H267296   5.163   5.786   2.811 -2.2008  1.3739  1.0065
15269TIP3   OH267297   3.978   2.273   3.057 -0.0766 -0.1338 -0.2025
15269TIP3    H167298   3.946   2.266   3.146  2.4332  1.2585  0.8626
15269TIP3    H267299   3.984   2.183   3.026 -0.7703 -0.6351  1.1099
15270TIP3   OH267300   3.776   1.127   0.119  0.3853 -0.0442 -0.2102
15270TIP3    H167301   3.740   1.173   0.195  0.4636  0.8221 -0.6887
15270TIP3    H267302   3.722   1.156   0.046  2.2582  1.5456 -1.0074
15271TIP3   OH267303   4.027   3.832  13.059  0.2010  0.0213 -0.7116
15271TIP3    H167304   3.975   3.784  12.994 -0.8676  1.4023 -0.8928
15271TIP3    H267305   4.073   3.763  13.107 -2.7970 -1.3877  0.3213
15272TIP3   OH267306   4.989   3.641   2.357  0.1372 -0.4084 -0.5275
15272TIP3    H167307   4.991   3.677   2.446  1.0726 -0.7927 -0.3808
15272TIP3    H267308   5.019   3.551   2.367 -0.6722 -0.7458 -1.1067
15273TIP3   OH267309   4.587   6.172  13.275 -0.0423 -0.1509 -0.6958
15273TIP3    H167310   4.588   6.216  13.360  1.2545 -1.1986 -0.1673
15273TIP3    H267311   4.663   6.114  13.276  0.2989  0.2131 -2.7778
15274TIP3   OH267312   4.389   1.454   5.475 -0.1094 -0.0174  0.2176
15274TIP3    H167313   4.349   1.403   5.405  0.9243  2.7903 -2.5382
15274TIP3    H267314   4.327   1.526   5.490  0.9768  0.9315  0.2301
15275TIP3   OH267315   5.089   3.981   4.857 -0.4363  0.2482 -0.2297
15275TIP3    H167316   5.171   3.976   4.807 -0.5242 -1.2580 -0.2472
15275TIP3    H267317   5.115   3.965   4.947 -0.7083 -0.2203 -0.2351
15276TIP3   OH267318   6.586   1.821  14.559 -0.3115  0.0596  0.5687
15276TIP3    H167319   6.590   1.760  14.485  1.2105  0.1645  0.5623
15276TIP3    H267320   6.671   1.864  14.559 -0.9737  1.3787  1.2702
15277TIP3   OH267321   4.524   1.254  11.421 -0.4526 -0.9959  0.3345
15277TIP3    H167322   4.601   1.268  11.475 -0.5529  1.1742 -0.0578
15277TIP3    H267323   4.485   1.172  11.454  1.0467 -1.1864  1.6378
15278TIP3   OH267324   0.321   2.961  11.994  0.9191 -0.6118 -0.2806
15278TIP3    H167325   0.399   2.906  12.007  2.5754  1.7139 -0.2031
15278TIP3    H267326   0.258   2.927  12.058  1.6219 -2.9231 -0.7625
15279TIP3   OH267327   5.338   4.971   0.110  0.2681 -0.1584  0.0076
15279TIP3    H167328   5.404   4.902   0.111  1.2692  0.7507 -1.3389
15279TIP3    H267329   5.328   4.997   0.201  1.2166 -0.8074  0.2988
15280TIP3   OH267330   4.502   0.018   6.346 -0.7670 -0.6872 -0.7604
15280TIP3    H167331   4.564  -0.041   6.389 -0.3581 -0.1937 -0.6657
15280TIP3    H267332   4.419   0.001   6.389 -0.9722 -2.2151 -1.6921
15281TIP3   OH267333   5.782   2.840  16.194  0.5537 -0.0082  0.4134
15281TIP3    H167334   5.748   2.830  16.283 -1.6252  0.8346 -0.2846
15281TIP3    H267335   5.708   2.875  16.144  1.6311 -0.8324 -1.8178
15282TIP3   OH267336   1.793   1.003  14.937 -0.0806 -0.3469 -0.9764
15282TIP3    H167337   1.752   0.924  14.900  1.8320 -2.0506  0.3948
15282TIP3    H267338   1.859   1.028  14.872  0.6586 -1.0805 -0.5296
15283TIP3   OH267339   0.391   1.448  15.023  0.2810 -0.1580  0.2915
15283TIP3    H167340   0.454   1.396  15.073  1.6596  0.4285 -0.8126
15283TIP3    H267341   0.321   1.386  15.003  0.8526 -1.0207  0.9025
15284TIP3   OH267342   2.744   5.802  12.471 -0.6992 -0.5331 -0.2500
15284TIP3    H167343   2.735   5.787  12.566 -2.2243 -1.3076 -0.5049
15284TIP3    H267344   2.836   5.826  12.460 -0.7681  0.7557  1.5901
15285TIP3   OH267345   3.852   1.392  17.118  0.1748  0.4295  0.1831
15285TIP3    H167346   3.765   1.431  17.110  0.0908  0.3392  0.6062
15285TIP3    H267347   3.912   1.461  17.090 -0.2081 -0.7225 -3.6602
15286TIP3   OH267348   5.030   6.216  13.179 -0.0052  0.1897  0.0535
15286TIP3    H167349   5.103   6.172  13.223 -0.1656 -0.0787  0.0548
15286TIP3    H267350   5.069   6.253  13.099 -0.1554 -1.1800 -0.6683
15287TIP3   OH267351   4.460   1.465  12.812 -0.2943  0.5750 -0.0225
15287TIP3    H167352   4.494   1.525  12.746 -0.1990  0.2190 -0.3002
15287TIP3    H267353   4.535   1.411  12.837 -0.4838  0.2645 -0.1138
15288TIP3   OH267354   4.820   3.259   1.493  0.2615 -0.0841  0.9737
15288TIP3    H167355   4.837   3.353   1.506  0.1620  0.1131 -0.2545
15288TIP3    H267356   4.885   3.216   1.548  1.7881  0.7064 -0.1501
15289TIP3   OH267357   2.619   5.855  10.568  0.2397 -0.4236  0.0293
15289TIP3    H167358   2.706   5.852  10.529 -0.4063 -1.1207 -1.4085
15289TIP3    H267359   2.603   5.948  10.584  0.7620 -0.1755 -0.8332
15290TIP3   OH267360   0.364   3.975   4.044 -0.2258 -0.6325 -0.3237
15290TIP3    H167361   0.301   4.000   4.111 -0.6774 -0.6688 -0.7297
15290TIP3    H267362   0.374   4.053   3.990 -0.1784 -0.7317 -0.4594
15291TIP3   OH267363   0.591   4.362   6.025 -0.3872 -0.5093 -0.4144
15291TIP3    H167364   0.555   4.334   6.110 -0.9097  2.3465  0.4001
15291TIP3    H267365   0.686   4.357   6.036 -0.3759  2.2061  1.2915
15292TIP3   OH267366   5.711   1.304   3.790  0.5637  0.8471  0.1256
15292TIP3    H167367   5.637   1.326   3.847  0.5711 -0.3613  0.6037
15292TIP3    H267368   5.733   1.387   3.748 -1.5561  1.0606 -0.6103
15293TIP3   OH267369   3.005   3.047   2.175 -0.6225 -0.2547 -0.4838
15293TIP3    H167370   2.938   3.094   2.125 -1.0017 -1.1213 -0.8053
15293TIP3    H267371   3.004   2.959   2.138  0.6556 -0.2900 -0.4409
15294TIP3   OH267372   2.720   6.547  14.475  0.4062 -0.0821 -0.2537
15294TIP3    H167373   2.676   6.464  14.458 -2.1322  1.4640 -1.5160
15294TIP3    H267374   2.673   6.585  14.549  1.6443  0.1981  0.4091
15295TIP3   OH267375   6.416   4.723  14.793  0.1715 -0.2452  0.8388
15295TIP3    H167376   6.321   4.721  14.783  0.2110 -2.4836  0.6197
15295TIP3    H267377   6.439   4.634  14.819  2.2054  0.2787  0.9022
15296TIP3   OH267378   2.172   1.927  15.937  0.1045 -0.0019  0.0739
15296TIP3    H167379   2.183   1.834  15.918  1.2847  0.5568 -2.2167
15296TIP3    H267380   2.092   1.952  15.889  1.6220  0.8423 -2.1210
15297TIP3   OH267381   5.805   1.458   2.344  0.0607 -0.4459 -0.4657
15297TIP3    H167382   5.893   1.421   2.357 -0.5840 -1.7500  0.2954
15297TIP3    H267383   5.816   1.552   2.360  1.4770 -0.4674 -1.1807
15298TIP3   OH267384   4.413   5.320  13.242  0.0198  0.6992  0.3157
15298TIP3    H167385   4.427   5.341  13.334  2.8179 -0.6816  0.2448
15298TIP3    H267386   4.477   5.374  13.195 -0.3311  0.2411 -0.7089
15299TIP3   OH267387   5.473   1.634   2.210 -0.0347  0.4128  0.2902
15299TIP3    H167388   5.484   1.605   2.301 -0.7236 -2.2098 -0.4212
15299TIP3    H267389   5.563   1.651   2.180  0.3691 -0.6082  0.8806
15300TIP3   OH267390   4.570   4.793   0.316  0.4203  0.5402 -0.3032
15300TIP3    H167391   4.645   4.745   0.281 -0.5255 -0.2978 -1.2455
15300TIP3    H267392   4.498   4.730   0.311 -0.9801  2.2138 -2.0755
15301TIP3   OH267393   6.227   3.158  17.045 -0.6752  0.1107 -0.4495
15301TIP3    H167394   6.144   3.143  16.999 -0.1522  0.3376 -1.4992
15301TIP3    H267395   6.202   3.182  17.134 -1.7354  0.0442 -0.7270
15302TIP3   OH267396   2.207   6.136   4.529 -0.4215  0.8588  0.6330
15302TIP3    H167397   2.188   6.165   4.440 -0.1689  2.3757  1.0577
15302TIP3    H267398   2.289   6.180   4.552  0.0677 -0.3314  1.2523
15303TIP3   OH267399   1.076   5.870  13.357 -0.1074 -0.1252  0.1619
15303TIP3    H167400   1.107   5.934  13.421 -0.7574 -2.1104  2.5387
15303TIP3    H267401   0.986   5.851  13.384 -0.9248  0.0914 -2.2678
15304TIP3   OH267402   5.160   5.386  14.107 -0.1249 -0.0651 -0.0918
15304TIP3    H167403   5.111   5.432  14.175  0.5250 -0.7284  0.8369
15304TIP3    H267404   5.093   5.346  14.052 -0.7166  2.3949 -1.2218
15305TIP3   OH267405   5.748   2.202  12.984 -0.2877  0.0852 -0.1814
15305TIP3    H167406   5.743   2.108  13.002 -2.2170  0.1183 -0.4573
15305TIP3    H267407   5.774   2.241  13.068  0.0718 -0.6574  0.0508
15306TIP3   OH267408   0.316   2.632  15.032 -0.5707  0.3646 -0.0192
15306TIP3    H167409   0.355   2.666  14.951  0.2551 -1.0585 -0.2390
15306TIP3    H267410   0.224   2.619  15.011 -1.0341  2.9126  0.2259
15307TIP3   OH267411   3.678   3.562  12.730 -0.1138 -0.4380  0.3271
15307TIP3    H167412   3.592   3.576  12.690  0.9605  0.5261 -1.7671
15307TIP3    H267413   3.691   3.467  12.725 -0.5477 -0.4650 -0.4839
15308TIP3   OH267414   0.694   5.248   2.634  0.1433  0.8544 -0.8514
15308TIP3    H167415   0.698   5.209   2.546  0.6696  1.0140 -0.9021
15308TIP3    H267416   0.601   5.265   2.648  0.1683  1.9640 -1.8879
15309TIP3   OH267417   0.485   0.207   3.516 -0.8909  0.4704 -0.3984
15309TIP3    H167418   0.448   0.147   3.580  0.6469  0.3435  0.3997
15309TIP3    H267419   0.429   0.285   3.520 -0.7073  0.5299  1.2447
15310TIP3   OH267420   0.074   0.498  11.548  0.2858 -0.2090  0.6649
15310TIP3    H167421   0.084   0.591  11.529  0.4832 -0.5190 -0.8256
15310TIP3    H267422   0.001   0.469  11.493  2.5035 -1.6724 -1.6150
15311TIP3   OH267423   4.616   0.734  13.852  1.1182  0.8603 -0.0171
15311TIP3    H167424   4.633   0.666  13.917 -0.3249 -0.2919 -0.8028
15311TIP3    H267425   4.520   0.735  13.844  1.3312 -0.4663 -3.5929
15312TIP3   OH267426   6.318   6.647  16.090  0.2342  0.4294  0.6906
15312TIP3    H167427   6.365   6.651  16.173  1.1230  0.5574  0.1893
15312TIP3    H267428   6.348   6.566  16.049  2.4121  2.0311 -1.0182
15313TIP3   OH267429   1.548   2.459   6.240  0.2680 -0.3328  0.2241
15313TIP3    H167430   1.632   2.458   6.194  0.0689  0.8555 -0.1978
15313TIP3    H267431   1.557   2.529   6.305 -0.9386  0.8906 -0.8983
15314TIP3   OH267432   2.626   2.844   3.754 -0.3281 -0.1730  0.6972
15314TIP3    H167433   2.590   2.927   3.724 -1.0136 -1.0047 -0.8200
15314TIP3    H267434   2.656   2.862   3.843 -0.7394  1.6146  0.4931
15315TIP3   OH267435   1.697   1.937  13.809  0.2458 -0.2347  0.0471
15315TIP3    H167436   1.665   1.968  13.894 -0.6053  0.8367 -0.6536
15315TIP3    H267437   1.790   1.957  13.810  0.0597  0.6358  0.3558
15316TIP3   OH267438   3.257   5.994   0.772  0.2649  0.1613 -0.9337
15316TIP3    H167439   3.240   6.045   0.693 -1.6991  1.3268  0.1750
15316TIP3    H267440   3.190   5.925   0.771 -0.8864  1.2365  0.5708
15317TIP3   OH267441   6.330   2.590  13.647  0.7041 -0.6519 -0.2166
15317TIP3    H167442   6.390   2.521  13.677  0.5944 -1.5113 -1.9117
15317TIP3    H267443   6.285   2.551  13.572 -0.1638  0.8855 -0.5035
15318TIP3   OH267444   6.349   3.401  13.297  0.3037 -0.3938 -0.2071
15318TIP3    H167445   6.393   3.329  13.342 -1.5479 -1.0375  0.6356
15318TIP3    H267446   6.386   3.480  13.336  3.2550 -0.8128 -1.9974
15319TIP3   OH267447   6.773   5.949  12.498  0.6665 -0.2327 -0.1356
15319TIP3    H167448   6.763   5.984  12.410  2.8016  0.5054 -0.1086
15319TIP3    H267449   6.793   5.856  12.485 -0.4981 -0.4644 -0.3545
15320TIP3   OH267450   6.476   1.367   0.610  0.3804 -0.2356 -0.0494
15320TIP3    H167451   6.474   1.462   0.615  0.4548 -0.3195  2.3006
15320TIP3    H267452   6.534   1.348   0.537 -1.1404  1.5212 -1.7485
15321TIP3   OH267453   1.849   5.667  12.053 -0.1475 -0.7940  0.0761
15321TIP3    H167454   1.866   5.602  12.121 -0.3152 -2.5066 -1.4752
15321TIP3    H267455   1.921   5.729  12.060 -1.1733  0.1457  3.0506
15322TIP3   OH267456   4.516   0.360  10.980 -0.0246 -0.1732 -0.0876
15322TIP3    H167457   4.571   0.427  11.019 -0.1173 -0.5829  0.7649
15322TIP3    H267458   4.577   0.304  10.931 -0.0504  1.0064 -1.5249
15323TIP3   OH267459   4.574   2.677  14.814  0.0662  0.4446  0.4342
15323TIP3    H167460   4.507   2.626  14.860 -0.0196 -0.8012 -1.0177
15323TIP3    H267461   4.650   2.619  14.811  1.2816  1.9024  2.1758
15324TIP3   OH267462   1.742   2.322  11.813  0.0028  0.3779  0.2097
15324TIP3    H167463   1.705   2.245  11.855 -1.2347  0.6825 -0.3092
15324TIP3    H267464   1.806   2.287  11.750 -1.1298 -0.2690 -0.5974
15325TIP3   OH267465   5.554   2.138  17.132 -0.1438  0.4202 -0.3307
15325TIP3    H167466   5.512   2.152  17.047 -0.6855 -0.3971 -0.2116
15325TIP3    H267467   5.600   2.054  17.122 -0.3633  0.2255  0.2271
15326TIP3   OH267468   4.477   3.380  14.460  0.0042  0.4583 -0.6599
15326TIP3    H167469   4.570   3.398  14.443  0.8154 -0.3788  2.5854
15326TIP3    H267470   4.435   3.466  14.461  0.9705  0.9400 -0.9718
15327TIP3   OH267471   5.973   0.156   1.591 -0.0854  0.3332 -0.2785
15327TIP3    H167472   6.014   0.076   1.559  2.1832  0.9448  0.9336
15327TIP3    H267473   5.908   0.127   1.654  0.1384 -0.5946 -0.4688
15328TIP3   OH267474   1.556   6.104   4.386 -0.0261 -0.7197  0.2214
15328TIP3    H167475   1.619   6.032   4.376  1.3703  0.5615 -0.3541
15328TIP3    H267476   1.482   6.065   4.433  0.5754 -2.6096 -0.3694
15329TIP3   OH267477   1.531   2.356   4.317 -0.6381 -0.1832 -0.1765
15329TIP3    H167478   1.583   2.389   4.390  0.9239 -1.2959 -0.7770
15329TIP3    H267479   1.506   2.268   4.344 -0.7191 -0.3060 -0.6560
15330TIP3   OH267480   1.896   3.078  16.726 -0.8922  0.0176  0.2993
15330TIP3    H167481   1.921   3.123  16.806  0.0172  0.6122 -0.3126
15330TIP3    H267482   1.803   3.098  16.715 -0.5951  1.3856  0.2603
15331TIP3   OH267483   3.421   3.640  12.552  0.0399  0.3052  0.4001
15331TIP3    H167484   3.400   3.708  12.488 -0.7151  0.5934  0.9482
15331TIP3    H267485   3.388   3.674  12.635 -1.6575 -1.3607  0.4264
15332TIP3   OH267486   3.481   2.007  12.061 -0.0056 -1.0326  0.3092
15332TIP3    H167487   3.514   1.922  12.033  0.7060 -1.3702  2.1006
15332TIP3    H267488   3.533   2.029  12.138  1.2353  2.0076 -1.2851
15333TIP3   OH267489   0.483   0.948  12.064  0.0231 -0.2463 -0.4946
15333TIP3    H167490   0.433   0.968  12.143  1.1736 -1.5695  0.5933
15333TIP3    H267491   0.573   0.936  12.094  0.3165 -1.6655 -1.8603
15334TIP3   OH267492   1.147   6.036   5.189  0.3968 -0.1305 -0.2152
15334TIP3    H167493   1.081   6.093   5.228  0.8353  1.2533 -1.4638
15334TIP3    H267494   1.225   6.091   5.181  1.1732 -1.2401 -0.3989
15335TIP3   OH267495   3.266   5.406  14.149 -0.1957 -0.4096 -0.1526
15335TIP3    H167496   3.261   5.491  14.106  0.2653 -0.5410 -0.4611
15335TIP3    H267497   3.175   5.378  14.156 -0.4362  0.5896  0.9174
15336TIP3   OH267498   1.168   2.053  11.117  0.1476 -0.4414  0.5248
15336TIP3    H167499   1.159   2.009  11.033 -2.1699  0.6892  0.1350
15336TIP3    H267500   1.098   2.017  11.170  0.8621 -0.2883  1.5915
15337TIP3   OH267501   0.348   0.810  15.852 -0.3383  0.0435 -0.5478
15337TIP3    H167502   0.414   0.819  15.920  1.6232  1.1545 -2.5478
15337TIP3    H267503   0.267   0.839  15.894  1.0049  1.6289  1.0504
15338TIP3   OH267504   5.665   1.697  13.876 -0.0275  0.0377  0.4935
15338TIP3    H167505   5.747   1.737  13.846  0.3509 -1.1423 -0.0533
15338TIP3    H267506   5.629   1.656  13.797 -2.8329  3.3985 -0.0935
15339TIP3   OH267507   1.186   3.300  16.266  0.0207 -0.0678  0.2806
15339TIP3    H167508   1.178   3.212  16.303 -1.1202  0.2036  0.7067
15339TIP3    H267509   1.231   3.351  16.334  0.5105 -0.2670  0.1097
15340TIP3   OH267510   5.997   5.078   0.907 -0.2442 -0.2554 -0.0063
15340TIP3    H167511   6.026   5.106   0.994  0.2020  0.6802 -0.4430
15340TIP3    H267512   5.908   5.113   0.899 -0.8903 -1.7020  0.6836
15341TIP3   OH267513   6.630   2.150  11.378  0.1410 -0.1267 -0.0610
15341TIP3    H167514   6.708   2.122  11.331  0.0974 -1.3010  0.5556
15341TIP3    H267515   6.586   2.069  11.404  0.1291  0.4789  1.9446
15342TIP3   OH267516   1.245   2.188   0.411  0.2046 -0.2374 -0.0004
15342TIP3    H167517   1.302   2.137   0.468 -0.2986 -0.7764  0.0169
15342TIP3    H267518   1.299   2.264   0.386  0.6677 -0.3523  0.6225
15343TIP3   OH267519   5.935   5.925   4.685  0.3607  0.2981 -0.2230
15343TIP3    H167520   6.004   5.885   4.633  0.9309  0.6059  0.2993
15343TIP3    H267521   5.963   6.016   4.697  0.3086  0.1901  0.7627
15344TIP3   OH267522   0.868   0.334   3.261 -0.0689  0.6692 -0.1184
15344TIP3    H167523   0.889   0.241   3.255  0.2000  0.8924 -3.1292
15344TIP3    H267524   0.774   0.336   3.281 -0.4680 -0.2509 -1.8568
15345TIP3   OH267525   3.722   5.747   5.324  0.2802 -0.3348  0.1737
15345TIP3    H167526   3.722   5.676   5.388 -0.3011 -1.1232 -0.6952
15345TIP3    H267527   3.740   5.704   5.240 -0.7698  0.4433 -0.4633
15346TIP3   OH267528   4.411   3.737   4.269  0.5970  0.4717  0.1852
15346TIP3    H167529   4.383   3.700   4.352  1.1464 -0.4969 -0.0571
15346TIP3    H267530   4.489   3.687   4.245  0.5888  0.9107 -0.7845
15347TIP3   OH267531   5.691   3.390   3.191 -0.3894 -0.1616  0.2717
15347TIP3    H167532   5.722   3.480   3.187  2.0151 -1.0080 -1.1543
15347TIP3    H267533   5.613   3.389   3.135  1.3412  0.3843 -2.2110
15348TIP3   OH267534   5.789   3.734   1.927 -0.1542  0.5105 -0.3302
15348TIP3    H167535   5.857   3.776   1.874  0.6553  0.9217  1.0029
15348TIP3    H267536   5.786   3.644   1.895 -0.2704  0.9694 -1.6372
15349TIP3   OH267537   6.255   1.209  11.549 -0.0025  0.1081 -0.1879
15349TIP3    H167538   6.261   1.133  11.491 -0.0893 -0.4189  0.4851
15349TIP3    H267539   6.162   1.214  11.572  0.0405  0.2721 -0.0489
15350TIP3   OH267540   1.146   6.195  13.971 -0.4523  0.1145 -0.4904
15350TIP3    H167541   1.225   6.147  13.947  0.0156  0.1554  0.9058
15350TIP3    H267542   1.080   6.127  13.985  0.0887 -0.1212  1.0388
15351TIP3   OH267543   4.699   6.312  17.170 -0.6424  0.0236  0.1357
15351TIP3    H167544   4.729   6.222  17.187  0.2870  0.6542  1.9981
15351TIP3    H267545   4.657   6.307  17.084  0.9309 -1.8223 -0.5765
15352TIP3   OH267546   1.587   3.826  15.811  0.8153 -0.4236  0.2719
15352TIP3    H167547   1.518   3.768  15.780  0.8970 -0.5881  0.4014
15352TIP3    H267548   1.626   3.861  15.731  1.0487 -0.8747  0.1844
15353TIP3   OH267549   4.913   4.870   3.603 -0.1825  0.0798  0.5294
15353TIP3    H167550   4.985   4.932   3.614  0.0072 -0.3460  1.7897
15353TIP3    H267551   4.843   4.906   3.658  0.2566 -1.3160  2.0432
15354TIP3   OH267552   5.772   0.456  15.715  0.3982 -0.1191 -0.5150
15354TIP3    H167553   5.749   0.434  15.805 -0.9762  0.2998 -0.7482
15354TIP3    H267554   5.687   0.462  15.670  1.0707 -0.2381 -1.8057
15355TIP3   OH267555   4.145   3.504  15.517  0.5590 -0.1953 -0.1596
15355TIP3    H167556   4.193   3.509  15.434  1.1408 -0.3812  0.1626
15355TIP3    H267557   4.150   3.412  15.542 -0.0855 -0.2390 -0.1905
15356TIP3   OH267558   3.373   1.892  14.843  0.3130 -0.0153 -0.1982
15356TIP3    H167559   3.457   1.938  14.846  0.3755 -0.0329 -1.3390
15356TIP3    H267560   3.389   1.815  14.789 -0.3484 -0.2009 -0.1355
15357TIP3   OH267561   2.294   5.960  17.159  0.5537 -0.3170 -0.3583
15357TIP3    H167562   2.274   5.873  17.193  1.1146 -1.7148 -3.3550
15357TIP3    H267563   2.211   5.990  17.120  0.0199  1.0731  1.8035
15358TIP3   OH267564   2.414   1.527   5.222 -0.3268 -0.3238  0.0058
15358TIP3    H167565   2.466   1.562   5.295 -2.8903  0.9818  1.2889
15358TIP3    H267566   2.364   1.455   5.260 -0.5265 -0.6438 -0.8453
15359TIP3   OH267567   6.700   0.111   4.488  0.5517  0.4877  0.0052
15359TIP3    H167568   6.761   0.185   4.480  0.3064  1.0763  3.0313
15359TIP3    H267569   6.616   0.147   4.460  0.9831  0.5418 -1.2473
15360TIP3   OH267570   2.426   6.420  16.659 -0.4623  0.1989  0.3335
15360TIP3    H167571   2.437   6.511  16.629  1.6420 -0.5749 -1.4585
15360TIP3    H267572   2.480   6.414  16.738  0.3462  0.2387 -0.2019
15361TIP3   OH267573   6.737   0.277   3.617 -0.4395 -0.4161  0.1276
15361TIP3    H167574   6.745   0.288   3.712 -0.4485  1.6516 -0.0792
15361TIP3    H267575   6.687   0.196   3.606 -0.5962 -0.5797  1.8935
15362TIP3   OH267576   4.853   2.159   4.647 -0.1083  0.1492 -0.3083
15362TIP3    H167577   4.849   2.127   4.737 -2.2632 -1.5904 -0.9828
15362TIP3    H267578   4.884   2.249   4.655  0.3143 -0.1699  2.1126
15363TIP3   OH267579   3.917   5.901   1.919 -0.4705  0.0774  0.0279
15363TIP3    H167580   3.870   5.872   1.997 -1.2806  0.0537 -0.4593
15363TIP3    H267581   4.003   5.928   1.951 -0.7392 -0.0915  0.9023
15364TIP3   OH267582   2.344   2.866  10.630 -0.3301 -0.3990 -0.0460
15364TIP3    H167583   2.255   2.835  10.644  0.4367 -2.1103  1.1997
15364TIP3    H267584   2.400   2.795  10.661  1.4737  1.0439  0.1209
15365TIP3   OH267585   2.932   2.620   5.715 -0.3118 -0.3027 -0.2349
15365TIP3    H167586   2.881   2.542   5.696 -0.7190 -0.2638  0.7048
15365TIP3    H267587   2.978   2.600   5.796 -0.1098  0.2800 -0.2022
15366TIP3   OH267588   3.645   4.628  11.228  0.2510  0.2907  0.4325
15366TIP3    H167589   3.564   4.581  11.209 -0.2960  0.2779  2.6743
15366TIP3    H267590   3.620   4.692  11.294  1.5910  1.8702 -0.5424
15367TIP3   OH267591   6.329   2.506  12.555  0.0614  0.5160  0.1571
15367TIP3    H167592   6.307   2.440  12.489 -0.9279  0.9804  0.0253
15367TIP3    H267593   6.248   2.552  12.571  0.2602  0.3167  1.8110
15368TIP3   OH267594   2.857   1.924   6.287  0.5690  0.0965  0.0723
15368TIP3    H167595   2.855   1.914   6.192 -0.5361  0.9670 -0.0010
15368TIP3    H267596   2.937   1.974   6.304  1.6096 -1.4040 -0.2470
15369TIP3   OH267597   5.700   6.183   1.542 -0.2712 -0.3372 -0.1432
15369TIP3    H167598   5.700   6.232   1.624 -1.0345 -0.2409 -0.1986
15369TIP3    H267599   5.685   6.249   1.475  0.0210 -0.4653 -0.3382
15370TIP3   OH267600   2.668   1.477  11.809 -0.2098  0.2796  0.7674
15370TIP3    H167601   2.671   1.392  11.765 -1.6870  0.9309 -0.6552
15370TIP3    H267602   2.667   1.456  11.902  2.5861 -1.1529  0.5310
15371TIP3   OH267603   0.547   4.642   1.162  0.4355 -0.7721  0.7183
15371TIP3    H167604   0.549   4.738   1.173  0.7729 -0.6132 -0.6741
15371TIP3    H267605   0.455   4.619   1.173 -0.0701  0.0543 -1.6413
15372TIP3   OH267606   1.636   1.588  15.403  0.5864  0.4360 -0.3721
15372TIP3    H167607   1.662   1.628  15.319  3.9380 -0.5615  0.0942
15372TIP3    H267608   1.655   1.656  15.468  1.3773 -0.0529 -0.0872
15373TIP3   OH267609   3.935   5.624  14.586  0.0744 -0.1063  0.8502
15373TIP3    H167610   3.848   5.640  14.622 -0.8234  2.9355 -2.3915
15373TIP3    H267611   3.918   5.571  14.508  1.3278 -1.1351  1.2707
15374TIP3   OH267612   4.878   5.151  14.344  0.3165 -0.0394 -0.0430
15374TIP3    H167613   4.943   5.137  14.412  0.2675  1.7979  0.4065
15374TIP3    H267614   4.794   5.147  14.390  0.1790 -0.8587 -0.3578
15375TIP3   OH267615   4.018   3.213   2.075 -0.2856 -0.1965  0.1123
15375TIP3    H167616   4.088   3.160   2.112 -1.2316 -1.5973 -0.0907
15375TIP3    H267617   3.950   3.213   2.142 -1.8332 -2.3828 -1.4070
15376TIP3   OH267618   3.322   4.194  16.802 -0.4170 -0.2039 -0.5032
15376TIP3    H167619   3.333   4.224  16.892 -1.9262  1.5728 -0.8820
15376TIP3    H267620   3.312   4.100  16.809 -0.1012 -0.1304  1.1450
15377TIP3   OH267621   1.505   3.795   5.502  0.6770 -0.0252  0.7328
15377TIP3    H167622   1.544   3.711   5.525  0.7408 -0.4939 -1.0635
15377TIP3    H267623   1.516   3.802   5.408  0.9088  2.1242  0.9015
15378TIP3   OH267624   1.706   3.982   5.952  0.0103 -0.0190  0.1055
15378TIP3    H167625   1.690   3.890   5.971 -1.5047  0.7369  2.6743
15378TIP3    H267626   1.689   3.990   5.858  0.7209 -2.4361 -0.2653
15379TIP3   OH267627   2.368   1.189  16.629 -0.0433  0.3533 -0.0897
15379TIP3    H167628   2.382   1.281  16.606  1.2950  0.3390  0.5830
15379TIP3    H267629   2.388   1.184  16.722  1.7662 -0.9605 -0.5163
15380TIP3   OH267630   5.900   6.580   6.003 -0.6330 -0.2764  0.5593
15380TIP3    H167631   5.861   6.641   5.940 -0.0984  0.8323  1.2795
15380TIP3    H267632   5.829   6.558   6.063 -0.5786  0.4405  0.8921
15381TIP3   OH267633   3.880   2.609  12.844 -0.4633 -0.1003 -0.6692
15381TIP3    H167634   3.886   2.535  12.904 -1.5063  0.5226  0.2419
15381TIP3    H267635   3.880   2.570  12.757  0.9155 -1.0313 -0.2718
15382TIP3   OH267636   1.667   3.355   4.267 -0.3113 -0.2951 -0.1516
15382TIP3    H167637   1.605   3.397   4.208 -1.6599 -1.9346  0.0415
15382TIP3    H267638   1.619   3.346   4.350 -0.2759 -2.6484 -0.3454
15383TIP3   OH267639   6.167   2.864  12.059  0.2972  0.2806  0.2241
15383TIP3    H167640   6.100   2.916  12.104 -1.0495 -0.3606 -0.9725
15383TIP3    H267641   6.155   2.775  12.093  1.5695  0.4472  1.1303
15384TIP3   OH267642   2.723   2.615  12.372 -1.0512  0.8906  0.7752
15384TIP3    H167643   2.754   2.539  12.324 -0.6598  1.7030 -0.2894
15384TIP3    H267644   2.655   2.653  12.316  0.2443  2.5290  0.2395
15385TIP3   OH267645   2.074   3.719  15.415 -0.2752 -0.7635  0.0078
15385TIP3    H167646   2.044   3.748  15.501 -1.0930  0.4647 -0.6772
15385TIP3    H267647   2.169   3.729  15.418  0.0914 -4.0173  1.9537
15386TIP3   OH267648   3.725   2.164  16.053 -0.1790 -0.0959  0.1163
15386TIP3    H167649   3.728   2.155  15.958 -0.4846  0.6596  0.0345
15386TIP3    H267650   3.663   2.096  16.082 -0.0310 -0.3720 -0.2104
15387TIP3   OH267651   4.619   6.349  16.263  0.1968  0.7108 -0.0743
15387TIP3    H167652   4.586   6.391  16.343  0.1947 -0.1801  0.3939
15387TIP3    H267653   4.699   6.305  16.290  0.5999  1.0291 -0.7387
15388TIP3   OH267654   6.495   2.015   6.333  0.4140  0.4190 -0.4337
15388TIP3    H167655   6.486   2.062   6.251 -0.8650  0.0659 -0.5098
15388TIP3    H267656   6.582   2.039   6.366  0.4459  1.4854 -1.2956
15389TIP3   OH267657   6.709   4.412   1.407 -0.0265  0.7310  0.0550
15389TIP3    H167658   6.686   4.503   1.427 -1.4456  0.4909 -0.4139
15389TIP3    H267659   6.644   4.384   1.342  1.7553  0.0697 -1.4966
15390TIP3   OH267660   0.685   3.992  12.156  0.1634 -0.7179 -0.0143
15390TIP3    H167661   0.771   3.975  12.119  0.2037 -1.7367  0.5394
15390TIP3    H267662   0.700   3.994  12.251  0.2467  2.8112 -0.0331
15391TIP3   OH267663   2.752   4.047  12.792 -0.6303 -0.0487  0.3417
15391TIP3    H167664   2.687   4.066  12.860 -0.0340 -1.4338  1.3270
15391TIP3    H267665   2.773   3.954  12.805  0.7477  0.1154 -0.6524
15392TIP3   OH267666   1.219   5.834   2.164  0.6757 -0.5299  0.8231
15392TIP3    H167667   1.183   5.752   2.198 -0.5474 -0.6291 -0.6519
15392TIP3    H267668   1.176   5.846   2.079  1.4558  1.2202  0.6472
15393TIP3   OH267669   2.415   4.968  13.269  0.7294  0.2464  0.7035
15393TIP3    H167670   2.419   4.916  13.189 -0.8731 -1.5192  1.7101
15393TIP3    H267671   2.346   5.032  13.253  0.9480  0.4016  0.3881
15394TIP3   OH267672   2.038   2.777   5.182  0.0801  0.7400  0.5512
15394TIP3    H167673   2.017   2.863   5.146  1.6897  0.7575 -0.4033
15394TIP3    H267674   2.061   2.795   5.273 -0.9850  1.1240  0.7464
15395TIP3   OH267675   4.982   3.930  13.600 -0.0679  0.1144  0.4625
15395TIP3    H167676   4.932   3.973  13.668 -0.8124 -1.8173  1.1870
15395TIP3    H267677   4.927   3.856  13.573  1.1356 -0.3726 -0.7472
15396TIP3   OH267678   0.789   3.736   4.927  0.0228  0.3239  0.4185
15396TIP3    H167679   0.855   3.800   4.901  0.1761 -0.6141 -1.6462
15396TIP3    H267680   0.748   3.709   4.844 -0.5400 -1.6778  1.3108
15397TIP3   OH267681   4.549   2.846   0.958  0.2144 -0.2163 -0.4048
15397TIP3    H167682   4.601   2.909   0.908 -0.0049 -0.6329 -1.1651
15397TIP3    H267683   4.554   2.765   0.907 -1.4839 -0.1608 -0.6918
15398TIP3   OH267684   2.213   2.286  11.394  0.5576  0.0488  0.1744
15398TIP3    H167685   2.169   2.344  11.456  0.3865  0.4286 -0.2919
15398TIP3    H267686   2.167   2.301  11.311  0.1522 -1.1840  0.1783
15399TIP3   OH267687   4.770   5.756   5.074 -0.7726 -0.2447  0.2674
15399TIP3    H167688   4.759   5.708   5.157 -0.3662 -0.2995  0.2906
15399TIP3    H267689   4.865   5.757   5.060 -0.7699  0.6613  0.3326
15400TIP3   OH267690   1.570   2.884  11.778 -1.0009 -0.0398  0.4480
15400TIP3    H167691   1.637   2.844  11.832 -0.1451 -0.1308 -0.6503
15400TIP3    H267692   1.568   2.976  11.804 -0.8890 -0.1747  0.9203
15401TIP3   OH267693   3.700   4.380   3.019 -0.5655 -0.1067 -0.8109
15401TIP3    H167694   3.675   4.312   3.081 -0.1322 -0.8918 -1.4861
15401TIP3    H267695   3.647   4.456   3.044 -0.0209 -0.2455  0.8409
15402TIP3   OH267696   5.656   0.570  14.687  0.4872 -0.4145 -0.4024
15402TIP3    H167697   5.729   0.629  14.702  0.2554 -0.4719  0.9621
15402TIP3    H267698   5.599   0.617  14.626  1.4275 -0.1844 -1.1035
15403TIP3   OH267699   3.424   2.908  17.034  0.0250  0.2410 -0.1369
15403TIP3    H167700   3.399   2.861  17.114  1.6015  0.5143  0.5132
15403TIP3    H267701   3.427   2.840  16.967  0.5359 -0.2941  0.4275
15404TIP3   OH267702   1.078   1.601   5.988  0.6495 -0.3381  0.0661
15404TIP3    H167703   1.106   1.531   5.928  0.2447 -1.5535  1.2522
15404TIP3    H267704   1.149   1.606   6.052  1.1582  1.0682 -0.6056
15405TIP3   OH267705   6.228   5.784   5.143  0.5912  1.0929  0.4900
15405TIP3    H167706   6.217   5.696   5.178  1.1689  0.6616 -0.3735
15405TIP3    H267707   6.323   5.796   5.135  0.4704  0.4461 -2.6230
15406TIP3   OH267708   6.381   3.697  10.561 -0.1126  0.0758  0.4040
15406TIP3    H167709   6.319   3.725  10.493  1.5519  0.4264 -1.0043
15406TIP3    H267710   6.381   3.768  10.625 -0.0662  0.7574 -0.3499
15407TIP3   OH267711   0.562   3.493  15.858 -0.3011 -0.0953 -0.2735
15407TIP3    H167712   0.532   3.499  15.767 -1.7170  2.8056  0.3116
15407TIP3    H267713   0.482   3.476  15.908  0.1457  0.3788  0.6188
15408TIP3   OH267714   6.496   2.774  13.978 -0.8477 -0.0804 -0.4349
15408TIP3    H167715   6.521   2.775  14.071  0.1721 -0.3057 -0.7059
15408TIP3    H267716   6.506   2.683  13.951  1.0566  0.3798 -1.3533
15409TIP3   OH267717   0.172   5.050   5.110  0.3585  0.2724  0.0123
15409TIP3    H167718   0.239   5.117   5.122 -0.4454  1.0377  0.2786
15409TIP3    H267719   0.160   5.011   5.197  0.0785  0.5030  0.0786
15410TIP3   OH267720   5.297   3.803   1.495  0.5388 -0.3141 -0.3235
15410TIP3    H167721   5.291   3.714   1.529  0.2257  0.6680  2.2931
15410TIP3    H267722   5.361   3.797   1.424  0.6379 -2.5830 -0.0930
15411TIP3   OH267723   3.144   4.855  14.580 -0.0769  0.5041 -0.5943
15411TIP3    H167724   3.052   4.865  14.557  0.0520  1.3744 -0.7424
15411TIP3    H267725   3.185   4.936  14.551  0.5826  0.4823  0.2655
15412TIP3   OH267726   5.319   1.566  11.996 -0.1645 -0.4574  0.3096
15412TIP3    H167727   5.404   1.605  12.017 -0.7114  2.0053 -1.8521
15412TIP3    H267728   5.337   1.472  11.988  2.0341 -0.1623  1.3982
15413TIP3   OH267729   3.952   3.300   5.341  0.0982  0.0141  0.3045
15413TIP3    H167730   3.978   3.265   5.427 -0.8036  1.0749  1.0226
15413TIP3    H267731   3.937   3.393   5.357  0.6213  0.3635 -1.1780
15414TIP3   OH267732   0.748   0.086   5.550 -0.0499  0.1637 -0.0496
15414TIP3    H167733   0.758   0.146   5.476  1.6884 -1.8276 -1.4908
15414TIP3    H267734   0.662   0.045   5.536 -0.3357  0.7997 -0.1765
15415TIP3   OH267735   2.335   0.823   1.849 -1.2353 -0.4332  0.4996
15415TIP3    H167736   2.427   0.798   1.846 -1.0387  0.0009  2.2930
15415TIP3    H267737   2.330   0.889   1.918 -2.3173  2.0382 -1.8435
15416TIP3   OH267738   0.612   3.876   0.503 -0.0339  0.0055 -0.0845
15416TIP3    H167739   0.632   3.802   0.447 -1.5983  0.0173 -0.6537
15416TIP3    H267740   0.688   3.935   0.493  0.0165 -0.3153 -1.6088
15417TIP3   OH267741   5.744   2.261  16.200 -0.2948 -0.1406 -0.3186
15417TIP3    H167742   5.792   2.342  16.217 -0.9025  0.3334 -0.8287
15417TIP3    H267743   5.795   2.216  16.132  0.2729 -0.3902  0.2754
15418TIP3   OH267744   2.906   3.567   3.547 -0.1262 -0.4211 -0.3820
15418TIP3    H167745   2.897   3.659   3.575  2.0783 -0.2548 -0.0497
15418TIP3    H267746   2.902   3.570   3.452 -1.4582 -0.1644 -0.3209
15419TIP3   OH267747   4.791   4.934  12.968 -0.2030  0.3444  0.2836
15419TIP3    H167748   4.731   4.958  13.038 -0.2985 -0.6180  0.5390
15419TIP3    H267749   4.756   4.852  12.933  0.6693  0.0411  0.0966
15420TIP3   OH267750   1.726   2.494   2.244  0.0999 -0.2290  0.0003
15420TIP3    H167751   1.637   2.529   2.241  0.0421 -0.2650  1.2947
15420TIP3    H267752   1.781   2.568   2.217 -0.4251 -0.6721 -2.4263
15421TIP3   OH267753   1.195   1.681   1.880 -0.3684 -0.3091 -0.4613
15421TIP3    H167754   1.172   1.763   1.836  1.9299 -0.0269 -1.2485
15421TIP3    H267755   1.187   1.700   1.973 -0.3847  0.6433 -0.6552
15422TIP3   OH267756   5.859   1.515   4.928 -0.4301  0.6148 -0.1678
15422TIP3    H167757   5.825   1.475   5.008  0.7932 -0.4613 -0.1562
15422TIP3    H267758   5.950   1.536   4.949 -1.2316  4.1208  0.0609
15423TIP3   OH267759   1.240   5.808  17.052  0.0584  0.0420  0.3283
15423TIP3    H167760   1.199   5.722  17.060  0.3620 -0.1046  0.3329
15423TIP3    H267761   1.234   5.846  17.140  0.1926 -0.0997  0.4003
15424TIP3   OH267762   0.811   4.747  16.814 -0.0254  0.2498 -0.0107
15424TIP3    H167763   0.736   4.799  16.842 -1.0075 -1.8723  1.3496
15424TIP3    H267764   0.779   4.657  16.812  2.3854 -0.6467  0.2631
15425TIP3   OH267765   6.043   4.160  15.206 -0.0322 -0.4845  0.2914
15425TIP3    H167766   5.990   4.237  15.226 -1.6652 -1.0604 -1.5915
15425TIP3    H267767   6.088   4.139  15.288 -0.6226  1.6440  1.1873
15426TIP3   OH267768   3.453   6.584   1.293  0.7711 -0.5733  0.0605
15426TIP3    H167769   3.529   6.640   1.276 -0.6600  1.4387  0.1866
15426TIP3    H267770   3.406   6.583   1.210  1.5291 -2.8023 -0.3780
15427TIP3   OH267771   1.278   3.077  16.624 -0.2176  0.4885 -0.3237
15427TIP3    H167772   1.191   3.090  16.588  0.1415 -0.2160 -1.4836
15427TIP3    H267773   1.306   3.164  16.652 -0.6188  1.0072 -1.5076
15428TIP3   OH267774   4.406   4.487  12.147  0.1372 -0.6102 -0.0221
15428TIP3    H167775   4.431   4.512  12.058  0.7837  0.1227  0.3545
15428TIP3    H267776   4.485   4.504  12.199 -0.2876 -0.8901  0.7129
15429TIP3   OH267777   0.415   6.776  10.868 -0.1317 -0.4218 -0.4583
15429TIP3    H167778   0.340   6.716  10.862 -0.9605  0.3889  1.7239
15429TIP3    H267779   0.390   6.851  10.814 -0.2391 -0.8091 -0.9568
15430TIP3   OH267780   0.895   2.869   3.126  0.0751 -0.4348  0.3957
15430TIP3    H167781   0.844   2.861   3.045  0.5307 -1.4407  0.2045
15430TIP3    H267782   0.831   2.855   3.196 -0.2937  0.2935  0.2064
15431TIP3   OH267783   5.971   3.946   2.411  0.2843 -0.4181 -0.0886
15431TIP3    H167784   5.907   3.898   2.359 -0.8362 -1.1123  1.8715
15431TIP3    H267785   6.047   3.888   2.415 -0.1225 -0.9361  0.1532
15432TIP3   OH267786   4.051   1.072   0.308  0.0687  0.5621 -0.4549
15432TIP3    H167787   4.093   1.157   0.318  1.6911 -0.0506 -1.7624
15432TIP3    H267788   4.005   1.078   0.224  2.7160 -0.8375 -2.0636
15433TIP3   OH267789   5.243   4.373  14.617  0.6909  0.0247  0.0414
15433TIP3    H167790   5.248   4.287  14.659 -0.0555  0.8626  1.9064
15433TIP3    H267791   5.149   4.391  14.610  0.8328  0.3780 -0.9838
15434TIP3   OH267792   5.369   2.223   1.852 -0.2917  0.3119  0.3460
15434TIP3    H167793   5.411   2.296   1.897  0.2489 -1.3109  2.5114
15434TIP3    H267794   5.320   2.176   1.920 -2.0603 -0.3602 -1.3318
15435TIP3   OH267795   4.240   4.317  15.460 -0.4218 -0.0925  0.1405
15435TIP3    H167796   4.303   4.277  15.400 -0.9696 -1.8944  0.7515
15435TIP3    H267797   4.292   4.339  15.537 -0.6720 -2.3743  0.9929
15436TIP3   OH267798   4.686   3.714   0.681 -0.6333  0.7373 -0.1340
15436TIP3    H167799   4.601   3.670   0.676 -0.6450  0.7049  0.3027
15436TIP3    H267800   4.740   3.654   0.732 -1.2189  2.0969  2.1682
15437TIP3   OH267801   6.593   2.208  15.271  0.1189  0.0965  0.5819
15437TIP3    H167802   6.512   2.240  15.311  1.1251  1.5764  1.4682
15437TIP3    H267803   6.628   2.146  15.334  0.4040  0.5142  0.8309
15438TIP3   OH267804   2.035   4.244  11.559 -0.1257 -0.2065 -0.3385
15438TIP3    H167805   2.120   4.267  11.521  0.5603 -2.3618 -0.1824
15438TIP3    H267806   2.029   4.149  11.549 -2.1130 -0.1980  0.5013
15439TIP3   OH267807   1.589   2.402  13.463 -0.5541 -0.0660 -0.2574
15439TIP3    H167808   1.648   2.349  13.409  0.3249  1.6219 -0.9916
15439TIP3    H267809   1.584   2.355  13.546 -0.6181 -1.8373 -1.2493
15440TIP3   OH267810   2.960   3.681   1.534 -0.2015 -0.7371 -0.1536
15440TIP3    H167811   2.962   3.721   1.621 -0.0866 -2.0932  0.4802
15440TIP3    H267812   3.001   3.596   1.546  1.2539 -0.2917 -1.8823
15441TIP3   OH267813   5.052   5.708  14.703  0.1604 -0.1673  0.1731
15441TIP3    H167814   5.142   5.697  14.673  0.2209  0.1836  0.2219
15441TIP3    H267815   5.001   5.649  14.648  0.6916 -1.9752  1.5928
15442TIP3   OH267816   0.122   0.983  17.178 -0.3573 -0.7092  0.1526
15442TIP3    H167817   0.093   0.892  17.184 -0.3917 -0.8153 -1.3965
15442TIP3    H267818   0.167   0.988  17.094  0.3976  0.4988  0.6235
15443TIP3   OH267819   6.399   6.111   4.370  0.2585  0.1221 -0.3174
15443TIP3    H167820   6.311   6.085   4.343 -0.4306  1.1147  0.9561
15443TIP3    H267821   6.413   6.065   4.453 -0.3523  2.5223  1.1511
15444TIP3   OH267822   5.533   5.815  14.109 -0.4335 -0.0659  0.3493
15444TIP3    H167823   5.475   5.844  14.179 -1.9868 -0.1873 -0.8601
15444TIP3    H267824   5.581   5.894  14.084 -1.2291  0.4063  0.2846
15445TIP3   OH267825   5.502   5.531  15.878  0.0310 -0.7046 -0.1755
15445TIP3    H167826   5.538   5.527  15.790  0.3600  0.7479 -0.1135
15445TIP3    H267827   5.570   5.574  15.930  1.7129 -5.3284  1.7735
15446TIP3   OH267828   1.295   0.246   4.674  0.4766  0.2672  0.3251
15446TIP3    H167829   1.331   0.158   4.683  2.1829  0.9378  0.3390
15446TIP3    H267830   1.308   0.287   4.760  1.0228  0.9954 -0.0941
15447TIP3   OH267831   4.473   3.702   4.643 -0.4249  0.1317  0.1738
15447TIP3    H167832   4.405   3.711   4.709  0.5074  1.1764  1.0052
15447TIP3    H267833   4.490   3.792   4.614  0.4029 -0.1521 -0.2313
15448TIP3   OH267834   2.451   5.784  12.088  0.6193  0.6058 -0.8664
15448TIP3    H167835   2.495   5.732  12.022  0.0742 -1.4956  0.3725
15448TIP3    H267836   2.360   5.755  12.085  0.4486  0.9616  0.3424
15449TIP3   OH267837   6.740   5.732   4.743  0.0499 -0.0881 -0.0584
15449TIP3    H167838   6.764   5.662   4.682 -0.9566 -0.7954  0.3418
15449TIP3    H267839   6.809   5.730   4.809 -1.0021 -2.0718  1.0496
15450TIP3   OH267840   1.376   1.384   2.689  0.0812 -0.3071  0.0125
15450TIP3    H167841   1.393   1.295   2.657  1.4567  0.6239 -1.9714
15450TIP3    H267842   1.455   1.433   2.665 -0.2592  1.2494  1.9192
15451TIP3   OH267843   5.099   2.261   6.372 -0.1872  0.6488 -0.2761
15451TIP3    H167844   5.145   2.343   6.355  1.7541 -0.7745 -2.3157
15451TIP3    H267845   5.156   2.214   6.432 -1.7064  1.1132  1.5528
15452TIP3   OH267846   5.418   0.586  10.919 -0.0829 -0.2787  0.1503
15452TIP3    H167847   5.474   0.528  10.867 -0.4829 -1.2261  0.7657
15452TIP3    H267848   5.341   0.533  10.939 -0.3684  0.4081  0.8819
15453TIP3   OH267849   3.214   2.228  12.556  0.4199  0.0171  0.1097
15453TIP3    H167850   3.179   2.282  12.627  2.0440 -0.9709  1.6993
15453TIP3    H267851   3.238   2.290  12.488  0.9564  1.1820  1.3488
15454TIP3   OH267852   1.633   0.947  13.876 -0.0776 -0.1101 -0.4841
15454TIP3    H167853   1.699   0.881  13.855  0.6604  0.7647 -0.9205
15454TIP3    H267854   1.621   0.996  13.794 -0.3325  0.5557 -0.0502
15455TIP3   OH267855   1.412   2.767   1.593  0.1320 -0.3431  0.4313
15455TIP3    H167856   1.448   2.847   1.632  0.4538  0.4642 -1.4748
15455TIP3    H267857   1.489   2.711   1.580 -0.2016 -1.3427  2.5700
15456TIP3   OH267858   0.679   4.104  14.073 -0.3934  0.0183  0.0579
15456TIP3    H167859   0.612   4.148  14.126  0.3545 -0.7808  1.7040
15456TIP3    H267860   0.636   4.087  13.989 -2.1609 -0.2012  0.9784
15457TIP3   OH267861   2.783   3.575   0.722  0.3658 -0.2386  0.2634
15457TIP3    H167862   2.773   3.669   0.738 -0.3099 -0.2406 -0.1001
15457TIP3    H267863   2.695   3.540   0.735  0.0622 -0.4287 -2.1460
15458TIP3   OH267864   5.756   5.531   4.260  0.0180 -0.4000 -0.1857
15458TIP3    H167865   5.756   5.454   4.317 -1.0309 -0.7977 -0.7063
15458TIP3    H267866   5.836   5.521   4.207  0.8468 -0.1706  0.9980
15459TIP3   OH267867   3.262   5.653  14.003 -0.2121 -0.4554 -0.2753
15459TIP3    H167868   3.220   5.730  14.040  0.2669 -1.0297  1.4815
15459TIP3    H267869   3.336   5.689  13.953 -1.0666  0.3316 -1.0206
15460TIP3   OH267870   5.311   0.586   5.621  0.0414 -0.1359 -0.2934
15460TIP3    H167871   5.253   0.515   5.594  0.9801 -1.1989  0.4566
15460TIP3    H267872   5.362   0.605   5.542 -1.4366  0.9470 -1.0188
15461TIP3   OH267873   6.734   5.526   1.076  0.0954 -0.2395 -0.4534
15461TIP3    H167874   6.788   5.554   1.002  0.9339  1.5273  0.7842
15461TIP3    H267875   6.650   5.569   1.063  0.3853  0.4207 -0.1629
15462TIP3   OH267876   4.907   4.252   5.629  0.4776  0.5417  0.1698
15462TIP3    H167877   4.960   4.323   5.592  0.2431  0.3400 -0.5740
15462TIP3    H267878   4.849   4.295   5.692  0.2160  1.0462 -0.4043
15463TIP3   OH267879   5.567   2.316   3.634  0.2545  0.0054  0.0753
15463TIP3    H167880   5.521   2.253   3.689 -2.6412  1.4886 -0.5443
15463TIP3    H267881   5.626   2.362   3.694  1.7562 -2.6312  0.6975
15464TIP3   OH267882   4.164   1.353  14.561 -0.8423 -0.0503  0.5196
15464TIP3    H167883   4.069   1.358  14.554 -0.9979 -1.8199  1.1829
15464TIP3    H267884   4.188   1.277  14.507  0.0815 -0.2462  1.1884
15465TIP3   OH267885   0.301   2.083   2.909  0.4853 -0.4998 -0.3959
15465TIP3    H167886   0.348   2.009   2.948 -0.6912 -1.3888 -0.6399
15465TIP3    H267887   0.267   2.049   2.826  1.8141  0.9736 -1.5720
15466TIP3   OH267888   0.134   0.808  12.184 -0.5547  0.3963 -0.8199
15466TIP3    H167889   0.064   0.844  12.238 -1.2873 -0.2793 -1.2996
15466TIP3    H267890   0.192   0.763  12.246 -1.4904 -0.5357 -0.6159
15467TIP3   OH267891   5.029   6.358  16.252  0.2725  0.1535 -0.0605
15467TIP3    H167892   5.098   6.320  16.199  0.6266 -2.1037  1.9350
15467TIP3    H267893   5.073   6.391  16.330 -0.8096 -1.2576  1.2082
15468TIP3   OH267894   5.405   6.250  16.915  0.1051 -0.5258  0.1599
15468TIP3    H167895   5.488   6.225  16.956  1.8482  0.2600 -2.7174
15468TIP3    H267896   5.400   6.345  16.927 -0.0947 -0.4965 -0.1486
15469TIP3   OH267897   5.753   2.314  16.726 -0.3608  0.3888 -1.0468
15469TIP3    H167898   5.769   2.250  16.794  0.7325  1.1221 -0.6092
15469TIP3    H267899   5.710   2.265  16.656 -0.0071 -0.6994 -0.4989
15470TIP3   OH267900   5.225   2.270  16.605 -0.1356  0.5457 -0.2037
15470TIP3    H167901   5.202   2.353  16.564 -0.9391  0.9256  0.9975
15470TIP3    H267902   5.146   2.244  16.652  0.7264  0.0368  0.9739
15471TIP3   OH267903   0.549   4.494  16.272  0.3736  0.6323  0.1646
15471TIP3    H167904   0.505   4.561  16.219  0.7941  0.6342 -0.1810
15471TIP3    H267905   0.503   4.497  16.356 -0.6582  0.2588 -0.3749
15472TIP3   OH267906   6.697   3.452   6.770  0.2922 -0.0092 -0.5338
15472TIP3    H167907   6.762   3.385   6.749  0.5687  0.1749 -0.2780
15472TIP3    H267908   6.635   3.449   6.698  0.8017  0.0840 -0.9805
15473TIP3   OH267909   3.133   5.589   6.798 -0.5463  0.5166 -0.2190
15473TIP3    H167910   3.041   5.579   6.776 -0.0574 -1.3090 -1.5626
15473TIP3    H267911   3.180   5.560   6.719  1.1795  1.7839  0.2967
15474TIP3   OH267912   5.793   1.078   6.070 -0.2929 -0.5148  0.3904
15474TIP3    H167913   5.783   1.054   6.162  0.2347  1.5560  1.0107
15474TIP3    H267914   5.724   1.143   6.055  0.7113  0.4219 -0.2058
15475TIP3   OH267915   2.844   6.602  12.770  1.2277 -0.3077 -0.4797
15475TIP3    H167916   2.831   6.653  12.689 -0.2547 -0.8338 -0.5834
15475TIP3    H267917   2.842   6.668  12.840  0.7386 -0.0678 -0.7208
15476TIP3   OH267918   4.053   6.387  11.142  0.0479 -0.3964 -0.1671
15476TIP3    H167919   4.029   6.294  11.140  0.7467 -0.6168  1.5456
15476TIP3    H267920   4.058   6.411  11.049  0.8911 -2.3405 -0.6689
15477TIP3   OH267921   5.373   3.632  16.330 -0.8693  0.0688 -0.4585
15477TIP3    H167922   5.416   3.709  16.293 -3.0492  1.5408 -0.0648
15477TIP3    H267923   5.326   3.593  16.257  1.5227 -1.8632 -1.0110
15478TIP3   OH267924   1.357   6.204  11.563  0.5070 -1.1519  0.5262
15478TIP3    H167925   1.307   6.157  11.630 -0.7634 -0.3779  0.1240
15478TIP3    H267926   1.315   6.182  11.480 -0.6900  1.3652  0.4052
15479TIP3   OH267927   6.400   2.193  12.974 -0.0621  0.1776 -0.5622
15479TIP3    H167928   6.406   2.125  13.041 -1.9688 -2.0656 -2.5776
15479TIP3    H267929   6.431   2.151  12.894  0.8498  2.3859 -1.4265
15480TIP3   OH267930   4.312   1.098  14.774 -0.3173  0.5560 -0.2188
15480TIP3    H167931   4.321   1.045  14.695 -0.3296 -2.0606  1.4623
15480TIP3    H267932   4.254   1.169  14.749 -0.2309 -0.1603 -2.5895
15481TIP3   OH267933   6.106   1.174  17.253 -0.1045 -0.5291 -0.0183
15481TIP3    H167934   6.038   1.215  17.199 -1.3038 -0.0167  1.8328
15481TIP3    H267935   6.187   1.184  17.201 -0.8201  1.9036 -0.7445
15482TIP3   OH267936   4.135   2.090  15.156  0.2985 -0.2593 -0.0131
15482TIP3    H167937   4.103   2.025  15.219 -1.9189 -0.6965 -1.5345
15482TIP3    H267938   4.111   2.175  15.194 -0.7520 -0.5063 -0.1263
15483TIP3   OH267939   3.350   6.361  14.502 -0.4106 -0.6928  0.1308
15483TIP3    H167940   3.319   6.306  14.574  0.8307  0.1358  1.3229
15483TIP3    H267941   3.414   6.306  14.456 -1.6250 -1.4312 -0.7184
15484TIP3   OH267942   3.297   5.413  13.795 -0.1489  0.0353 -0.4202
15484TIP3    H167943   3.260   5.374  13.716  1.4591  1.1319 -1.7791
15484TIP3    H267944   3.244   5.491  13.810 -1.7241 -1.2558  0.7735
15485TIP3   OH267945   4.307   1.071  14.005 -0.0457  0.1650  0.2169
15485TIP3    H167946   4.293   1.119  13.923  1.2004 -0.3904 -0.3356
15485TIP3    H267947   4.354   1.133  14.061 -1.0793  0.6173  0.6027
15486TIP3   OH267948   4.277   2.387   4.449  0.0873  0.6121 -0.0584
15486TIP3    H167949   4.204   2.447   4.462  0.3717  1.5147 -2.3279
15486TIP3    H267950   4.257   2.311   4.504 -1.9842  1.3347  0.2007
15487TIP3   OH267951   2.853   3.399   5.407 -0.2946  0.8183  0.1969
15487TIP3    H167952   2.847   3.316   5.358 -2.4723  0.2303  1.3883
15487TIP3    H267953   2.901   3.457   5.349  1.0639 -1.2054 -0.7857
15488TIP3   OH267954   2.899   5.369   1.580 -0.0630  0.2528 -0.7789
15488TIP3    H167955   2.806   5.346   1.580 -0.0826  0.3067 -0.0401
15488TIP3    H267956   2.940   5.302   1.525 -0.0734 -1.8544  1.6705
15489TIP3   OH267957   2.464   1.745   5.052  0.8075 -0.1364  0.4201
15489TIP3    H167958   2.448   1.662   5.098 -0.5416  0.1121  0.4220
15489TIP3    H267959   2.460   1.811   5.121 -1.3302  0.2469 -0.0565
15490TIP3   OH267960   0.673   5.590  13.255 -0.2264  0.4017 -0.0254
15490TIP3    H167961   0.584   5.596  13.220 -0.4022  1.5007  0.6198
15490TIP3    H267962   0.666   5.530  13.329 -0.2218 -0.3400 -0.6094
15491TIP3   OH267963   1.105   5.101  11.884  0.1755 -0.2216  0.6972
15491TIP3    H167964   1.155   5.146  11.952 -1.9018  0.2949  1.9266
15491TIP3    H267965   1.146   5.128  11.802  0.8420  1.5171  1.5870
15492TIP3   OH267966   3.562   2.670   3.361 -0.7538 -0.5851  0.2133
15492TIP3    H167967   3.612   2.607   3.412  0.3300 -0.0122 -0.1350
15492TIP3    H267968   3.579   2.754   3.403 -1.7244 -0.4287  0.3138
15493TIP3   OH267969   1.331   5.654   1.663 -0.1701  0.0766  0.2313
15493TIP3    H167970   1.289   5.703   1.592 -0.7925 -0.1247  0.4540
15493TIP3    H267971   1.382   5.720   1.710 -0.5181  0.4020  0.1600
15494TIP3   OH267972   0.082   3.810  14.214  0.0030 -0.4885 -0.1123
15494TIP3    H167973   0.011   3.767  14.261 -0.2196  0.5838  0.5498
15494TIP3    H267974   0.158   3.799  14.271 -0.0340 -0.0933  0.0166
15495TIP3   OH267975   6.600   1.179  16.240 -0.5077 -0.6854  0.5845
15495TIP3    H167976   6.694   1.174  16.258 -0.1853  1.4476 -0.4003
15495TIP3    H267977   6.562   1.207  16.323  0.0996  1.4911  0.1627
15496TIP3   OH267978   6.451   4.478  16.024  0.2295 -0.1778  0.8969
15496TIP3    H167979   6.393   4.498  16.098  0.4337 -0.5335  1.1469
15496TIP3    H267980   6.498   4.400  16.050 -0.7831 -1.1918 -0.2172
15497TIP3   OH267981   0.831   0.405  15.205 -0.0585 -0.4217  0.1502
15497TIP3    H167982   0.905   0.360  15.165  0.9977  1.3733  0.0485
15497TIP3    H267983   0.814   0.480  15.148 -2.6573 -1.3915 -0.4238
15498TIP3   OH267984   0.576   4.665  13.915  0.7677  0.4062  0.0735
15498TIP3    H167985   0.506   4.707  13.965 -0.7619 -1.5349 -0.3792
15498TIP3    H267986   0.551   4.678  13.824  1.3998  0.3689 -0.1044
15499TIP3   OH267987   2.106   3.341  13.812 -0.0665  0.0809 -0.6663
15499TIP3    H167988   2.093   3.269  13.874 -0.8457  1.7795  1.1887
15499TIP3    H267989   2.199   3.363  13.820 -0.0881  0.0661 -0.3761
15500TIP3   OH267990   6.753   0.271   1.190 -0.5460  0.9740 -0.2234
15500TIP3    H167991   6.683   0.246   1.251  0.2463 -0.3975  0.1524
15500TIP3    H267992   6.815   0.321   1.243 -0.8088  1.4413 -0.3553
15501TIP3   OH267993   6.137   6.015   5.254  0.2423  0.1280 -0.2115
15501TIP3    H167994   6.174   5.943   5.202  3.2872  0.6039  1.1810
15501TIP3    H267995   6.083   5.972   5.320 -2.2395 -0.5700 -2.6190
15502TIP3   OH267996   5.149   2.899   2.605 -0.3292 -0.2877  0.5064
15502TIP3    H167997   5.062   2.862   2.589 -0.1008 -0.2500 -0.8736
15502TIP3    H267998   5.146   2.986   2.565  0.6483 -0.6756 -0.4224
15503TIP3   OH267999   2.208   0.970   4.688  0.4367 -0.2707  0.6105
15503TIP3    H168000   2.278   0.920   4.728 -0.4513 -1.6938  0.4192
15503TIP3    H268001   2.144   0.984   4.759 -1.2684 -3.0325 -0.3080
15504TIP3   OH268002   3.154   4.353   4.146 -0.5691 -0.6764 -0.5805
15504TIP3    H168003   3.203   4.435   4.146 -2.5184  0.5265  0.8075
15504TIP3    H268004   3.193   4.301   4.216 -0.7449 -0.0447 -0.0074
15505TIP3   OH268005   2.003   0.749  10.805 -0.1507 -0.0439 -0.0001
15505TIP3    H168006   2.037   0.665  10.838  1.0484  0.0724 -0.9033
15505TIP3    H268007   2.016   0.809  10.878  1.9545  0.0740 -0.4318
15506TIP3   OH268008   0.297   5.479   4.292  0.3087  0.2986 -0.5499
15506TIP3    H168009   0.285   5.476   4.387 -2.2340  0.6507 -0.8114
15506TIP3    H268010   0.374   5.535   4.280  0.5973  0.3571  1.2954
15507TIP3   OH268011   3.892   2.776  12.239 -0.1608 -0.5616  0.0203
15507TIP3    H168012   3.930   2.703  12.289 -0.5802 -0.5040  0.4275
15507TIP3    H268013   3.877   2.739  12.152 -1.8653 -1.4559  0.6666
15508TIP3   OH268014   5.042   4.184   2.387  0.3640 -0.1057  0.1909
15508TIP3    H168015   4.973   4.248   2.366  1.0735  0.1355 -1.5116
15508TIP3    H268016   5.121   4.220   2.348  1.3028 -0.7944  1.4205
15509TIP3   OH268017   0.143   0.685  13.139  0.0392  0.5445 -0.1367
15509TIP3    H168018   0.087   0.748  13.184  0.2050 -0.2853  1.2520
15509TIP3    H268019   0.185   0.635  13.209 -0.4495 -1.4310 -1.2140
15510TIP3   OH268020   0.489   1.657  14.623 -0.1148 -0.1008 -0.3988
15510TIP3    H168021   0.434   1.658  14.545 -1.0794 -2.1174  0.2256
15510TIP3    H268022   0.567   1.607  14.598 -1.3141 -2.4676  0.4779
15511TIP3   OH268023   0.157   6.377   4.622 -0.6890 -0.6487 -0.1759
15511TIP3    H168024   0.093   6.350   4.557 -2.3850  2.6963 -0.0137
15511TIP3    H268025   0.217   6.435   4.575  0.1451 -1.0017  0.4385
15512TIP3   OH268026   1.462   6.774  15.671 -0.0110 -0.0934  0.0580
15512TIP3    H168027   1.483   6.796  15.761  0.3391 -1.6224  0.3704
15512TIP3    H268028   1.416   6.690  15.677 -0.9527  0.3242 -1.0976
15513TIP3   OH268029   2.048   4.059   4.539  0.5318 -0.2761  0.0586
15513TIP3    H168030   2.025   3.974   4.577  1.2206 -0.1615  0.7333
15513TIP3    H268031   1.986   4.121   4.578  0.3088 -0.3972 -0.1044
15514TIP3   OH268032   5.752   1.963   3.290  0.3439  0.1802  0.0402
15514TIP3    H168033   5.660   1.940   3.307 -0.6295  2.8377 -1.3481
15514TIP3    H268034   5.759   2.054   3.318  1.9264  0.7511 -2.1210
15515TIP3   OH268035   0.837   3.349  11.394 -0.1323  0.6602  0.8463
15515TIP3    H168036   0.793   3.422  11.437  0.1907 -0.0812  2.4772
15515TIP3    H268037   0.897   3.314  11.460  0.7885 -0.1741 -0.3878
15516TIP3   OH268038   6.674   6.566   5.394 -0.2207  0.0766  0.4365
15516TIP3    H168039   6.638   6.633   5.452 -0.2817  0.1162  0.3538
15516TIP3    H268040   6.600   6.509   5.374 -0.7111  1.2341 -1.2356
15517TIP3   OH268041   3.016   0.222  17.000 -0.1138 -0.4321  0.7520
15517TIP3    H168042   2.941   0.167  16.979  1.7195 -2.0828 -1.5631
15517TIP3    H268043   3.040   0.197  17.090 -0.2182 -2.3472  0.2530
15518TIP3   OH268044   5.900   5.091   1.668  0.1731  0.1236  0.3449
15518TIP3    H168045   5.976   5.046   1.704  0.7002  1.6974  1.2650
15518TIP3    H268046   5.936   5.158   1.611 -0.5717  0.0096 -0.2732
15519TIP3   OH268047   2.368   3.138  10.552  0.1013 -0.2248  0.0581
15519TIP3    H168048   2.359   3.198  10.626  3.8567  1.1310 -0.4686
15519TIP3    H268049   2.367   3.051  10.591 -2.1182  0.2726  1.1959
15520TIP3   OH268050   5.480   5.320   4.898 -0.0417  0.7258 -0.2201
15520TIP3    H168051   5.488   5.404   4.853  0.8690 -0.1355 -1.6952
15520TIP3    H268052   5.533   5.331   4.978  1.5487  0.9887 -1.2726
15521TIP3   OH268053   4.592   6.699  14.325 -0.0966 -0.1285  0.0946
15521TIP3    H168054   4.518   6.643  14.350  0.0944 -0.7924 -0.8126
15521TIP3    H268055   4.550   6.779  14.291 -0.4071 -0.5613 -0.5570
15522TIP3   OH268056   5.236   6.064  12.219  0.1973 -0.2622 -0.0914
15522TIP3    H168057   5.185   6.140  12.246  0.9978  0.2072  0.1234
15522TIP3    H268058   5.190   5.989  12.256  0.2822  0.2419  1.0381
15523TIP3   OH268059   2.331   3.221  12.493  0.2879  0.1685  0.4642
15523TIP3    H168060   2.365   3.132  12.479 -0.4012 -0.0653  0.2652
15523TIP3    H268061   2.251   3.225  12.441 -0.3696  0.4848  1.4907
15524TIP3   OH268062   5.901   4.641   2.306 -0.2586 -0.4577  0.5351
15524TIP3    H168063   5.919   4.552   2.277 -0.0460 -0.6211  1.1641
15524TIP3    H268064   5.818   4.635   2.355 -0.2580 -0.3042  0.5568
15525TIP3   OH268065   4.100   2.261   0.062 -0.3579  0.0817  0.0232
15525TIP3    H168066   4.127   2.341   0.107  0.4077 -0.8367  1.2406
15525TIP3    H268067   4.007   2.252   0.084 -0.3116  0.3477  0.3421
15526TIP3   OH268068   5.882   2.813   2.168 -0.0287 -0.2240 -0.1246
15526TIP3    H168069   5.918   2.898   2.142  0.9517 -0.3620  0.7387
15526TIP3    H268070   5.799   2.807   2.121  0.2931  0.8364 -0.8605
15527TIP3   OH268071   0.659   6.488   2.466  0.0591  0.0314 -0.1724
15527TIP3    H168072   0.591   6.449   2.412 -1.7265  0.7673  1.4598
15527TIP3    H268073   0.626   6.577   2.485  0.8474 -0.0470  1.6785
15528TIP3   OH268074   0.436   5.667  11.822  0.2186  0.4736 -0.1678
15528TIP3    H168075   0.344   5.668  11.795 -0.5125 -1.6671  2.0482
15528TIP3    H268076   0.441   5.730  11.893  0.0590 -0.6332  0.8430
15529TIP3   OH268077   4.454   3.009  16.312  0.4847 -0.3951  0.3957
15529TIP3    H168078   4.518   3.005  16.240 -0.8882 -1.9826 -0.7905
15529TIP3    H268079   4.370   3.022  16.268 -0.0272  1.6930  1.9384
15530TIP3   OH268080   5.409   4.157   3.413  0.3181  0.3227 -0.1871
15530TIP3    H168081   5.464   4.145   3.335  1.1344 -0.5128  0.4937
15530TIP3    H268082   5.443   4.092   3.475 -0.4556  0.8514  0.7890
15531TIP3   OH268083   0.888   0.415  11.024 -0.2627  0.1562 -0.2904
15531TIP3    H168084   0.926   0.427  10.936 -0.2761 -0.0766 -0.3258
15531TIP3    H268085   0.855   0.502  11.047 -3.0292 -0.4192 -1.8123
15532TIP3   OH268086   6.738   5.639  15.312 -0.6852 -0.4375  0.1760
15532TIP3    H168087   6.649   5.618  15.285  0.2546 -1.5692 -2.2291
15532TIP3    H268088   6.792   5.569  15.275  1.4935  1.5321 -0.5162
15533TIP3   OH268089   0.902   1.135  13.073  0.5787  0.0633  0.2394
15533TIP3    H168090   0.859   1.132  12.987  2.6302 -3.6990 -0.8249
15533TIP3    H268091   0.979   1.190  13.059  0.2041  0.5368  0.0331
15534TIP3   OH268092   1.861   5.027   2.342 -0.3361 -0.2173  0.1051
15534TIP3    H168093   1.861   4.975   2.261  0.3869 -1.1269  0.6799
15534TIP3    H268094   1.950   5.061   2.348 -0.7068  0.8001 -0.0688
15535TIP3   OH268095   5.135   4.171   0.059 -0.5847 -0.6469 -0.7554
15535TIP3    H168096   5.190   4.113   0.006  0.3036 -0.4143 -0.0922
15535TIP3    H268097   5.191   4.246   0.078 -1.3829 -0.0645 -0.7123
15536TIP3   OH268098   5.638   2.018   4.916  0.2611 -0.2480  0.3435
15536TIP3    H168099   5.715   2.074   4.910 -0.7477  1.0637 -0.5777
15536TIP3    H268100   5.672   1.932   4.941  2.0433  0.2439 -0.3720
15537TIP3   OH268101   0.596   6.484   1.757  0.0033  0.6361 -0.3380
15537TIP3    H168102   0.631   6.573   1.752  1.2929  0.1935  0.2878
15537TIP3    H268103   0.525   6.489   1.821  0.1296  1.2141 -0.2457
15538TIP3   OH268104   0.271   3.131   2.129  0.0495  0.5330 -0.3294
15538TIP3    H168105   0.357   3.125   2.087  0.9812 -0.0947  1.5996
15538TIP3    H268106   0.240   3.220   2.109  2.0006  1.4267  0.5253
15539TIP3   OH268107   2.730   6.365  14.878  0.1720  0.3765  0.1493
15539TIP3    H168108   2.742   6.331  14.790  0.5532 -0.4581  0.5198
15539TIP3    H268109   2.678   6.445  14.866  1.7504  1.2459 -0.9825
15540TIP3   OH268110   0.259   3.349   2.611  0.3677 -0.5377 -0.1996
15540TIP3    H168111   0.290   3.294   2.683 -1.6291 -2.1796 -0.5422
15540TIP3    H268112   0.206   3.417   2.654  1.1194 -0.1173  0.0634
15541TIP3   OH268113   0.945   0.909   0.261  0.1146 -0.1064 -0.5186
15541TIP3    H168114   0.941   0.994   0.306 -1.6534 -0.5571  0.2088
15541TIP3    H268115   0.964   0.846   0.331  0.9544 -0.3831 -0.9868
15542TIP3   OH268116   0.096   4.811  15.338  0.2844  0.3988  0.1641
15542TIP3    H168117   0.020   4.833  15.284 -0.8454  0.4627  1.7456
15542TIP3    H268118   0.143   4.894  15.349 -0.2423  0.6588  0.4429
15543TIP3   OH268119   4.029   0.910   3.053  0.0447  0.0571 -0.0421
15543TIP3    H168120   3.996   0.848   2.988  0.7003  0.9206 -1.2255
15543TIP3    H268121   3.966   0.982   3.052 -0.0874 -0.0481  0.4818
15544TIP3   OH268122   2.914   1.037  11.644  0.2782  0.2446  0.1731
15544TIP3    H168123   2.907   1.020  11.738  0.1576 -0.4438  0.0407
15544TIP3    H268124   2.887   1.128  11.634 -0.8759 -0.0421  0.6528
15545TIP3   OH268125   0.644   5.632   1.373  0.7383  0.6904  0.4684
15545TIP3    H168126   0.614   5.710   1.327  1.9828  0.1221 -1.3113
15545TIP3    H268127   0.737   5.646   1.388  1.1261 -0.7572 -0.4934
15546TIP3   OH268128   0.966   0.985  16.116 -0.5258  0.1905  0.2825
15546TIP3    H168129   0.961   0.993  16.020  0.6322 -1.4751  0.0596
15546TIP3    H268130   1.023   1.056  16.143  1.6335 -1.1433 -0.6138
15547TIP3   OH268131   5.583   4.908  13.505 -0.0223  0.0843  0.0331
15547TIP3    H168132   5.643   4.863  13.445 -0.9755 -1.4652  0.2088
15547TIP3    H268133   5.600   5.001  13.491  2.4653 -0.3273  0.1216
15548TIP3   OH268134   1.856   3.090   3.349  0.2347 -0.1154 -0.3432
15548TIP3    H168135   1.885   3.139   3.426  0.8461 -0.1604 -0.5399
15548TIP3    H268136   1.920   3.019   3.340  0.4783  0.2054 -1.2038
15549TIP3   OH268137   4.514   3.639  16.423 -0.0490 -0.2275  0.2866
15549TIP3    H168138   4.496   3.655  16.330  1.1835 -0.4961 -0.0005
15549TIP3    H268139   4.495   3.546  16.435 -2.1500  0.2302  0.7780
15550TIP3   OH268140   1.295   6.105   1.493  0.3703 -0.3124  0.1240
15550TIP3    H168141   1.278   6.194   1.525  0.4500 -0.6204  1.0183
15550TIP3    H268142   1.265   6.107   1.402 -1.8733 -0.0246  0.8203
15551TIP3   OH268143   6.175   5.080   6.190 -0.3877 -0.3987 -0.4781
15551TIP3    H168144   6.090   5.086   6.146 -1.9387  0.1848  2.4837
15551TIP3    H268145   6.158   5.028   6.269  1.6074  1.2012  1.0773
15552TIP3   OH268146   3.758   6.628  10.640  0.3042 -0.2938  0.3684
15552TIP3    H168147   3.786   6.658  10.553 -0.6643 -2.0293 -0.5736
15552TIP3    H268148   3.822   6.561  10.663 -0.6498 -1.3236  0.0520
15553TIP3   OH268149   1.059   0.346  13.176  0.2004  0.7252 -0.1063
15553TIP3    H168150   1.090   0.429  13.140  0.4654  0.9096  0.5366
15553TIP3    H268151   0.975   0.368  13.217 -0.0524  0.5362 -0.5142
15554TIP3   OH268152   0.039   0.758   2.112  0.4431  0.3648  0.4868
15554TIP3    H168153   0.132   0.740   2.096  0.3588  1.1910 -1.0911
15554TIP3    H268154   0.038   0.817   2.187  1.0804 -1.1058  1.6717
15555TIP3   OH268155   4.169   2.737  14.097  0.0019 -0.4002 -0.0491
15555TIP3    H168156   4.162   2.650  14.136 -1.5531  0.3573  1.4302
15555TIP3    H268157   4.080   2.771  14.098  0.5432  1.0787 -0.9179
15556TIP3   OH268158   4.203   2.332  12.356  0.3742  0.2846 -0.3970
15556TIP3    H168159   4.212   2.427  12.352 -1.1932  0.4529 -0.4024
15556TIP3    H268160   4.148   2.310  12.281 -1.0981 -0.3662  0.8319
15557TIP3   OH268161   6.614   1.996   3.995 -0.3050 -0.0041  0.3496
15557TIP3    H168162   6.685   2.061   3.993 -1.0381  0.7821 -0.1695
15557TIP3    H268163   6.644   1.931   4.059 -0.6197  2.0327  2.6231
15558TIP3   OH268164   4.971   4.593   6.707 -0.0723 -1.0204  0.1215
15558TIP3    H168165   5.050   4.577   6.656  1.5930  1.5575  1.7775
15558TIP3    H268166   4.942   4.506   6.734  1.4414 -2.0960 -1.5953
15559TIP3   OH268167   6.375   5.890  12.873  0.9860 -0.2559  0.1776
15559TIP3    H168168   6.409   5.801  12.879  0.2058 -0.7893 -2.3907
15559TIP3    H268169   6.406   5.922  12.788  1.7975  2.1806  1.3402
15560TIP3   OH268170   2.990   1.507  16.115 -0.1744  0.2258  0.1228
15560TIP3    H168171   3.065   1.562  16.092  1.0654 -1.5895 -0.2881
15560TIP3    H268172   3.026   1.439  16.171 -1.3067 -1.3108 -0.9673
15561TIP3   OH268173   3.155   0.314  12.094 -0.0401 -0.1699 -0.5194
15561TIP3    H168174   3.109   0.369  12.158  0.6825  2.8547 -2.5224
15561TIP3    H268175   3.119   0.341  12.009  2.0534 -1.1113 -1.7365
15562TIP3   OH268176   0.123   4.351   3.817 -0.4560 -0.1401 -0.1744
15562TIP3    H168177   0.050   4.324   3.873 -1.2016  0.0164 -1.0534
15562TIP3    H268178   0.145   4.272   3.767  0.9872 -0.6085  1.1574
15563TIP3   OH268179   6.163   3.142  13.179  0.3757 -0.1055  0.1737
15563TIP3    H168180   6.157   3.149  13.274  3.3967  1.2051  0.2904
15563TIP3    H268181   6.097   3.203  13.146  1.5361  1.8672  1.4331
15564TIP3   OH268182   5.274   0.898   1.179  0.4656 -0.1351  0.2649
15564TIP3    H168183   5.296   0.910   1.271 -0.8908  1.2524  0.4306
15564TIP3    H268184   5.200   0.836   1.179 -1.3377  1.9433  0.3372
15565TIP3   OH268185   4.703   5.873  11.585 -0.4694  0.2882 -0.4283
15565TIP3    H168186   4.695   5.803  11.520 -0.7689  0.5385 -0.6639
15565TIP3    H268187   4.770   5.931  11.550 -1.0187  0.7150 -0.7891
15566TIP3   OH268188   2.943   4.596   4.713  0.4870  0.0387 -0.0688
15566TIP3    H168189   2.947   4.691   4.716  1.5554 -0.0050 -0.1385
15566TIP3    H268190   2.849   4.576   4.721  0.4482  1.0032  2.2125
15567TIP3   OH268191   6.101   5.809  15.589  0.5429 -0.3672  0.2010
15567TIP3    H168192   6.030   5.800  15.652 -1.7092  1.4115 -2.0000
15567TIP3    H268193   6.142   5.893  15.610 -0.3388  0.3234 -0.8004
15568TIP3   OH268194   2.110   0.994   5.405  0.1057 -0.6461  0.2691
15568TIP3    H168195   2.192   0.957   5.440  0.3749 -0.9492 -0.6684
15568TIP3    H268196   2.106   0.962   5.315 -0.5498  0.1931 -0.0037
15569TIP3   OH268197   2.372   2.061  13.137 -0.1273 -0.6622  0.4615
15569TIP3    H168198   2.359   2.139  13.084 -2.1749 -1.0223  0.3869
15569TIP3    H268199   2.322   1.992  13.091  2.0399 -2.1454  0.2473
15570TIP3   OH268200   6.574   4.417  14.227 -0.1404 -0.2619 -0.8553
15570TIP3    H168201   6.539   4.438  14.313  2.9966  0.4377  0.3080
15570TIP3    H268202   6.521   4.343  14.197 -1.4764 -0.3152  1.5313
15571TIP3   OH268203   4.676   0.867  13.005 -0.7819 -0.2899 -0.1733
15571TIP3    H168204   4.629   0.819  12.938 -0.2570 -0.6655 -0.2708
15571TIP3    H268205   4.691   0.804  13.075  0.1040 -0.3287 -0.3974
15572TIP3   OH268206   1.189   3.285   5.105 -0.5113 -0.1757 -0.2977
15572TIP3    H168207   1.172   3.235   5.025  0.5715  0.6063 -1.0212
15572TIP3    H268208   1.129   3.360   5.099  0.4705  0.5599 -1.0012
15573TIP3   OH268209   0.565   3.091  15.206 -0.6996 -0.0303  0.0294
15573TIP3    H168210   0.581   3.103  15.299  0.9616  0.5164 -0.2973
15573TIP3    H268211   0.613   3.011  15.184  0.5524  0.9032 -0.7263
15574TIP3   OH268212   6.470   1.094  12.729 -0.7865  0.6547 -0.3615
15574TIP3    H168213   6.407   1.044  12.677 -1.1461  0.0665  0.6055
15574TIP3    H268214   6.421   1.172  12.757 -0.7432  0.7399 -0.5275
15575TIP3   OH268215   4.750   1.831  12.531 -0.6220  0.0452  0.0454
15575TIP3    H168216   4.752   1.873  12.445 -0.5423 -0.6829 -0.3182
15575TIP3    H268217   4.842   1.823  12.556 -0.5074 -1.9751 -0.9303
15576TIP3   OH268218   4.840   5.697   4.095 -0.4826  0.0339  0.0926
15576TIP3    H168219   4.800   5.619   4.058 -0.5789 -0.5256  1.3742
15576TIP3    H268220   4.785   5.769   4.063 -0.9971 -0.5025 -0.2516
15577TIP3   OH268221   1.804   4.179  14.459  0.5992 -0.3140 -0.1648
15577TIP3    H168222   1.851   4.238  14.517  0.8807 -0.2604 -0.4421
15577TIP3    H268223   1.863   4.168  14.384  0.4560 -0.7671 -0.2164
15578TIP3   OH268224   4.222   0.614   4.671 -0.1259  0.0514  0.0159
15578TIP3    H168225   4.183   0.688   4.625 -0.8488 -0.6507 -0.5190
15578TIP3    H268226   4.292   0.583   4.613 -0.0159  0.1363  0.1041
15579TIP3   OH268227   4.570   6.646   1.998  0.0919  0.3117 -0.1570
15579TIP3    H168228   4.603   6.568   1.953 -1.0872 -0.2676 -0.0275
15579TIP3    H268229   4.475   6.635   1.999  0.0028  1.0754  1.1000
15580TIP3   OH268230   5.665   5.433  15.660  0.4137 -0.1336  0.0719
15580TIP3    H168231   5.673   5.390  15.575  1.1356 -0.0296  0.0788
15580TIP3    H268232   5.708   5.373  15.722  2.1593  0.9480 -0.0470
15581TIP3   OH268233   4.483   0.985   2.983  0.8603 -0.0919  0.3943
15581TIP3    H168234   4.504   1.073   2.951 -0.7451  0.2463  0.2271
15581TIP3    H268235   4.523   0.926   2.918 -1.8828  0.5819 -2.0237
15582TIP3   OH268236   3.082   0.673   0.642 -0.4513 -0.1888  0.1539
15582TIP3    H168237   3.112   0.722   0.565 -1.4550  0.0170 -0.1144
15582TIP3    H268238   3.067   0.740   0.709  2.8928 -0.5918  1.3891
15583TIP3   OH268239   5.307   0.203   4.528  0.0414 -0.0061  0.0404
15583TIP3    H168240   5.238   0.160   4.578  1.1894  0.2076  1.8522
15583TIP3    H268241   5.360   0.248   4.593  0.0271  2.5522 -1.6278
15584TIP3   OH268242   4.722   4.904   2.492 -0.1012  0.7729 -0.4036
15584TIP3    H168243   4.754   4.880   2.405  0.8278  0.4170  0.0276
15584TIP3    H268244   4.725   5.000   2.493  0.2280  0.7672 -0.6482
15585TIP3   OH268245   5.078   3.083  15.314 -0.1512  0.2606  0.2902
15585TIP3    H168246   5.072   3.153  15.379  0.5569  1.1399 -0.5678
15585TIP3    H268247   5.110   3.127  15.235 -0.3996 -0.9026 -0.4703
15586TIP3   OH268248   4.625   3.956  11.633  0.3987 -0.1194 -0.5161
15586TIP3    H168249   4.642   3.876  11.683 -1.3373  0.6245  1.3546
15586TIP3    H268250   4.705   4.008  11.642  0.4264 -0.3734  0.8199
15587TIP3   OH268251   3.277   2.208  11.167 -0.1139 -0.2453  0.1051
15587TIP3    H168252   3.301   2.176  11.254  3.5853  0.5033 -0.5329
15587TIP3    H268253   3.282   2.131  11.111  3.6888  0.3443 -0.4957
15588TIP3   OH268254   6.066   3.359   0.500  0.0827 -0.6969  0.1750
15588TIP3    H168255   6.158   3.371   0.525  0.0836  2.9915 -1.2457
15588TIP3    H268256   6.070   3.312   0.417  0.8543  1.0006 -0.8026
15589TIP3   OH268257   5.924   5.526   1.323  0.8673 -0.7461  0.0295
15589TIP3    H168258   5.992   5.540   1.257  0.1944 -0.8401 -0.7009
15589TIP3    H268259   5.929   5.603   1.380  0.9704 -0.2939 -0.5792
15590TIP3   OH268260   5.926   1.936  13.891  0.2979 -0.0307  0.1565
15590TIP3    H168261   5.949   2.021  13.927  0.1662  0.3738 -0.7021
15590TIP3    H268262   5.900   1.884  13.967  1.6768  0.2607  0.8457
15591TIP3   OH268263   5.861   4.179  15.771 -0.1002  0.1440  0.2929
15591TIP3    H168264   5.901   4.115  15.830  0.5293  0.4245  0.1792
15591TIP3    H268265   5.935   4.224  15.731 -0.5305  0.3815 -0.2465
15592TIP3   OH268266   3.531   4.218   1.537 -0.1261  0.2054 -0.2193
15592TIP3    H168267   3.487   4.275   1.474  0.1955 -0.4733 -1.0577
15592TIP3    H268268   3.612   4.193   1.495  0.4910  0.4258  0.8164
15593TIP3   OH268269   2.528   4.413  15.293  0.2028  0.4123  0.1844
15593TIP3    H168270   2.540   4.400  15.199 -1.2516  0.9148 -0.0927
15593TIP3    H268271   2.434   4.403  15.307  0.4378  0.0064  1.6509
15594TIP3   OH268272   5.063   4.288  13.259 -0.1834  0.0369  0.7652
15594TIP3    H168273   5.034   4.376  13.280  1.0524  0.2750  1.5282
15594TIP3    H268274   5.155   4.286  13.285  1.1113 -0.0430 -3.5082
15595TIP3   OH268275   6.523   1.547  11.426  0.0297  0.1065  0.1122
15595TIP3    H168276   6.521   1.525  11.333 -0.1248 -0.5797  0.2759
15595TIP3    H268277   6.598   1.498  11.460 -1.0817 -1.2049  0.7320
15596TIP3   OH268278   4.404   2.953  12.147  0.1590  0.0402  0.1141
15596TIP3    H168279   4.326   3.009  12.151  0.4939  0.5158  0.0365
15596TIP3    H268280   4.369   2.865  12.131 -0.3484  0.2885 -0.1730
15597TIP3   OH268281   6.495   4.846   2.461  0.0750 -0.4016 -0.1063
15597TIP3    H168282   6.415   4.859   2.409 -0.5300 -1.6266  0.4982
15597TIP3    H268283   6.481   4.763   2.507  0.0050  1.3003  3.0856
15598TIP3   OH268284   0.354   2.404   4.821 -0.0596  0.0699  0.7710
15598TIP3    H168285   0.280   2.353   4.789  0.4413  0.6767 -1.3893
15598TIP3    H268286   0.331   2.495   4.802  0.8981  0.3235  0.8028
15599TIP3   OH268287   4.324   4.380   3.086  0.0431 -0.1515 -0.1876
15599TIP3    H168288   4.244   4.389   3.033 -0.9461 -0.9906  1.1284
15599TIP3    H268289   4.392   4.424   3.035 -1.0225 -0.4185 -1.8684
15600TIP3   OH268290   0.347   3.119   4.751  1.4556  0.2375 -0.3602
15600TIP3    H168291   0.271   3.168   4.720  1.8369  0.2916 -1.2398
15600TIP3    H268292   0.390   3.177   4.813  0.0893 -0.2887  1.1238
15601TIP3   OH268293   2.040   1.004   2.602  0.6733 -0.0730 -0.3057
15601TIP3    H168294   1.972   1.044   2.657  0.2400  0.3583 -1.1344
15601TIP3    H268295   2.123   1.030   2.643  0.3738  1.0168 -0.3715
15602TIP3   OH268296   1.367   5.565   3.683 -0.0568 -0.0948  0.0507
15602TIP3    H168297   1.387   5.612   3.602 -1.2904 -1.1297 -0.8741
15602TIP3    H268298   1.436   5.593   3.744  0.6752  0.9811 -1.2284
15603TIP3   OH268299   5.794   6.460   2.210 -0.4936 -0.2840 -0.3553
15603TIP3    H168300   5.886   6.480   2.189 -0.6895 -0.0690 -1.0115
15603TIP3    H268301   5.761   6.541   2.249 -0.4067 -0.3596 -0.1236
15604TIP3   OH268302   3.953   3.903  17.166 -0.8553 -0.0978  0.3394
15604TIP3    H168303   3.946   3.946  17.252 -1.4624 -1.5500  1.0476
15604TIP3    H268304   4.027   3.945  17.123  0.8476 -0.8492  2.4619
15605TIP3   OH268305   3.944   6.567   2.927  0.3467 -0.1930 -0.2053
15605TIP3    H168306   3.913   6.641   2.875 -1.2180 -0.2170  0.6643
15605TIP3    H268307   3.907   6.490   2.883  1.9556 -0.4907 -1.0997
15606TIP3   OH268308   6.635   2.921   4.571 -0.2704  0.0371 -0.2987
15606TIP3    H168309   6.699   2.896   4.637  0.2756 -0.1713 -0.9067
15606TIP3    H268310   6.598   2.839   4.540  0.2151  0.0772 -0.9911
15607TIP3   OH268311   1.278   0.244  13.267  0.4013 -0.1118 -0.1893
15607TIP3    H168312   1.201   0.265  13.214  0.2225  0.8278  0.4239
15607TIP3    H268313   1.251   0.264  13.357  1.3417  0.1802  0.0308
15608TIP3   OH268314   1.013   2.209   1.066  0.1908  0.0969  0.7673
15608TIP3    H168315   0.998   2.115   1.054  1.6920  0.1293 -1.6372
15608TIP3    H268316   1.058   2.215   1.150 -1.1953 -1.1749  1.6425
15609TIP3   OH268317   6.541   0.195  13.005  0.3816 -0.6097 -0.0987
15609TIP3    H168318   6.503   0.227  12.922  0.1917 -1.8715 -0.5063
15609TIP3    H268319   6.466   0.159  13.052  0.2411  1.3460  1.2451
15610TIP3   OH268320   6.451   6.015  17.088  0.1595 -0.0824  0.0938
15610TIP3    H168321   6.421   5.938  17.039  0.7628 -0.2778  0.0219
15610TIP3    H268322   6.520   6.052  17.033 -0.7116  1.0108 -0.2851
15611TIP3   OH268323   3.889   4.737   2.580  0.0277 -0.1518 -0.4745
15611TIP3    H168324   3.809   4.686   2.598 -0.0566 -0.4903 -1.7684
15611TIP3    H268325   3.873   4.821   2.622 -1.9976  0.6066 -2.6204
15612TIP3   OH268326   3.760   6.479  12.614  0.9226  0.5751  0.7486
15612TIP3    H168327   3.723   6.565  12.633 -2.2941  0.0279 -2.3542
15612TIP3    H268328   3.753   6.471  12.519  0.7334 -3.2963  1.0151
15613TIP3   OH268329   5.750   3.183  14.268 -0.4429 -0.2613  0.7658
15613TIP3    H168330   5.722   3.150  14.182 -1.0937  0.6963  0.6093
15613TIP3    H268331   5.806   3.257  14.248  0.2933 -0.7141  1.1462
15614TIP3   OH268332   6.225   3.218  15.048  0.2449 -0.3508 -0.0350
15614TIP3    H168333   6.174   3.169  15.113  0.8184  0.4070  0.9917
15614TIP3    H268334   6.225   3.308  15.080  1.2234 -0.1233 -0.6652
15615TIP3   OH268335   5.257   5.419  15.899 -0.6653  0.3861 -0.1995
15615TIP3    H168336   5.336   5.474  15.895 -0.3237  0.0592  1.4768
15615TIP3    H268337   5.224   5.431  15.988 -1.2794 -1.1732 -0.2002
15616TIP3   OH268338   1.846   6.652   4.097  0.4289  0.3944 -0.2309
15616TIP3    H168339   1.925   6.605   4.069  1.8020  2.0267  0.8109
15616TIP3    H268340   1.868   6.744   4.087 -1.8797  0.8469 -1.2570
15617TIP3   OH268341   5.897   2.749   3.530  0.5403 -0.0933 -0.6376
15617TIP3    H168342   5.825   2.780   3.584 -0.4624  1.1957 -2.6227
15617TIP3    H268343   5.976   2.781   3.574 -0.0815 -1.2739  1.3967
15618TIP3   OH268344   5.605   6.810  10.602 -0.5187 -0.4759 -0.1362
15618TIP3    H168345   5.643   6.860  10.530 -0.0237  0.2975  0.6454
15618TIP3    H268346   5.636   6.854  10.681 -1.2760 -1.1468  0.5533
15619TIP3   OH268347   1.600   5.857  16.426 -0.7242 -0.3272  0.2611
15619TIP3    H168348   1.623   5.909  16.503 -2.1320  0.8324 -0.0659
15619TIP3    H268349   1.584   5.922  16.358 -1.1244 -1.2640 -0.5474
15620TIP3   OH268350   3.022   0.610   5.293 -0.4037 -0.4852 -0.3879
15620TIP3    H168351   3.092   0.645   5.237  0.3411 -1.1104  0.1543
15620TIP3    H268352   3.043   0.642   5.381  0.3242 -2.3451  0.1293
15621TIP3   OH268353   2.347   4.344   1.519  0.3081 -0.1196 -0.6926
15621TIP3    H168354   2.323   4.424   1.566  0.3063 -0.7555  0.4013
15621TIP3    H268355   2.279   4.335   1.452  0.0285  0.5225 -0.5051
15622TIP3   OH268356   3.848   2.860   0.935 -0.1999  0.5057 -0.3321
15622TIP3    H168357   3.791   2.849   0.859  1.2682  0.2163 -1.4164
15622TIP3    H268358   3.887   2.947   0.923 -0.4490  0.7297  0.4423
15623TIP3   OH268359   1.130   2.133   1.925  0.6117 -0.0005  0.3431
15623TIP3    H168360   1.199   2.081   1.964  0.1751 -1.6470 -1.0352
15623TIP3    H268361   1.122   2.100   1.835 -3.2565 -1.1653  1.0308
15624TIP3   OH268362   3.171   1.575   5.290 -0.1547 -0.0823 -0.9715
15624TIP3    H168363   3.241   1.518   5.321 -1.6399  0.1430  3.0816
15624TIP3    H268364   3.215   1.643   5.240  2.3825 -0.8199  0.1964
15625TIP3   OH268365   5.849   0.051  16.285  0.3369 -0.5091  0.4709
15625TIP3    H168366   5.837  -0.015  16.217 -1.3718  0.6326 -0.3933
15625TIP3    H268367   5.791   0.023  16.357  0.5334 -0.6016  0.5912
15626TIP3   OH268368   2.498   5.466  13.186  0.4702 -0.2136  0.1534
15626TIP3    H168369   2.576   5.474  13.240  1.0312 -1.1228 -0.5230
15626TIP3    H268370   2.524   5.410  13.113 -0.6170  0.0259 -0.4349
15627TIP3   OH268371   3.856   5.149   2.775 -0.6162 -0.1052  0.6345
15627TIP3    H168372   3.806   5.228   2.758  1.8009  1.0230 -1.6220
15627TIP3    H268373   3.825   5.086   2.710 -1.0622 -0.3296  1.0621
15628TIP3   OH268374   5.222   6.801  12.295 -0.1541  0.3701 -0.4560
15628TIP3    H168375   5.153   6.867  12.300 -1.0849 -0.6344  0.3059
15628TIP3    H268376   5.256   6.808  12.205 -0.8201  1.2954 -0.6427
15629TIP3   OH268377   4.663   5.583   0.574 -0.0041  0.0006  0.0168
15629TIP3    H168378   4.703   5.512   0.624 -0.5583 -0.8565 -0.7557
15629TIP3    H268379   4.615   5.634   0.640 -0.6191 -1.0454  0.4003
15630TIP3   OH268380   1.505   5.760  17.242 -0.4314 -0.2484  0.2671
15630TIP3    H168381   1.412   5.757  17.219 -0.1637 -0.6486 -0.8185
15630TIP3    H268382   1.534   5.669  17.236  0.5847  0.1657 -1.8891
15631TIP3   OH268383   2.474   1.723  11.616  0.9243  0.1574  0.0437
15631TIP3    H168384   2.560   1.696  11.582  1.7427  2.2159  0.4187
15631TIP3    H268385   2.420   1.644  11.609  2.2154 -0.5673 -2.2565
15632TIP3   OH268386   5.762   3.839   5.376  0.8025 -0.0606 -0.3578
15632TIP3    H168387   5.801   3.780   5.440 -1.0538 -1.3344 -0.3479
15632TIP3    H268388   5.750   3.922   5.423  0.3192 -0.7065  0.6743
15633TIP3   OH268389   4.186   4.531   1.566  0.1620 -0.3171  0.0895
15633TIP3    H168390   4.256   4.571   1.514  0.0003  0.1485  0.2275
15633TIP3    H268391   4.167   4.448   1.521 -0.1123  0.1717 -0.7007
15634TIP3   OH268392   0.582   1.147   0.440  1.1966  0.3484  0.7057
15634TIP3    H168393   0.497   1.161   0.480  0.4853  0.8958 -0.9273
15634TIP3    H268394   0.616   1.235   0.425  1.3194  0.1754 -0.1042
15635TIP3   OH268395   6.662   0.154   2.374 -0.0372 -0.3458  0.5007
15635TIP3    H168396   6.675   0.104   2.454 -1.5118 -3.0544 -0.9092
15635TIP3    H268397   6.675   0.245   2.401 -0.0505 -1.2330  3.7141
15636TIP3   OH268398   4.753   3.364  15.823 -0.2570 -0.2399 -0.0608
15636TIP3    H168399   4.718   3.390  15.908 -0.4215  0.6593 -0.3943
15636TIP3    H268400   4.750   3.445  15.771  0.1824 -0.7013 -0.7984
15637TIP3   OH268401   3.832   0.795   2.249 -0.1792 -0.3431 -0.6439
15637TIP3    H168402   3.795   0.730   2.189 -1.9655  0.3071 -0.2505
15637TIP3    H268403   3.804   0.766   2.336 -2.3818  1.8409 -0.5915
15638TIP3   OH268404   5.901   5.079   2.552  0.6258 -0.1261 -0.5050
15638TIP3    H168405   5.907   5.055   2.644  0.7263  0.8843 -0.2387
15638TIP3    H268406   5.913   4.997   2.504  0.8274 -0.6104  0.3739
15639TIP3   OH268407   0.490   4.095  15.397 -0.3370  0.0113  0.4259
15639TIP3    H168408   0.490   4.151  15.319 -0.2313 -0.6329 -0.0483
15639TIP3    H268409   0.420   4.129  15.451  0.3546  1.2121  0.5914
15640TIP3   OH268410   5.515   0.183   3.867  0.6261  0.5001 -0.0213
15640TIP3    H168411   5.451   0.126   3.826  1.3651 -0.3186 -0.0509
15640TIP3    H268412   5.474   0.269   3.868  0.1737  0.3107 -1.4958
15641TIP3   OH268413   3.766   4.342  16.881 -0.0510 -0.3311  0.4871
15641TIP3    H168414   3.705   4.355  16.809 -0.1429  0.7310  0.7445
15641TIP3    H268415   3.723   4.280  16.939 -0.7027  0.0732  0.4465
15642TIP3   OH268416   6.175   4.673   3.483 -0.0482  0.3644  0.0245
15642TIP3    H168417   6.129   4.665   3.399  0.2793  0.7398 -0.1855
15642TIP3    H268418   6.253   4.619   3.473  0.6032  1.3739 -0.3281
15643TIP3   OH268419   6.140   3.107  12.888  0.1793  0.4406 -0.2042
15643TIP3    H168420   6.127   3.022  12.845  1.2626  0.9765 -1.6709
15643TIP3    H268421   6.148   3.086  12.981 -1.8068 -0.8108 -0.2970
15644TIP3   OH268422   0.987   0.072   1.371  0.1527 -0.0308 -0.3335
15644TIP3    H168423   0.969   0.075   1.277  1.2904  0.4377 -0.5484
15644TIP3    H268424   1.007  -0.020   1.389  2.5932  0.3185 -1.0837
15645TIP3   OH268425   5.696   6.485  16.517  1.0211  0.0582 -0.3872
15645TIP3    H168426   5.788   6.492  16.539  0.9773  0.3916 -0.3138
15645TIP3    H268427   5.682   6.392  16.500  1.0191 -0.2421  1.1388
15646TIP3   OH268428   6.530   3.601   1.770 -0.1837 -0.3440 -0.2011
15646TIP3    H168429   6.510   3.641   1.686 -0.3441  0.4454  0.2038
15646TIP3    H268430   6.493   3.513   1.766 -1.7386  0.3119 -0.2955
15647TIP3   OH268431   0.766   4.141   4.763 -0.1639  0.2155 -0.0095
15647TIP3    H168432   0.694   4.140   4.700 -0.0821 -1.2525 -0.1023
15647TIP3    H268433   0.743   4.210   4.826 -0.3299  1.5653 -1.5290
15648TIP3   OH268434   5.028   3.304  16.528 -0.2383  0.3806 -0.3768
15648TIP3    H168435   5.098   3.242  16.546 -0.6148  0.6097  1.9734
15648TIP3    H268436   5.073   3.389  16.522 -0.2917  0.5391  1.2083
15649TIP3   OH268437   3.667   0.474   2.693  0.4691  0.0277 -0.3537
15649TIP3    H168438   3.624   0.536   2.753  0.0060  2.2593 -2.9122
15649TIP3    H268439   3.755   0.463   2.729 -0.1383  0.4890  1.3273
15650TIP3   OH268440   2.532   6.293   5.627  0.1528 -0.3882 -0.2228
15650TIP3    H168441   2.593   6.346   5.576 -0.1909  0.9804  0.7614
15650TIP3    H268442   2.585   6.254   5.697  0.3650 -1.2022 -0.8260
15651TIP3   OH268443   1.657   4.256   4.548  0.5038 -0.2275 -0.4518
15651TIP3    H168444   1.727   4.293   4.494  0.2201 -0.2372 -0.8297
15651TIP3    H268445   1.701   4.225   4.627  0.7740  0.6723 -0.2553
15652TIP3   OH268446   1.883   6.655   5.525  0.2984  0.5906  0.5711
15652TIP3    H168447   1.969   6.645   5.483 -0.5486 -0.0399 -1.0489
15652TIP3    H268448   1.894   6.617   5.612  1.9436  1.4434  0.7639
15653TIP3   OH268449   0.541   2.026   3.124  0.1251  0.0578 -0.1467
15653TIP3    H168450   0.610   2.076   3.079  2.8552 -2.5578  1.0330
15653TIP3    H268451   0.520   1.955   3.064 -0.7080  0.1349  0.0420
15654TIP3   OH268452   3.518   2.476  15.736  0.1849  0.6477 -0.0122
15654TIP3    H168453   3.446   2.493  15.675 -0.0182 -0.0106  0.0417
15654TIP3    H268454   3.503   2.536  15.809 -1.1522 -0.5612  0.7034
15655TIP3   OH268455   2.015   2.020  11.449 -0.3149 -0.1413  1.2674
15655TIP3    H168456   2.058   1.937  11.427  0.9888  0.9065 -0.1252
15655TIP3    H268457   1.967   2.044  11.370  0.5858  1.2320  1.1284
15656TIP3   OH268458   2.976   4.122   6.659  0.0294  0.7990  0.0186
15656TIP3    H168459   2.908   4.185   6.683  0.0313  0.9133 -0.2749
15656TIP3    H268460   2.945   4.039   6.696  0.5968  1.1929  1.4222
15657TIP3   OH268461   3.066   4.672  12.906  0.0216 -0.0899  0.0388
15657TIP3    H168462   3.143   4.718  12.874  0.8849 -0.8201  1.0399
15657TIP3    H268463   3.007   4.742  12.936  0.8263  0.4241  0.4477
15658TIP3   OH268464   0.517   0.042  16.622 -0.8492  0.3423  0.1109
15658TIP3    H168465   0.458   0.071  16.692 -1.0837 -0.0266  0.0668
15658TIP3    H268466   0.546   0.122  16.580  0.1516  0.6484  1.3362
15659TIP3   OH268467   4.387   3.649   5.998  0.0626 -0.3521  0.4378
15659TIP3    H168468   4.397   3.596   5.919  1.2661 -3.1463  2.3765
15659TIP3    H268469   4.334   3.595   6.056  0.0140  1.2415  1.9080
15660TIP3   OH268470   6.073   2.385   2.372 -0.6300 -0.2467  0.0986
15660TIP3    H168471   6.051   2.426   2.456 -0.7025 -0.6808  0.2964
15660TIP3    H268472   6.027   2.301   2.374  1.9251 -1.7078  1.0406
15661TIP3   OH268473   3.665   3.294  15.317  0.1049 -0.3538 -0.0848
15661TIP3    H168474   3.642   3.296  15.410  1.2183  2.8391  0.1808
15661TIP3    H268475   3.751   3.252  15.315  1.8825  3.0439  0.8432
15662TIP3   OH268476   3.030   6.450  12.595 -0.3594 -0.1397 -0.3603
15662TIP3    H168477   2.987   6.369  12.567 -0.6254  0.1270 -0.7381
15662TIP3    H268478   2.965   6.494  12.649  0.3917 -0.9621  1.2556
15663TIP3   OH268479   3.464   4.818  10.652 -0.7255  0.2440  0.0890
15663TIP3    H168480   3.389   4.759  10.647  0.4680 -1.4104  1.1754
15663TIP3    H268481   3.524   4.785  10.584 -0.0774  0.2349  0.6623
15664TIP3   OH268482   0.020   2.817  13.480 -0.4660 -0.1219 -0.5345
15664TIP3    H168483   0.102   2.826  13.430  0.0864 -0.4893  0.3045
15664TIP3    H268484  -0.012   2.729  13.458  0.1788 -0.5813  0.3624
15665TIP3   OH268485   2.306   1.093   2.293  0.0476  0.7525  0.0823
15665TIP3    H168486   2.363   1.039   2.348 -0.5711  0.5892  0.5718
15665TIP3    H268487   2.350   1.178   2.288  0.0400  0.8121  0.9468
15666TIP3   OH268488   1.734   0.948   5.286  0.1989 -0.5027  0.5839
15666TIP3    H168489   1.781   0.872   5.322  0.3702 -1.3653 -1.3769
15666TIP3    H268490   1.660   0.909   5.237  0.7365  0.5274 -1.0922
15667TIP3   OH268491   2.403   3.234  11.120 -0.3602  0.1126 -0.3916
15667TIP3    H168492   2.466   3.198  11.182 -0.2591  0.2325 -0.4253
15667TIP3    H268493   2.371   3.158  11.072 -0.1035  0.0739 -0.5021
15668TIP3   OH268494   2.955   5.842  11.796  0.3239 -0.1437 -0.4734
15668TIP3    H168495   2.875   5.807  11.758 -0.8183 -0.1689  1.8709
15668TIP3    H268496   2.971   5.923  11.747 -1.5980  0.2827 -0.4347
15669TIP3   OH268497   6.058   0.868   2.162 -0.2284  0.1894  0.2602
15669TIP3    H168498   5.970   0.848   2.194 -0.1775  0.1536  0.3782
15669TIP3    H268499   6.116   0.825   2.224 -0.0848  1.7844  1.2551
15670TIP3   OH268500   5.726   0.655  13.880  0.5146  0.0017  0.2576
15670TIP3    H168501   5.670   0.579  13.897 -0.3084  0.2195 -1.3533
15670TIP3    H268502   5.672   0.730  13.902  0.5921  0.1849 -0.1811
15671TIP3   OH268503   3.318   5.411   1.019 -0.2507  0.3664 -0.5036
15671TIP3    H168504   3.257   5.485   1.017  1.4529  1.7952 -0.6141
15671TIP3    H268505   3.360   5.412   0.933 -0.2416 -0.7633 -0.5252
15672TIP3   OH268506   4.751   6.034   5.010 -0.1194 -0.4005 -0.0446
15672TIP3    H168507   4.743   5.939   5.015  0.6177 -0.4220  0.8059
15672TIP3    H268508   4.784   6.060   5.096  0.9613  0.4923 -0.7152
15673TIP3   OH268509   2.624   5.759  10.839 -0.1314  0.0976  0.7255
15673TIP3    H168510   2.589   5.760  10.750  0.0016  0.2539  0.6729
15673TIP3    H268511   2.603   5.846  10.874  1.8804  0.8880  0.0401
15674TIP3   OH268512   3.924   1.602   4.973  0.2812  0.6842  0.3317
15674TIP3    H168513   3.949   1.647   5.054  0.7694  1.0342 -0.0140
15674TIP3    H268514   3.973   1.520   4.975  0.4510  0.7862  0.2841
15675TIP3   OH268515   3.756   4.461   1.961 -0.4361  0.0858 -0.0076
15675TIP3    H168516   3.695   4.394   1.990 -0.7056  0.1022 -0.5188
15675TIP3    H268517   3.783   4.432   1.874  0.4199 -0.0094  0.2898
15676TIP3   OH268518   0.583   0.184  13.357  0.5297  0.3076 -0.1741
15676TIP3    H168519   0.631   0.253  13.401 -1.7616  1.8275  0.0349
15676TIP3    H268520   0.496   0.221  13.342 -0.8172 -2.5931  0.1128
15677TIP3   OH268521   4.888   0.419  14.727  0.6547  0.4050  0.5371
15677TIP3    H168522   4.980   0.394  14.741  0.8253  1.5307  1.4927
15677TIP3    H268523   4.845   0.397  14.809 -0.1931 -1.2492 -0.3357
15678TIP3   OH268524   1.126   5.139  12.210  0.4024  0.1017  0.5452
15678TIP3    H168525   1.045   5.097  12.181  0.7140 -1.1500  1.4746
15678TIP3    H268526   1.097   5.212  12.264 -0.1018 -0.6184  1.2517
15679TIP3   OH268527   0.457   1.608  13.332 -0.0519  0.0053 -0.0180
15679TIP3    H168528   0.543   1.570  13.314  0.3207  0.1663  1.3919
15679TIP3    H268529   0.466   1.701  13.311 -0.3162 -0.2371 -1.2764
15680TIP3   OH268530   2.085   5.149   2.290  0.0162 -0.6859  0.1400
15680TIP3    H168531   2.160   5.167   2.347 -0.1370 -2.8399  1.0777
15680TIP3    H268532   2.117   5.164   2.201  1.4928 -1.3332  0.5558
15681TIP3   OH268533   4.962   6.225   3.669  0.1814  0.2250  0.1127
15681TIP3    H168534   4.935   6.269   3.588 -1.2005  0.1333  0.5023
15681TIP3    H268535   5.054   6.248   3.680  0.1952  0.7906 -1.1289
15682TIP3   OH268536   5.148   5.869   1.825 -0.1211  0.3883  0.1651
15682TIP3    H168537   5.065   5.916   1.814  0.1827  0.6125 -1.3878
15682TIP3    H268538   5.201   5.898   1.750  1.1719 -0.1386  0.8690
15683TIP3   OH268539   6.021   1.510   1.280 -0.0541 -0.7007 -0.0147
15683TIP3    H168540   6.027   1.431   1.227  0.2938 -0.2993 -0.5724
15683TIP3    H268541   6.045   1.581   1.221  1.0477 -0.3265  0.8595
15684TIP3   OH268542   4.076   6.148  11.007 -0.0618  0.0478  0.1106
15684TIP3    H168543   4.078   6.157  10.912 -0.2590  1.5015  0.2356
15684TIP3    H268544   4.063   6.054  11.022 -0.6191 -0.1089 -1.2968
15685TIP3   OH268545   6.236   3.880   1.151  0.2705  0.4230 -0.3496
15685TIP3    H168546   6.176   3.806   1.142 -0.2570  0.7964  0.0440
15685TIP3    H268547   6.231   3.903   1.244  2.3091 -0.6149  0.0339
15686TIP3   OH268548   0.305   3.003  16.337 -0.3584 -0.2428 -0.8180
15686TIP3    H168549   0.389   3.037  16.306 -0.2722  1.1223  0.8438
15686TIP3    H268550   0.329   2.945  16.410 -0.8777  0.5604 -0.0057
15687TIP3   OH268551   0.173   1.767  13.939  0.1775 -0.1130  0.5283
15687TIP3    H168552   0.214   1.818  13.869  2.6729 -0.4060  1.7217
15687TIP3    H268553   0.191   1.676  13.915 -2.5236 -0.4227 -0.5430
15688TIP3   OH268554   6.431   6.473  14.621 -0.3278 -0.6117  0.6987
15688TIP3    H168555   6.526   6.461  14.622 -0.3497 -1.3741 -1.4440
15688TIP3    H268556   6.418   6.565  14.643  0.9791 -0.2546  0.0859
15689TIP3   OH268557   2.810   2.563  16.110  0.3197 -0.5141 -0.0647
15689TIP3    H168558   2.730   2.512  16.116  0.8137 -1.1686  1.0780
15689TIP3    H268559   2.844   2.543  16.023 -0.6469 -0.3873 -0.4774
15690TIP3   OH268560   3.207   0.207  15.151  0.0934  0.1908  0.4741
15690TIP3    H168561   3.177   0.133  15.098  0.4892  0.2264  0.1955
15690TIP3    H268562   3.128   0.258  15.169 -0.4955 -1.3003  2.2425
15691TIP3   OH268563   3.475   3.647   5.845 -0.4650  0.3217 -0.5577
15691TIP3    H168564   3.519   3.697   5.776  1.8204 -0.2619  0.4380
15691TIP3    H268565   3.530   3.659   5.922 -1.6519 -1.0602  0.5263
15692TIP3   OH268566   5.237   4.577  15.604  0.0420  1.3893  0.1169
15692TIP3    H168567   5.217   4.502  15.548 -0.3288  2.0311 -0.6204
15692TIP3    H268568   5.331   4.592  15.592  0.4876 -0.0262  1.6070
15693TIP3   OH268569   2.092   1.692  11.442  0.4252  0.6616  0.4302
15693TIP3    H168570   2.110   1.599  11.455 -1.2748  0.3305  0.5039
15693TIP3    H268571   2.138   1.714  11.361 -0.2621 -0.5590 -0.3057
15694TIP3   OH268572   5.042   4.794   5.411  0.2549  0.0146 -0.0318
15694TIP3    H168573   5.042   4.889   5.417  0.9899 -0.0200  0.6483
15694TIP3    H268574   4.973   4.765   5.471  0.2531  0.1069  0.0095
15695TIP3   OH268575   2.946   6.611  14.744 -0.7943 -0.2916  0.2820
15695TIP3    H168576   2.853   6.629  14.736 -0.6013  0.6089  0.0146
15695TIP3    H268577   2.968   6.566  14.662 -1.1402 -1.1772  0.6680
15696TIP3   OH268578   3.607   4.943   3.206  0.3234  0.1234 -0.2827
15696TIP3    H168579   3.619   4.996   3.127 -2.4279  0.0309 -0.8027
15696TIP3    H268580   3.665   4.867   3.192  1.2253  0.9926 -1.3676
15697TIP3   OH268581   4.355   2.675  12.569  0.5408 -0.2087 -0.1997
15697TIP3    H168582   4.363   2.620  12.647 -0.4931  1.9369  1.4741
15697TIP3    H268583   4.445   2.688  12.539  0.9103 -1.4087  0.3659
15698TIP3   OH268584   2.109   5.950  16.204  0.1953 -0.1905  0.5118
15698TIP3    H168585   2.155   6.004  16.268  2.2085 -2.5661  1.1507
15698TIP3    H268586   2.104   5.864  16.245 -0.3876 -1.2156 -1.6497
15699TIP3   OH268587   6.028   5.496   4.689 -0.5236 -0.5548 -0.3977
15699TIP3    H168588   6.058   5.554   4.759 -0.2112 -3.8964  2.4005
15699TIP3    H268589   6.108   5.455   4.656 -0.9497 -1.2066 -0.6333
15700TIP3   OH268590   1.736   1.687   5.007 -0.6491  0.3956 -0.3265
15700TIP3    H168591   1.658   1.688   5.062 -0.4486 -0.1115 -0.0307
15700TIP3    H268592   1.774   1.600   5.021  0.4261  0.9370  0.1683
15701TIP3   OH268593   0.711   5.959   2.477 -0.3401 -0.4560 -0.7413
15701TIP3    H168594   0.620   5.962   2.507 -0.5482 -0.7159 -1.3354
15701TIP3    H268595   0.716   6.028   2.411  0.3679  0.7687  0.5665
15702TIP3   OH268596   1.736   5.061  15.448  0.3183 -0.0973  0.3409
15702TIP3    H168597   1.699   5.139  15.490  0.6725  1.8361 -2.7484
15702TIP3    H268598   1.810   5.095  15.397  0.8883 -2.5566 -0.5260
15703TIP3   OH268599   6.713   5.657   3.522  0.4766  0.1824  0.4173
15703TIP3    H168600   6.690   5.581   3.575  0.6294 -0.0794  0.1119
15703TIP3    H268601   6.708   5.731   3.583 -1.5094  0.1907  0.2757
15704TIP3   OH268602   4.537   0.789  15.373 -0.0092 -0.1020  0.2068
15704TIP3    H168603   4.490   0.836  15.442 -1.9676 -0.1297 -1.0824
15704TIP3    H268604   4.530   0.697  15.397  0.6688 -0.0113  0.7826
15705TIP3   OH268605   0.591   1.310   2.707  0.1338  1.1699 -0.2338
15705TIP3    H168606   0.636   1.383   2.665  1.1724  0.3997 -0.4994
15705TIP3    H268607   0.498   1.325   2.691  0.4977  0.9204 -2.7639
15706TIP3   OH268608   3.541   0.299   0.267  0.1433 -0.4236 -0.1071
15706TIP3    H168609   3.586   0.299   0.183 -0.4940 -0.7856 -0.4526
15706TIP3    H268610   3.501   0.212   0.273 -1.2675  0.1989 -0.2161
15707TIP3   OH268611   6.529   5.345   4.307  0.1185 -0.3232  0.7291
15707TIP3    H168612   6.517   5.358   4.401 -1.9554 -1.3969  0.6515
15707TIP3    H268613   6.615   5.383   4.288 -0.6616  2.4761  2.5245
15708TIP3   OH268614   2.628   5.700   5.688 -0.4676 -0.0470 -0.0261
15708TIP3    H168615   2.659   5.701   5.597  3.5394 -2.7983  1.1739
15708TIP3    H268616   2.649   5.787   5.721 -0.1823  0.3422 -1.1987
15709TIP3   OH268617   2.068   5.622  16.013 -0.4635 -0.1207 -0.5162
15709TIP3    H168618   1.976   5.632  15.987 -0.1480 -0.4722 -1.7831
15709TIP3    H268619   2.112   5.696  15.973 -0.0460 -0.4280 -0.6247
15710TIP3   OH268620   3.070   4.344   0.574  0.2641 -0.3591  0.4020
15710TIP3    H168621   3.140   4.281   0.560 -0.3242 -0.9116 -0.0815
15710TIP3    H268622   3.092   4.418   0.517 -1.5043 -2.1039 -2.6955
15711TIP3   OH268623   0.160   1.008   1.511 -0.3424  0.0043  0.4710
15711TIP3    H168624   0.230   0.950   1.478 -1.1110 -0.3855 -0.4828
15711TIP3    H268625   0.082   0.954   1.509 -0.9054  0.8205  0.3850
15712TIP3   OH268626   0.880   1.496   6.376 -0.6551 -0.0336 -0.8199
15712TIP3    H168627   0.898   1.590   6.381 -2.4529  0.2742  0.0499
15712TIP3    H268628   0.967   1.456   6.380  0.0301  1.5154  0.9455
15713TIP3   OH268629   3.535   5.727   1.231 -0.1562  0.0135 -0.4600
15713TIP3    H168630   3.603   5.734   1.297  0.3782 -0.6220 -0.9454
15713TIP3    H268631   3.498   5.640   1.242 -0.5180  0.1497 -0.5664
15714TIP3   OH268632   3.902   4.891   0.056  0.6900  0.1895 -0.5875
15714TIP3    H168633   3.865   4.953  -0.007  1.0765  0.1769 -0.8284
15714TIP3    H268634   3.918   4.811   0.006  2.1731  0.5876 -0.7778
15715TIP3   OH268635   1.089   4.833  11.830  0.2060  0.2078 -0.3380
15715TIP3    H168636   1.151   4.799  11.894 -0.7444  0.4895  0.7462
15715TIP3    H268637   1.103   4.928  11.831  0.8633  0.1350 -1.2745
15716TIP3   OH268638   4.833   5.323   5.579 -0.1531  0.0182 -0.1240
15716TIP3    H168639   4.774   5.311   5.505  1.2424 -0.5660 -1.1918
15716TIP3    H268640   4.893   5.248   5.573  0.9768  0.8462  0.6279
15717TIP3   OH268641   0.983   4.206  10.421 -0.0983 -0.1832 -0.2389
15717TIP3    H168642   1.011   4.202  10.513 -1.0144  0.9689  0.1093
15717TIP3    H268643   1.011   4.293  10.392 -0.4508 -0.2684 -0.8316
15718TIP3   OH268644   6.640   4.240  14.679  0.7687  0.0928  0.3761
15718TIP3    H168645   6.635   4.197  14.764 -0.2041 -0.6301 -0.0402
15718TIP3    H268646   6.598   4.179  14.618 -0.5324  1.5857 -0.2496
15719TIP3   OH268647   3.525   2.793   3.090 -0.2735 -0.1011  0.0869
15719TIP3    H168648   3.552   2.717   3.039 -2.3161 -0.6313 -0.2410
15719TIP3    H268649   3.516   2.759   3.179  1.9623  0.5180  0.5847
15720TIP3   OH268650   6.545   3.734  13.662  0.1842  0.0246  0.1830
15720TIP3    H168651   6.588   3.812  13.697  3.1797 -1.1555 -0.7031
15720TIP3    H268652   6.584   3.662  13.711 -0.7779 -1.0987 -0.6832
15721TIP3   OH268653   5.100   6.046   5.531  0.8455  0.0875 -0.6253
15721TIP3    H168654   5.143   6.010   5.608  0.7439  0.4984 -0.3771
15721TIP3    H268655   5.136   5.996   5.458  1.1653 -0.0948 -0.3417
15722TIP3   OH268656   4.197   5.696  15.209 -0.2787  0.0095  0.1803
15722TIP3    H168657   4.168   5.753  15.138  1.7430  1.3736  0.4000
15722TIP3    H268658   4.129   5.704  15.276 -0.8403  0.8650 -0.4856
15723TIP3   OH268659   0.685   1.281  13.653  0.3700  0.1823 -0.0669
15723TIP3    H168660   0.730   1.199  13.677 -2.3372 -1.7206 -1.2891
15723TIP3    H268661   0.719   1.302  13.566  0.1277 -0.3654 -0.3003
15724TIP3   OH268662   5.019   6.101  12.611 -0.1625  0.0580 -0.0619
15724TIP3    H168663   4.972   6.022  12.582 -0.2801 -0.1299  0.6241
15724TIP3    H268664   5.054   6.077  12.697 -1.3822  1.2240  0.7725
15725TIP3   OH268665   2.757   5.474  12.260 -0.1721 -0.4730 -0.3839
15725TIP3    H168666   2.734   5.453  12.169  0.2177  0.8879 -0.8060
15725TIP3    H268667   2.832   5.533  12.253 -1.3593  1.2222  0.7343
15726TIP3   OH268668   0.877   5.254   3.130 -0.3192 -0.1945 -0.7032
15726TIP3    H168669   0.865   5.322   3.064  1.7139  1.0539  0.1783
15726TIP3    H268670   0.963   5.217   3.112  0.7281  0.8807  1.8255
15727TIP3   OH268671   0.565   3.314  16.586 -0.1519 -0.2189  0.0227
15727TIP3    H168672   0.611   3.286  16.507 -0.5671 -0.7526 -0.0359
15727TIP3    H268673   0.504   3.381  16.556  0.8453  0.7591  0.1617
15728TIP3   OH268674   3.550   1.259  14.822  0.4338 -0.6407 -0.0332
15728TIP3    H168675   3.488   1.199  14.863 -0.7689  0.5730 -0.0288
15728TIP3    H268676   3.633   1.239  14.863 -0.1748 -1.5152  0.7951
15729TIP3   OH268677   5.932   4.365  12.105 -0.1502 -0.3443 -0.2897
15729TIP3    H168678   5.950   4.278  12.141 -0.5933  0.0031  0.8045
15729TIP3    H268679   5.984   4.369  12.024  2.4982 -0.3892  1.3454
15730TIP3   OH268680   1.011   1.605  14.131  0.1603 -0.3095  0.0950
15730TIP3    H168681   1.023   1.518  14.094 -0.6271 -0.2045 -0.4154
15730TIP3    H268682   1.004   1.591  14.225 -0.1660 -0.8184 -0.0019
15731TIP3   OH268683   3.094   2.377  12.120  0.0184  0.5019 -0.0718
15731TIP3    H168684   3.175   2.329  12.138  0.0600  0.6419  0.1119
15731TIP3    H268685   3.109   2.420  12.036  0.8993  2.1889  0.9195
15732TIP3   OH268686   3.395   4.500  16.701  0.6642 -0.1130  0.5684
15732TIP3    H168687   3.411   4.463  16.615  1.6004  1.5955 -0.0012
15732TIP3    H268688   3.313   4.460  16.729  0.7013 -1.1862 -0.8213
15733TIP3   OH268689   0.961   3.491   4.250  0.1324 -0.1276 -0.8025
15733TIP3    H168690   0.986   3.507   4.159  1.5743  0.7011 -0.2732
15733TIP3    H268691   1.022   3.543   4.301  0.1265 -1.5651  0.6958
15734TIP3   OH268692   0.527   4.560  15.204  0.0641 -0.5638 -0.4188
15734TIP3    H168693   0.465   4.633  15.209  0.5354 -0.2204  0.5849
15734TIP3    H268694   0.582   4.581  15.128 -0.6479 -0.5554 -0.9354
15735TIP3   OH268695   3.402   6.476  16.209 -0.2495 -0.3106 -0.8242
15735TIP3    H168696   3.420   6.537  16.136 -0.5249 -1.1917 -1.6300
15735TIP3    H268697   3.450   6.514  16.283  0.5955  0.2368 -1.6272
15736TIP3   OH268698   5.384   3.150   4.696 -0.0646 -0.1395 -0.0543
15736TIP3    H168699   5.431   3.184   4.620 -0.6318  0.3461 -0.1890
15736TIP3    H268700   5.353   3.228   4.742  2.5415 -0.3167  2.1423
15737TIP3   OH268701   4.122   2.557  16.628  0.3016  0.3497 -0.4510
15737TIP3    H168702   4.147   2.467  16.644 -1.3140 -0.2006 -0.9197
15737TIP3    H268703   4.201   2.608  16.647  0.4808 -0.9000  2.2809
15738TIP3   OH268704   3.319   0.780  16.515  0.2395 -0.0101 -0.0761
15738TIP3    H168705   3.335   0.874  16.513  1.5634 -0.1631  1.8738
15738TIP3    H268706   3.367   0.745  16.440  0.4461  0.7588 -0.3007
15739TIP3   OH268707   1.757   1.801  14.498 -0.2418 -0.1372  0.4967
15739TIP3    H168708   1.837   1.774  14.453 -0.3895 -0.4770  0.4352
15739TIP3    H268709   1.701   1.724  14.495 -1.1517  0.5491 -0.7757
15740TIP3   OH268710   6.486   2.821  16.596 -0.1834  0.8921  0.5254
15740TIP3    H168711   6.437   2.891  16.552  0.1963  2.2210  2.1832
15740TIP3    H268712   6.429   2.792  16.667  0.3162  0.5621  0.7964
15741TIP3   OH268713   6.153   3.434  15.672  0.4480 -0.5561  0.4798
15741TIP3    H168714   6.175   3.461  15.583 -1.0320 -3.0494 -0.6935
15741TIP3    H268715   6.216   3.364  15.692 -1.0577 -1.9952  0.2653
15742TIP3   OH268716   3.137   2.818  14.970  0.0606 -0.3039  0.0491
15742TIP3    H168717   3.101   2.906  14.968  1.4497  0.2536 -1.4113
15742TIP3    H268718   3.061   2.761  14.971 -0.8694  0.8958 -0.7362
15743TIP3   OH268719   0.516   0.627   0.674 -0.2125 -0.0117 -0.3190
15743TIP3    H168720   0.551   0.539   0.689 -1.3919 -0.4040  0.2124
15743TIP3    H268721   0.578   0.668   0.615  1.5309 -0.4426  1.1724
15744TIP3   OH268722   5.218   1.215  13.352  0.2498 -0.1918 -0.0236
15744TIP3    H168723   5.261   1.248  13.273  0.8591  1.5291  0.9879
15744TIP3    H268724   5.279   1.149  13.386  1.2648  0.9505  0.4199
15745TIP3   OH268725   5.214   2.963  12.826  0.1995  0.1040  0.3923
15745TIP3    H168726   5.237   2.880  12.868 -2.1622 -0.7855 -0.0034
15745TIP3    H268727   5.199   2.940  12.735  1.1950  1.2954 -0.0862
15746TIP3   OH268728   5.062   1.538   2.988 -0.4082 -0.0152 -0.2857
15746TIP3    H168729   5.154   1.536   3.017 -0.3019  0.2152 -0.5994
15746TIP3    H268730   5.016   1.581   3.060 -0.5465 -1.6137  0.6000
15747TIP3   OH268731   6.493   4.918   1.681 -0.8519  0.1122 -0.2279
15747TIP3    H168732   6.457   5.005   1.698 -1.9103 -0.2097 -0.7504
15747TIP3    H268733   6.574   4.935   1.633 -1.3235  0.8007 -0.8037
15748TIP3   OH268734   3.517   2.031   5.722 -0.6879 -0.2678  0.7348
15748TIP3    H168735   3.502   1.938   5.739  0.5532 -0.3577  1.3757
15748TIP3    H268736   3.534   2.069   5.808  2.5781 -0.1567  0.0710
15749TIP3   OH268737   2.593   3.391  14.323 -0.3364  0.8864  0.5425
15749TIP3    H168738   2.677   3.434  14.307 -0.9974  2.0744  0.2240
15749TIP3    H268739   2.605   3.344  14.405  0.7325  0.8098  0.3456
15750TIP3   OH268740   4.464   0.967  15.595 -0.2720 -0.0412 -0.4897
15750TIP3    H168741   4.427   0.901  15.653 -0.6845  0.7447  0.1528
15750TIP3    H268742   4.504   1.032  15.654  1.6468 -0.5861 -1.1423
15751TIP3   OH268743   1.203   0.996  16.532  0.1561  0.4633 -0.0414
15751TIP3    H168744   1.231   1.028  16.446 -1.5656 -0.7355 -1.0638
15751TIP3    H268745   1.217   0.901  16.527 -0.0566  0.3804  0.9721
15752TIP3   OH268746   2.855   5.222   2.339 -0.3270  0.0911 -0.4394
15752TIP3    H168747   2.892   5.259   2.259 -0.4811 -3.0780 -2.0440
15752TIP3    H268748   2.766   5.256   2.343 -0.1266  0.7264 -1.2582
15753TIP3   OH268749   5.052   0.577   2.987  0.4598 -0.7335 -0.2713
15753TIP3    H168750   5.092   0.519   3.052 -0.2075  0.0103  0.8258
15753TIP3    H268751   4.969   0.603   3.027  0.8355  1.1371 -0.6572
15754TIP3   OH268752   0.716   4.586  12.010 -0.3776  0.4116 -0.1295
15754TIP3    H168753   0.635   4.602  11.963 -0.9759  0.1094  0.7753
15754TIP3    H268754   0.759   4.516  11.962 -1.5776 -0.7657  0.4865
15755TIP3   OH268755   6.057   5.784  11.763  0.3465 -0.2654 -0.2756
15755TIP3    H168756   6.147   5.772  11.731  0.2325 -1.4183 -0.1834
15755TIP3    H268757   6.003   5.785  11.684  0.4003  0.1664 -0.3127
15756TIP3   OH268758   3.247   6.136   1.915  0.0381  0.0200  0.2547
15756TIP3    H168759   3.301   6.216   1.911  0.0233  0.1705  2.2724
15756TIP3    H268760   3.179   6.157   1.979 -0.1905 -1.4704  0.5102
15757TIP3   OH268761   2.303   4.855  14.720 -0.0768 -0.6107  0.0625
15757TIP3    H168762   2.290   4.876  14.628 -0.3019  2.1136  0.6740
15757TIP3    H268763   2.224   4.807  14.746 -0.9810  0.5086 -0.6162
15758TIP3   OH268764   1.550   2.565   5.136 -0.2462 -0.5443  0.1098
15758TIP3    H168765   1.529   2.476   5.163 -1.9059 -1.0678 -2.7155
15758TIP3    H268766   1.465   2.608   5.125  0.4815  0.8396 -0.3132
15759TIP3   OH268767   2.598   1.901  15.648  0.0904 -0.3790 -0.4311
15759TIP3    H168768   2.509   1.934  15.633  0.8362  2.8488  1.7222
15759TIP3    H268769   2.597   1.871  15.739  1.4399  0.5726 -0.0931
15760TIP3   OH268770   5.474   6.504  13.026  0.4628  0.2362  0.1024
15760TIP3    H168771   5.556   6.528  13.068  0.2493  1.0748  0.0497
15760TIP3    H268772   5.417   6.579  13.039 -0.4094 -0.4656  0.4179
15761TIP3   OH268773   6.403   5.109   3.538  0.0821 -0.0990  0.5134
15761TIP3    H168774   6.461   5.116   3.613 -0.6611 -0.1348  1.0895
15761TIP3    H268775   6.410   5.018   3.510 -1.0513 -0.5589  1.6768
15762TIP3   OH268776   2.018   5.158   3.735  0.2404  0.3567  0.2949
15762TIP3    H168777   2.029   5.215   3.659 -1.4836 -1.9802 -1.7998
15762TIP3    H268778   2.106   5.126   3.754  0.5353  0.1597 -1.3569
15763TIP3   OH268779   2.004   6.599  12.213  0.1389  0.1290 -0.1839
15763TIP3    H168780   1.977   6.542  12.285 -1.5011 -0.4000 -1.1753
15763TIP3    H268781   2.098   6.584  12.205 -0.0417 -1.4999  0.4148
15764TIP3   OH268782   2.762   6.707  15.436 -0.4652  0.5328 -0.4116
15764TIP3    H168783   2.855   6.699  15.457 -0.6263  0.3048  0.2211
15764TIP3    H268784   2.761   6.727  15.342  0.3163  3.1834  0.0944
15765TIP3   OH268785   6.564   4.556  15.496 -0.2573 -0.0184 -0.8053
15765TIP3    H168786   6.606   4.631  15.539  0.7910 -1.1552  0.1859
15765TIP3    H268787   6.472   4.562  15.521 -0.0193  0.4593 -0.0256
15766TIP3   OH268788   5.645   4.386   4.404 -0.0148 -0.0760 -0.2111
15766TIP3    H168789   5.552   4.403   4.411  0.2732  1.2844  0.5681
15766TIP3    H268790   5.678   4.455   4.345  0.5315 -0.3993 -0.2912
15767TIP3   OH268791   3.841   0.141   5.601 -0.1985 -0.5366  0.2219
15767TIP3    H168792   3.852   0.074   5.669 -1.3711 -0.3547  0.5972
15767TIP3    H268793   3.840   0.224   5.649 -1.1316 -0.4140 -0.0034
15768TIP3   OH268794   3.047   3.661   6.422 -0.2791  0.0511 -0.0852
15768TIP3    H168795   3.049   3.753   6.448  0.7780  0.3289 -1.1305
15768TIP3    H268796   3.064   3.613   6.503 -0.1440  0.7992  0.3343
15769TIP3   OH268797   1.200   6.335   1.608  0.5314 -0.0150 -0.5942
15769TIP3    H168798   1.111   6.365   1.591  0.1601  1.3226  3.3486
15769TIP3    H268799   1.255   6.408   1.580  0.3411 -0.1644 -1.4017
15770TIP3   OH268800   4.096   3.050  13.475  0.2866 -0.3870 -0.2882
15770TIP3    H168801   4.044   3.050  13.555  0.1602 -0.6430 -0.3673
15770TIP3    H268802   4.040   3.005  13.411  1.1742 -1.9300 -0.0005
15771TIP3   OH268803   6.702   2.498   1.798 -0.1906  0.3965 -0.0041
15771TIP3    H168804   6.607   2.498   1.808 -0.1684  3.3347  0.7365
15771TIP3    H268805   6.734   2.438   1.865 -1.4757 -0.3307 -0.0274
15772TIP3   OH268806   6.006   4.209   0.080 -0.4107  0.0529 -0.3613
15772TIP3    H168807   6.065   4.265   0.131 -0.5773 -2.9118  3.3479
15772TIP3    H268808   6.060   4.133   0.056 -1.8397 -1.2354  0.3959
15773TIP3   OH268809   2.112   6.189  12.041 -1.1104  0.3731  0.4903
15773TIP3    H168810   2.107   6.100  12.077 -0.4249 -0.4689 -1.4378
15773TIP3    H268811   2.066   6.184  11.958  1.3236  1.1002 -0.9608
15774TIP3   OH268812   3.453   4.547  17.285 -0.5081 -0.2126  0.0024
15774TIP3    H168813   3.468   4.514  17.374  1.0341  1.1608  0.2571
15774TIP3    H268814   3.366   4.587  17.289 -0.8007 -0.8988  0.6638
15775TIP3   OH268815   5.869   0.181   0.909 -0.2772 -0.1633 -0.0677
15775TIP3    H168816   5.875   0.105   0.966  0.1621 -0.3673 -0.3831
15775TIP3    H268817   5.945   0.234   0.930 -0.6391  0.2443  0.2253
15776TIP3   OH268818   6.162   6.380   1.204 -0.3811  0.1724  0.7171
15776TIP3    H168819   6.104   6.331   1.263 -0.1837 -0.3036  0.5210
15776TIP3    H268820   6.108   6.402   1.129  0.5687 -3.3601 -1.1249
15777TIP3   OH268821   0.328   1.098  10.848  0.1284  0.3132  0.3242
15777TIP3    H168822   0.318   1.016  10.897  1.7052 -0.4081 -0.5030
15777TIP3    H268823   0.288   1.080  10.764  2.6150 -0.4949 -0.7558
15778TIP3   OH268824   6.703   3.787  13.096  0.2026  0.6592 -0.3205
15778TIP3    H168825   6.726   3.695  13.113  1.0163  0.8629 -0.2935
15778TIP3    H268826   6.679   3.822  13.182  0.1250  0.5419 -0.2929
15779TIP3   OH268827   1.141   0.790   5.356  0.2323  0.1403  0.2008
15779TIP3    H168828   1.212   0.790   5.292 -0.2618 -0.5800 -0.3638
15779TIP3    H268829   1.062   0.778   5.304 -0.1980 -0.2163  0.9267
15780TIP3   OH268830   3.137   2.522  14.269 -0.0771 -0.4200 -0.2824
15780TIP3    H168831   3.208   2.501  14.330  1.3116 -0.7914 -2.0000
15780TIP3    H268832   3.078   2.447  14.274 -0.0240 -0.4062  0.6676
15781TIP3   OH268833   1.124   6.210  12.956 -0.7265  0.5655 -0.1936
15781TIP3    H168834   1.066   6.136  12.943 -1.6207  0.9409  1.5048
15781TIP3    H268835   1.156   6.232  12.868 -1.3302 -1.0973 -0.8406
15782TIP3   OH268836   4.273   3.888  17.067 -0.0678  0.7026 -0.3663
15782TIP3    H168837   4.243   3.834  17.140  0.5651  2.3554  1.1529
15782TIP3    H268838   4.357   3.850  17.042  0.1452  0.6885  0.3697
15783TIP3   OH268839   1.049   2.674  16.008 -0.0584 -0.3067 -0.2310
15783TIP3    H168840   1.039   2.742  16.074 -0.7093 -0.2397 -0.3914
15783TIP3    H268841   1.012   2.595  16.048  1.4494 -0.7683  0.2575
15784TIP3   OH268842   4.443   0.325  12.022 -0.8720 -0.5244 -0.8052
15784TIP3    H168843   4.351   0.324  11.993 -1.2822  0.1399  0.4747
15784TIP3    H268844   4.463   0.417  12.037  0.2893 -0.5711 -1.8945
15785TIP3   OH268845   6.448   0.310   0.259  0.3879  0.3856 -0.1530
15785TIP3    H168846   6.480   0.264   0.181  0.9742  0.9169 -0.2266
15785TIP3    H268847   6.418   0.395   0.226  2.4514  1.3901  0.4779
15786TIP3   OH268848   5.496   5.489   3.755 -0.0683  0.3166  0.3677
15786TIP3    H168849   5.524   5.412   3.705  0.2764 -0.1924  1.3312
15786TIP3    H268850   5.510   5.562   3.695  0.6527 -0.2484 -0.1728
15787TIP3   OH268851   2.638   0.757  17.020  0.4692  0.2670 -0.4521
15787TIP3    H168852   2.636   0.826  17.086 -2.6689 -0.4051  0.2674
15787TIP3    H268853   2.590   0.794  16.945  0.1846 -0.5146 -0.6694
15788TIP3   OH268854   4.849   1.409  15.271 -0.0119  0.3083 -0.4739
15788TIP3    H168855   4.753   1.408  15.272 -0.0255 -1.9278  1.2006
15788TIP3    H268856   4.873   1.400  15.179 -1.4356  0.0872 -0.8303
15789TIP3   OH268857   3.618   0.512   4.205 -0.0326  0.3207  0.1365
15789TIP3    H168858   3.543   0.463   4.238 -0.1091  0.9194  0.8608
15789TIP3    H268859   3.593   0.604   4.211  0.1090  0.4617 -1.2336
15790TIP3   OH268860   3.406   1.923  16.968 -0.5317  0.2241 -0.6171
15790TIP3    H168861   3.456   1.889  16.893 -1.3207 -0.0566 -1.0166
15790TIP3    H268862   3.432   2.015  16.974  1.7067 -0.4278  0.5347
15791TIP3   OH268863   2.198   0.125  14.679  0.0573 -0.4571 -0.0379
15791TIP3    H168864   2.150   0.058  14.631  0.8144  0.4282 -2.1022
15791TIP3    H268865   2.274   0.079  14.715 -0.1632 -0.9971 -0.2549
15792TIP3   OH268866   3.940   6.336  11.671 -0.1264 -0.3360  0.4051
15792TIP3    H168867   3.927   6.369  11.582 -0.2501  0.0034  0.5487
15792TIP3    H268868   3.851   6.323  11.705 -0.1269 -3.2783 -0.5429
15793TIP3   OH268869   6.699   5.665   6.247  0.4118  0.3942 -0.1241
15793TIP3    H168870   6.765   5.597   6.254  1.1725  1.1936  0.7357
15793TIP3    H268871   6.749   5.746   6.237 -0.4180  1.0292  0.7290
15794TIP3   OH268872   0.050   0.559   2.393  0.0466  0.3272 -0.4271
15794TIP3    H168873   0.129   0.536   2.343  0.9854 -0.5610  1.4312
15794TIP3    H268874   0.074   0.638   2.441 -0.1785  0.0139  0.1976
15795TIP3   OH268875   6.051   4.434   5.591 -0.1292 -0.2879 -0.1202
15795TIP3    H168876   5.975   4.450   5.646  1.2833 -0.3764  1.8932
15795TIP3    H268877   6.027   4.471   5.505 -1.4505  1.9615  1.1703
15796TIP3   OH268878   3.299   0.447   0.094  0.1019  0.2697  0.0794
15796TIP3    H168879   3.311   0.363   0.050  1.0981 -0.5595  1.8690
15796TIP3    H268880   3.384   0.490   0.088 -0.1366  0.7350  0.0039
15797TIP3   OH268881   4.911   2.412  16.295  0.3665  0.1796  0.0740
15797TIP3    H168882   4.938   2.324  16.267 -0.2419 -0.0769  0.2684
15797TIP3    H268883   4.861   2.396  16.376  0.6493  0.7492  0.3636
15798TIP3   OH268884   6.817   4.985   3.249  0.1564  0.0273 -0.2337
15798TIP3    H168885   6.775   4.908   3.212  0.6816 -0.3352 -0.0785
15798TIP3    H268886   6.749   5.053   3.246 -0.1588 -0.3093 -0.7948
15799TIP3   OH268887   5.223   1.797  11.882  0.1714 -0.2065 -0.1484
15799TIP3    H168888   5.221   1.839  11.968  1.7097 -0.3676 -0.0195
15799TIP3    H268889   5.259   1.709  11.899  0.9417 -0.0717 -1.0040
15800TIP3   OH268890   2.720   5.846  15.049  0.4539  0.7588 -0.4442
15800TIP3    H168891   2.678   5.885  14.972 -2.5889 -1.2329  0.1127
15800TIP3    H268892   2.782   5.782  15.013  0.4151  1.1781 -1.2621
15801TIP3   OH268893   1.244   4.697  15.075  0.2630  0.2508 -0.2065
15801TIP3    H168894   1.208   4.767  15.129  1.7931 -0.4293  1.7595
15801TIP3    H268895   1.167   4.649  15.043 -0.7710  2.4991 -1.1705
15802TIP3   OH268896   6.207   2.229   0.826  0.5405 -0.5112 -0.3628
15802TIP3    H168897   6.249   2.309   0.858 -1.4929  0.8421 -0.9531
15802TIP3    H268898   6.261   2.158   0.860  1.0869  1.0362  2.1428
15803TIP3   OH268899   1.110   4.053  12.412 -0.4836  0.1016  0.3161
15803TIP3    H168900   1.201   4.037  12.437 -0.9087 -2.0001  0.6082
15803TIP3    H268901   1.102   4.149  12.410  1.6049  0.3062  0.7072
15804TIP3   OH268902   3.092   4.812  16.242  0.2197  0.0710 -0.0368
15804TIP3    H168903   3.185   4.819  16.224  0.1111  1.9742  0.0038
15804TIP3    H268904   3.058   4.754  16.174  1.5256 -1.1374  0.3272
15805TIP3   OH268905   0.500   2.087   5.255 -0.7822  0.6413 -0.5239
15805TIP3    H168906   0.497   2.042   5.339  0.0693 -0.1052 -0.8776
15805TIP3    H268907   0.482   2.179   5.276 -0.1401  0.5339  0.5251
15806TIP3   OH268908   1.450   0.458  16.002 -0.2774  0.5144  0.3383
15806TIP3    H168909   1.382   0.407  15.957  1.3652  0.3608 -2.0412
15806TIP3    H268910   1.527   0.401  16.003  0.4294  1.4630  1.1788
15807TIP3   OH268911   1.976   0.313   2.325  0.2030 -0.1583 -0.1198
15807TIP3    H168912   2.007   0.391   2.373 -0.1925 -0.9570  1.4637
15807TIP3    H268913   1.929   0.349   2.250 -1.0950  1.1657  1.2948
15808TIP3   OH268914   0.437   6.608  16.769  0.0007  0.1664 -0.3312
15808TIP3    H168915   0.421   6.674  16.836 -2.1984  0.1589 -0.8231
15808TIP3    H268916   0.515   6.639  16.723  0.6778  0.9144  1.2693
15809TIP3   OH268917   4.748   2.301   4.359  0.3907 -0.4037 -0.0470
15809TIP3    H168918   4.793   2.236   4.412  0.5757  0.9739  1.5245
15809TIP3    H268919   4.747   2.380   4.413 -0.9576  0.5391 -1.4002
15810TIP3   OH268920   6.075   4.064   5.930 -0.5684  0.3471  0.1507
15810TIP3    H168921   6.077   3.974   5.899 -1.4106 -0.2703  1.8254
15810TIP3    H268922   6.019   4.110   5.868  1.2153  0.1078 -1.6724
15811TIP3   OH268923   1.433   5.046   1.304  0.3896 -0.3465  0.4494
15811TIP3    H168924   1.357   5.085   1.260 -0.9084 -1.3456  1.7434
15811TIP3    H268925   1.491   5.120   1.321 -0.6881  0.5726  0.2137
15812TIP3   OH268926   0.392   1.131  13.620 -0.3840 -0.3295  0.7661
15812TIP3    H168927   0.405   1.224  13.604 -0.8583 -0.1120  1.6334
15812TIP3    H268928   0.468   1.089  13.579 -0.5996  0.3617 -0.3663
15813TIP3   OH268929   3.662   3.782   0.863  0.2536  0.1386 -0.3013
15813TIP3    H168930   3.595   3.721   0.833  0.1926 -0.1049  0.3211
15813TIP3    H268931   3.638   3.866   0.823 -2.0195  0.7115  2.1613
15814TIP3   OH268932   0.788   3.590   0.052  0.4186  0.1460 -0.8565
15814TIP3    H168933   0.710   3.545   0.020 -0.1040  1.6004 -1.6649
15814TIP3    H268934   0.857   3.523   0.049 -0.9341 -1.3294  0.5433
15815TIP3   OH268935   0.457   0.911   1.881 -0.1969  0.0590 -0.2449
15815TIP3    H168936   0.531   0.952   1.926 -0.9483  1.1968 -0.0377
15815TIP3    H268937   0.489   0.824   1.857  1.9602  1.3515 -2.1943
15816TIP3   OH268938   4.502   4.476   6.194 -0.2518  0.4264 -0.2571
15816TIP3    H168939   4.576   4.446   6.142  0.8592 -1.6238  2.4105
15816TIP3    H268940   4.465   4.397   6.232 -0.7986  1.8580  2.3384
15817TIP3   OH268941   0.819   6.692   2.885  0.1985  0.1559  0.1484
15817TIP3    H168942   0.728   6.692   2.913  0.2421  0.9889  0.3223
15817TIP3    H268943   0.845   6.784   2.890  0.3309  0.2650 -2.2463
15818TIP3   OH268944   6.234   3.195  11.645 -0.4535 -0.2501  0.3337
15818TIP3    H168945   6.307   3.152  11.689 -1.3758  0.8177  3.0513
15818TIP3    H268946   6.273   3.274  11.607  0.2377 -0.8523 -0.2345
15819TIP3   OH268947   5.979   2.927  15.835 -0.2420 -0.2481  0.3233
15819TIP3    H168948   5.976   2.843  15.790 -1.1885 -0.1974  0.2905
15819TIP3    H268949   5.888   2.955  15.841  0.1887  1.6645 -1.3182
15820TIP3   OH268950   0.774   4.877   2.417 -0.0064 -0.2181  0.3155
15820TIP3    H168951   0.723   4.796   2.414 -0.2361 -0.0534 -0.4715
15820TIP3    H268952   0.709   4.947   2.428 -0.1395  0.1344 -2.3178
15821TIP3   OH268953   4.241   3.769  16.487  0.2782 -0.1920  0.1694
15821TIP3    H168954   4.328   3.807  16.478 -0.2285  0.6536 -1.3184
15821TIP3    H268955   4.230   3.714  16.410 -0.1058 -1.1136  0.8768
15822TIP3   OH268956   4.146   1.546  16.300  0.3651  0.1490 -0.7413
15822TIP3    H168957   4.241   1.559  16.301  0.3852  0.2172  1.8171
15822TIP3    H268958   4.110   1.635  16.291  0.5640  0.4226  0.9411
15823TIP3   OH268959   6.481   0.062  15.882 -0.1535  0.6476  0.0307
15823TIP3    H168960   6.425   0.066  15.804  0.0125 -0.4327 -0.1584
15823TIP3    H268961   6.558   0.013  15.853  1.0457  2.4185  0.2075
15824TIP3   OH268962   1.466   0.972  16.402  0.4156 -0.0977 -0.2283
15824TIP3    H168963   1.481   0.913  16.475 -0.2455  3.2025  2.7073
15824TIP3    H268964   1.548   1.019  16.391  1.0365 -1.6859 -2.7335
15825TIP3   OH268965   1.763   0.277  15.791 -0.6220  0.5506  0.7666
15825TIP3    H168966   1.851   0.239  15.800 -0.1441  1.2719 -0.5758
15825TIP3    H268967   1.748   0.322  15.874 -0.6331 -1.3790  1.8490
15826TIP3   OH268968   0.462   5.919  17.164  0.1609  0.1587  0.8376
15826TIP3    H168969   0.448   6.006  17.201  0.3156  0.4912  0.1154
15826TIP3    H268970   0.413   5.920  17.082  0.7355 -0.2034  0.4931
15827TIP3   OH268971   1.606   2.022   1.894  0.2477 -0.3522 -0.4477
15827TIP3    H168972   1.534   1.961   1.913  0.3091 -0.5624 -0.8796
15827TIP3    H268973   1.659   2.021   1.973  0.9018 -1.7761 -0.8860
15828TIP3   OH268974   4.699   5.233  15.324 -0.5654  0.1940  0.0776
15828TIP3    H168975   4.655   5.317  15.337 -2.0217 -0.5246 -0.1570
15828TIP3    H268976   4.715   5.229  15.230 -2.5880 -0.8158 -0.2359
15829TIP3   OH268977   6.506   0.435  15.254 -0.5113  0.0372  0.1288
15829TIP3    H168978   6.430   0.409  15.202 -1.4109  0.4446  1.2300
15829TIP3    H268979   6.488   0.526  15.279  1.0120  0.6173 -0.8143
15830TIP3   OH268980   2.635   4.133  12.539  0.3457  0.4554 -0.0396
15830TIP3    H168981   2.659   4.131  12.631  0.0588 -2.3644  0.0160
15830TIP3    H268982   2.719   4.136  12.492  0.5149  0.6962  0.2763
15831TIP3   OH268983   0.574   3.312  13.867 -0.1653 -0.0746  0.6579
15831TIP3    H168984   0.489   3.355  13.875  0.9412  2.8064 -1.9713
15831TIP3    H268985   0.557   3.234  13.814 -1.0002  1.1682 -0.9450
15832TIP3   OH268986   2.487   1.757   0.591 -0.4358  0.7852 -0.0531
15832TIP3    H168987   2.574   1.717   0.596 -1.2463 -0.9208  0.5409
15832TIP3    H268988   2.472   1.769   0.498 -0.7739 -1.6433 -0.3400
15833TIP3   OH268989   4.017   6.693   1.703 -0.2540 -0.7657  0.4247
15833TIP3    H168990   3.955   6.721   1.636 -0.0580 -0.8100  0.2230
15833TIP3    H268991   4.004   6.754   1.776  3.2603  2.7817 -1.6751
15834TIP3   OH268992   0.539   2.452  16.926 -0.0822  0.4114 -0.1477
15834TIP3    H168993   0.530   2.542  16.895  1.3273  0.5837 -0.0635
15834TIP3    H268994   0.545   2.460  17.021 -1.9928  0.0602  0.0236
15835TIP3   OH268995   1.594   5.155   6.302  0.4333 -0.1885 -0.0587
15835TIP3    H168996   1.623   5.222   6.364  0.7929 -1.0213  0.6797
15835TIP3    H268997   1.559   5.205   6.228 -1.6234  0.8632  1.5339
15836TIP3   OH268998   3.994   0.057   0.768 -0.2683 -0.8950  0.0737
15836TIP3    H168999   4.037  -0.028   0.759  0.1187 -0.9278  1.8938
15836TIP3    H269000   3.902   0.035   0.781 -0.5087 -0.9249 -1.5649
15837TIP3   OH269001   3.706   4.957  12.173  0.0611  0.0463  0.1802
15837TIP3    H169002   3.722   4.870  12.210  0.3017 -1.2548 -2.7854
15837TIP3    H269003   3.793   4.992  12.155 -0.0594  0.3763  0.2398
15838TIP3   OH269004   2.281   1.601   2.680 -0.0513 -0.3887  0.7138
15838TIP3    H169005   2.338   1.662   2.633 -0.1628 -0.0793  0.9849
15838TIP3    H269006   2.324   1.516   2.669  0.8586 -0.0473  1.5556
15839TIP3   OH269007   3.506   1.166   2.725  0.0389 -0.5163 -0.4595
15839TIP3    H169008   3.431   1.225   2.725 -1.2858 -2.1852 -0.4268
15839TIP3    H269009   3.500   1.119   2.642  1.9934  0.4913 -1.2092
15840TIP3   OH269010   4.075   6.378  11.943 -0.0078  0.1119  0.5400
15840TIP3    H169011   4.154   6.328  11.964  1.2184  1.5592 -0.5253
15840TIP3    H269012   4.052   6.351  11.854 -0.0976  0.4663  0.4521
15841TIP3   OH269013   2.992   1.767   4.363 -0.1628  0.2384  0.1705
15841TIP3    H169014   2.977   1.836   4.427 -0.3239  0.5713 -0.2191
15841TIP3    H269015   2.992   1.686   4.414 -2.9207  0.2443  0.2582
15842TIP3   OH269016   5.429   6.530  17.176 -0.1991  0.0068 -0.2819
15842TIP3    H169017   5.344   6.547  17.216 -0.5742 -1.2751 -0.5112
15842TIP3    H269018   5.414   6.539  17.082  0.5729  2.5394 -0.1983
15843TIP3   OH269019   2.967   5.879  13.667 -0.2936  0.0908 -0.6158
15843TIP3    H169020   2.992   5.964  13.703 -0.9178  0.5665 -1.2897
15843TIP3    H269021   3.029   5.864  13.596 -0.7997  0.4474 -1.1386
15844TIP3   OH269022   5.352   2.917   4.852 -0.1429  0.4581 -0.3722
15844TIP3    H169023   5.371   2.987   4.790 -0.5032  0.0576 -0.9343
15844TIP3    H269024   5.416   2.929   4.922  0.6507  0.5534 -1.1042
15845TIP3   OH269025   4.628   3.839  17.221 -0.0257  0.2296  0.1139
15845TIP3    H169026   4.582   3.800  17.146 -2.1513  1.3736  0.7680
15845TIP3    H269027   4.668   3.918  17.185  0.1895  0.0022 -0.1472
15846TIP3   OH269028   4.228   2.705   4.095 -0.1349  0.2174  0.2459
15846TIP3    H169029   4.245   2.728   4.004 -1.5706  1.6249  0.3081
15846TIP3    H269030   4.314   2.685   4.131  0.6413  1.1624 -1.0237
15847TIP3   OH269031   1.842   0.416  16.495 -0.4119 -0.3884  0.3008
15847TIP3    H169032   1.845   0.511  16.486  0.2811 -0.3356  0.9641
15847TIP3    H269033   1.771   0.400  16.557 -0.2802 -0.2696  0.4842
15848TIP3   OH269034   3.714   2.556  11.570  0.5067  0.4453  0.7172
15848TIP3    H169035   3.671   2.477  11.602  1.1496  0.0872  0.7154
15848TIP3    H269036   3.804   2.548  11.601  1.6063 -0.7167 -2.4930
15849TIP3   OH269037   2.647   1.715  15.459  0.1355 -0.2895  0.2793
15849TIP3    H169038   2.624   1.790  15.514 -0.8217  0.2206 -0.7773
15849TIP3    H269039   2.741   1.703  15.472  0.2579  0.9845  0.6094
15850TIP3   OH269040   6.785   0.546   5.018 -0.6998  0.4797  0.1674
15850TIP3    H169041   6.726   0.479   4.984  0.2490  0.1851 -0.9391
15850TIP3    H269042   6.861   0.542   4.960  1.3041 -0.5364  2.7627
15851TIP3   OH269043   3.766   4.853  11.687  0.5141 -0.1805  0.3550
15851TIP3    H169044   3.746   4.763  11.662 -0.0909 -0.2575  1.1076
15851TIP3    H269045   3.791   4.896  11.605 -2.0758 -0.2533 -0.5103
15852TIP3   OH269046   2.090   1.157   3.902 -0.2390 -0.1218 -0.1087
15852TIP3    H169047   2.025   1.225   3.920 -0.1969  0.0605 -0.6503
15852TIP3    H269048   2.152   1.199   3.842 -0.0497 -0.5425 -0.2057
15853TIP3   OH269049   0.786   5.467  11.872  0.0587  0.0855 -0.1144
15853TIP3    H169050   0.777   5.406  11.946  2.6461 -0.3655 -0.1405
15853TIP3    H269051   0.809   5.551  11.913  1.1154 -0.0769 -0.3570
15854TIP3   OH269052   6.496   0.903  12.207  0.1095 -0.2658 -0.2414
15854TIP3    H169053   6.458   0.917  12.121  0.9503 -0.5550 -0.6669
15854TIP3    H269054   6.421   0.896  12.266 -0.4557  0.1515 -0.9178
15855TIP3   OH269055   4.742   5.449  10.701  0.3565  0.0398  0.0584
15855TIP3    H169056   4.726   5.446  10.795 -0.5932 -0.5213 -0.1124
15855TIP3    H269057   4.808   5.381  10.685 -1.3134 -1.6060 -0.0205
15856TIP3   OH269058   6.747   4.814  14.414  0.1059  0.1081 -0.2502
15856TIP3    H169059   6.677   4.844  14.355 -0.5000 -0.2301  0.2950
15856TIP3    H269060   6.777   4.732  14.375 -0.1433 -0.0028 -0.2113
15857TIP3   OH269061   2.133   1.954   1.584  0.2986 -0.1377  0.4976
15857TIP3    H169062   2.075   2.027   1.561  1.7078  1.1985  1.1500
15857TIP3    H269063   2.109   1.933   1.675  1.2635  0.8232  0.9749
15858TIP3   OH269064   2.207   4.765   2.762 -0.4345 -0.3288 -0.9800
15858TIP3    H169065   2.144   4.712   2.810  0.6928 -0.3729  0.5109
15858TIP3    H269066   2.174   4.854   2.769 -0.1354 -0.2995  0.1458
15859TIP3   OH269067   4.350   4.249   2.370  0.6875 -0.2355 -0.7131
15859TIP3    H169068   4.396   4.230   2.452  1.5170 -2.6077 -1.6557
15859TIP3    H269069   4.420   4.268   2.307  0.1103  0.7443 -1.0630
15860TIP3   OH269070   0.820   5.846   4.634 -0.6689 -0.7947  0.0837
15860TIP3    H169071   0.743   5.895   4.607 -2.1485 -1.3355  3.0597
15860TIP3    H269072   0.818   5.766   4.580 -0.8533  0.2484 -1.4840
15861TIP3   OH269073   0.554   5.867  11.429 -0.4220 -0.3354 -0.1940
15861TIP3    H169074   0.539   5.922  11.506  0.0536  0.6874 -0.8304
15861TIP3    H269075   0.638   5.897  11.394 -0.4562 -1.0557 -0.9021
15862TIP3   OH269076   0.221   2.900  12.598 -0.0131  0.0610 -0.2465
15862TIP3    H169077   0.180   2.820  12.630  1.9025 -0.9146 -0.1149
15862TIP3    H269078   0.148   2.956  12.570 -1.5149 -0.6054  2.2220
15863TIP3   OH269079   4.778   4.712  11.183 -0.1626  0.0478  0.0885
15863TIP3    H169080   4.838   4.769  11.137 -1.4204  0.8381 -0.5914
15863TIP3    H269081   4.729   4.667  11.114  1.7382 -2.8876  0.5830
15864TIP3   OH269082   3.534   2.330  12.807  0.0549  0.2090 -0.5401
15864TIP3    H169083   3.492   2.399  12.755 -0.6087 -1.0737 -1.7721
15864TIP3    H269084   3.468   2.306  12.872 -1.5026 -2.3018 -2.9286
15865TIP3   OH269085   0.767   2.388  12.647 -0.1844  0.2244  0.0858
15865TIP3    H169086   0.726   2.456  12.594 -0.2781  0.5848  0.6142
15865TIP3    H269087   0.725   2.306  12.619 -0.2455  0.4170 -0.3749
15866TIP3   OH269088   4.959   3.675  10.766 -0.2035 -0.3046  0.1804
15866TIP3    H169089   5.025   3.608  10.745  1.7593  1.6620 -0.1968
15866TIP3    H269090   4.890   3.661  10.701  0.2664 -1.8285 -0.0320
15867TIP3   OH269091   0.824   4.623  15.415  0.3334  0.8285 -0.0102
15867TIP3    H169092   0.878   4.594  15.342  0.6424  0.6008  0.3077
15867TIP3    H269093   0.752   4.559  15.418  1.3496 -0.2907  1.0852
15868TIP3   OH269094   2.285   5.848  15.888 -0.1404 -0.3552 -0.4520
15868TIP3    H169095   2.343   5.871  15.816  1.7951  0.9388  1.4579
15868TIP3    H269096   2.344   5.825  15.960 -2.0102 -3.2019  0.2661
15869TIP3   OH269097   0.691   0.671  15.722 -0.0229 -0.7749  0.0335
15869TIP3    H169098   0.697   0.576  15.721  1.5489 -0.6871 -1.1544
15869TIP3    H269099   0.782   0.701  15.725 -0.4383  0.6750 -0.9948
15870TIP3   OH269100   4.701   4.950   3.797 -0.2723  0.1527 -0.1649
15870TIP3    H169101   4.651   4.993   3.866  1.2289  1.1566  0.3196
15870TIP3    H269102   4.645   4.957   3.719 -0.3034  2.5086  0.0358
15871TIP3   OH269103   0.445   0.827   4.611 -0.1633  0.3943  0.4434
15871TIP3    H169104   0.399   0.799   4.689  0.6363  0.6733  1.0171
15871TIP3    H269105   0.455   0.922   4.622  1.9448  0.1274  1.0822
15872TIP3   OH269106   4.514   5.271  11.305 -0.3225 -0.3224 -0.2021
15872TIP3    H169107   4.608   5.260  11.321 -0.7535  0.1563  3.1136
15872TIP3    H269108   4.497   5.222  11.225  2.6684 -0.8770 -0.5468
15873TIP3   OH269109   0.275   6.540   3.537 -0.7543  0.6450  0.1107
15873TIP3    H169110   0.226   6.621   3.554  0.5506  1.1902  1.4041
15873TIP3    H269111   0.237   6.476   3.597 -2.5090 -0.0139 -1.6682
15874TIP3   OH269112   3.659   2.478   3.797 -0.3240  0.1596 -0.1398
15874TIP3    H169113   3.740   2.471   3.849  0.8301 -0.8506 -2.0054
15874TIP3    H269114   3.614   2.394   3.811 -0.4499  0.2418 -0.0548
15875TIP3   OH269115   6.058   5.970   3.398  0.2368 -0.0796  0.3238
15875TIP3    H169116   6.152   5.986   3.404  0.1656  0.4626 -0.0386
15875TIP3    H269117   6.047   5.921   3.317  0.1885 -0.0111  0.2891
15876TIP3   OH269118   0.588   3.148   2.193 -0.0111 -0.2886  0.2223
15876TIP3    H169119   0.667   3.193   2.225  1.6440 -0.9674 -2.7008
15876TIP3    H269120   0.549   3.109   2.271  3.5272 -1.4317  1.5039
15877TIP3   OH269121   5.900   3.364  15.782 -0.3576 -1.1871  0.1173
15877TIP3    H169122   5.986   3.377  15.742 -0.3179 -1.0233  0.2591
15877TIP3    H269123   5.842   3.346  15.707 -0.3743 -0.3998 -0.0627
15878TIP3   OH269124   6.637   5.251   1.085  0.2915  0.2496 -0.2662
15878TIP3    H169125   6.710   5.194   1.061  0.5339 -0.3010  1.6669
15878TIP3    H269126   6.670   5.340   1.071  2.4500  0.1360  3.3640
15879TIP3   OH269127   5.053   4.745   4.929  0.0107 -0.3355  0.0640
15879TIP3    H169128   5.079   4.664   4.973  0.8353  0.8841  1.8933
15879TIP3    H269129   4.994   4.788   4.990  0.4826  0.9921 -0.3893
15880TIP3   OH269130   4.356   0.359  15.516  0.6483  0.3832 -0.2103
15880TIP3    H169131   4.375   0.265  15.520  1.2383  0.5155  0.2107
15880TIP3    H269132   4.271   0.364  15.473  0.4056 -0.3673  0.1685
15881TIP3   OH269133   4.942   3.817   4.158  0.0955  0.0879  0.4667
15881TIP3    H169134   5.017   3.765   4.131  1.4132  1.9269  0.4673
15881TIP3    H269135   4.875   3.800   4.091  1.1032 -0.3076 -0.4593
15882TIP3   OH269136   4.945   1.039   5.458  0.2408  0.0742 -0.0364
15882TIP3    H169137   5.037   1.036   5.434  0.8331 -0.0191  2.1589
15882TIP3    H269138   4.928   1.131   5.477  0.3304 -0.1672  1.2291
15883TIP3   OH269139   2.756   2.874   2.529  0.3198 -0.3131  0.1820
15883TIP3    H169140   2.848   2.855   2.544 -0.0969 -3.2771 -0.7696
15883TIP3    H269141   2.709   2.803   2.574 -1.3586 -0.8070 -2.2765
15884TIP3   OH269142   3.262   0.133   1.609  0.3600 -0.1727 -0.1709
15884TIP3    H169143   3.276   0.092   1.523 -0.3691  0.1824 -0.4624
15884TIP3    H269144   3.173   0.167   1.605  0.6595  0.6862  0.3849
15885TIP3   OH269145   0.159   1.307  12.291 -0.6382  0.5852 -0.4340
15885TIP3    H169146   0.107   1.349  12.222 -0.5320 -1.9318 -2.1454
15885TIP3    H269147   0.227   1.371  12.313 -0.6913  1.4610 -2.6695
15886TIP3   OH269148   1.883   1.381  15.008  0.2973 -0.0234 -0.1129
15886TIP3    H169149   1.929   1.419  15.083  0.6733  0.3251 -0.5192
15886TIP3    H269150   1.849   1.298  15.041 -0.4061  0.5818  0.7397
15887TIP3   OH269151   4.691   4.624  16.869 -0.4649  0.2933 -0.1032
15887TIP3    H169152   4.613   4.666  16.833 -2.1380 -2.1328  0.5181
15887TIP3    H269153   4.698   4.657  16.958 -1.1525  0.0461  0.0404
15888TIP3   OH269154   4.989   2.052  14.689 -0.0888 -0.2353  0.2387
15888TIP3    H169155   5.017   2.139  14.717 -1.1987  0.8236 -1.8147
15888TIP3    H269156   4.951   2.012  14.767 -0.1586  1.3836  1.0355
15889TIP3   OH269157   5.901   6.150  16.638 -1.1302 -0.2961 -0.7415
15889TIP3    H169158   5.921   6.150  16.731  0.7469 -0.2833 -1.1148
15889TIP3    H269159   5.889   6.242  16.616 -2.2639 -0.3547 -0.3764
15890TIP3   OH269160   1.868   2.124  11.225 -0.2559  0.5685  0.7904
15890TIP3    H169161   1.846   2.103  11.134 -1.0821  0.7060  0.9591
15890TIP3    H269162   1.931   2.196  11.218 -1.1694  1.3430  0.3446
15891TIP3   OH269163   2.595   3.214  15.874 -0.2769 -0.5048 -0.2954
15891TIP3    H169164   2.587   3.274  15.801 -1.3897 -1.4547 -0.9754
15891TIP3    H269165   2.588   3.127  15.834 -0.1932 -1.0455  0.8499
15892TIP3   OH269166   0.892   6.412   0.762  0.0473  0.2020 -0.3990
15892TIP3    H169167   0.972   6.360   0.749  0.8755  1.3498 -0.0163
15892TIP3    H269168   0.923   6.503   0.764 -1.1076  0.5766  1.0517
15893TIP3   OH269169   4.716   2.890   1.534  0.1092  0.1816 -0.2280
15893TIP3    H169170   4.639   2.840   1.559 -0.2223  0.6977 -0.2096
15893TIP3    H269171   4.710   2.971   1.584 -0.8934  1.4896 -2.3969
15894TIP3   OH269172   4.208   1.529   5.709 -0.8244 -0.5484 -0.0559
15894TIP3    H169173   4.244   1.607   5.751  0.6702 -1.0042 -0.4676
15894TIP3    H269174   4.210   1.462   5.777 -0.6635 -0.6391 -0.1502
15895TIP3   OH269175   6.758   1.541   4.581  0.2798  0.1526 -0.1461
15895TIP3    H169176   6.854   1.536   4.579  0.2393 -1.3297  0.7163
15895TIP3    H269177   6.730   1.480   4.513 -0.0606 -0.8089  0.8346
15896TIP3   OH269178   1.907   0.760  15.819 -0.4276 -0.2200 -0.0287
15896TIP3    H169179   1.957   0.717  15.749  1.0001 -0.5499  1.1909
15896TIP3    H269180   1.938   0.850  15.820 -0.8249 -0.0789 -0.1604
15897TIP3   OH269181   0.530   1.323   3.588  0.2817 -0.0881 -0.0517
15897TIP3    H169182   0.440   1.317   3.556  0.0141  1.5168  0.3447
15897TIP3    H269183   0.540   1.247   3.646 -1.7338  1.2014  2.0877
15898TIP3   OH269184   0.984   5.656   3.216  0.3993  0.5496  0.2852
15898TIP3    H169185   1.062   5.602   3.203  0.6166  0.8083  0.5054
15898TIP3    H269186   0.947   5.627   3.299 -1.0141 -1.1359 -0.8966
15899TIP3   OH269187   4.506   4.500   2.932 -0.3149  0.1475  0.7269
15899TIP3    H169188   4.529   4.568   2.995  1.0270 -0.3073  0.7566
15899TIP3    H269189   4.579   4.499   2.869 -0.2140 -1.3788  0.8349
15900TIP3   OH269190   6.673   1.535  15.666  0.0520 -0.2514  0.1895
15900TIP3    H169191   6.660   1.602  15.599  0.6506 -1.4019 -1.0961
15900TIP3    H269192   6.590   1.531  15.713  0.6435  2.8398  1.6503
15901TIP3   OH269193   1.942   4.384  13.603 -0.0169  0.5073 -0.3916
15901TIP3    H169194   2.030   4.356  13.581 -0.3294 -0.0675 -0.9354
15901TIP3    H269195   1.888   4.356  13.528 -0.9429 -0.7207  0.7011
15902TIP3   OH269196   0.147   5.873  14.138  0.4898 -0.2461 -0.0864
15902TIP3    H169197   0.109   5.785  14.133  4.0554 -1.8658 -0.2363
15902TIP3    H269198   0.124   5.915  14.056  0.1923 -1.6900 -0.7501
15903TIP3   OH269199   0.852   5.588  16.315 -0.2037  0.1150 -0.6259
15903TIP3    H169200   0.826   5.575  16.406  0.8560 -0.4295 -0.3969
15903TIP3    H269201   0.906   5.667  16.316  0.8112 -0.5705 -0.5818
15904TIP3   OH269202   2.811   1.029  10.730  0.3137  0.5070  0.0449
15904TIP3    H169203   2.890   1.070  10.694  0.8081 -0.3699  0.1139
15904TIP3    H269204   2.841   0.946  10.765 -0.8291 -0.3396 -0.9341
15905TIP3   OH269205   5.031   6.515  10.986 -0.3879 -0.8258 -0.6050
15905TIP3    H169206   4.967   6.449  11.011 -1.3257  0.4536  0.4550
15905TIP3    H269207   5.028   6.517  10.891 -1.5828 -1.1080 -0.5792
15906TIP3   OH269208   1.532   4.312   5.995  0.9735  0.0193  0.0865
15906TIP3    H169209   1.582   4.372   5.939  0.7645 -0.8225 -1.0216
15906TIP3    H269210   1.522   4.360   6.077  2.8972  0.5469  0.0597
15907TIP3   OH269211   4.290   2.797   5.521 -0.0196  0.7076 -0.2859
15907TIP3    H169212   4.254   2.813   5.608  0.7154  0.0016  0.1660
15907TIP3    H269213   4.384   2.786   5.537  0.2310  1.4502 -1.2889
15908TIP3   OH269214   1.018   3.670   6.781  0.3373  0.1654  0.2896
15908TIP3    H169215   1.041   3.642   6.692  1.4465  1.3593  0.1826
15908TIP3    H269216   1.036   3.764   6.782 -0.9093  0.4046  1.3935
15909TIP3   OH269217   3.314   0.232   0.814  0.2243 -0.3946 -0.2716
15909TIP3    H169218   3.279   0.321   0.819 -1.3566 -1.0597  1.0123
15909TIP3    H269219   3.326   0.216   0.721  0.4845  1.1456 -0.5165
15910TIP3   OH269220   4.218   2.443   5.700  0.1478 -0.0674  0.2950
15910TIP3    H169221   4.311   2.424   5.712 -0.4897 -3.3750  0.6858
15910TIP3    H269222   4.180   2.437   5.787 -0.7267 -0.7958 -0.1141
15911TIP3   OH269223   1.487   0.953   2.781 -0.0380  0.5511 -0.3279
15911TIP3    H169224   1.519   0.920   2.865  0.6607  1.0738 -0.3892
15911TIP3    H269225   1.407   1.001   2.804  0.4269  1.1334  0.1192
15912TIP3   OH269226   5.590   5.258  14.095  0.5681 -0.3579  0.1882
15912TIP3    H169227   5.521   5.243  14.160  0.3574  0.0597  0.0664
15912TIP3    H269228   5.672   5.247  14.144  0.4180 -1.2081  0.2516
15913TIP3   OH269229   1.807   0.365  13.427 -0.1505 -0.1199  0.4011
15913TIP3    H169230   1.712   0.359  13.434 -0.2407  0.0195 -0.6692
15913TIP3    H269231   1.839   0.284  13.468 -0.6701  0.4969  2.0326
15914TIP3   OH269232   1.893   6.242  15.594 -0.1308  0.3665 -0.0754
15914TIP3    H169233   1.855   6.326  15.619 -1.1104  0.2271 -1.0714
15914TIP3    H269234   1.819   6.191  15.561  0.7368 -0.2669 -1.0800
15915TIP3   OH269235   2.590   6.589   0.533  0.0356 -0.4282 -0.0774
15915TIP3    H169236   2.543   6.599   0.450 -0.7904 -0.3831  0.3869
15915TIP3    H269237   2.530   6.539   0.588  0.3449  0.0419  0.6874
15916TIP3   OH269238   6.799   1.750  14.955  0.0105 -0.6469 -0.0548
15916TIP3    H169239   6.745   1.827  14.936  0.4498 -0.7551 -1.8100
15916TIP3    H269240   6.811   1.707  14.870  1.1721 -1.7319  0.6366
15917TIP3   OH269241   6.718   3.402  15.279 -0.0540 -0.0722 -0.7040
15917TIP3    H169242   6.700   3.384  15.371  0.3310  1.2263 -0.3731
15917TIP3    H269243   6.728   3.315  15.239  1.0859 -0.6167  0.7332
15918TIP3   OH269244   0.281   0.002  12.863 -0.0331 -0.5492 -0.0720
15918TIP3    H169245   0.344   0.052  12.811 -0.0380 -0.0474  0.4017
15918TIP3    H269246   0.320  -0.002  12.951  0.0600 -1.5386 -0.1559
15919TIP3   OH269247   4.941   1.856  15.850  0.2339  0.3170  0.1677
15919TIP3    H169248   5.036   1.866  15.837  0.2819  2.3960  1.7691
15919TIP3    H269249   4.930   1.765  15.877  1.7168 -0.0808 -0.4971
15920TIP3   OH269250   4.587   0.011  13.824 -0.4893 -0.0512  0.0363
15920TIP3    H169251   4.623   0.094  13.855 -1.3992 -0.2775  1.7683
15920TIP3    H269252   4.556   0.029  13.736 -1.3612  1.6627  0.6740
15921TIP3   OH269253   5.987   1.797   2.574 -0.6694 -0.0267 -0.2041
15921TIP3    H169254   5.967   1.868   2.636 -0.9947  0.6806 -1.1114
15921TIP3    H269255   5.909   1.741   2.577 -0.4320 -0.3288  0.4784
15922TIP3   OH269256   3.264   5.564   4.388 -0.6965  0.2254 -0.2168
15922TIP3    H169257   3.222   5.548   4.304 -1.2779 -1.0044  0.2989
15922TIP3    H269258   3.196   5.547   4.453  0.4052 -1.2549  0.5999
15923TIP3   OH269259   3.179   2.569  15.716 -0.9393  0.1123  0.7062
15923TIP3    H169260   3.107   2.529  15.667  0.0509 -0.1240 -0.5876
15923TIP3    H269261   3.165   2.663  15.707 -1.3517  0.0703  0.8733
15924TIP3   OH269262   3.697   2.493   1.946 -0.0229  0.3093 -0.1608
15924TIP3    H169263   3.743   2.571   1.976  0.9784  0.4480 -1.9550
15924TIP3    H269264   3.631   2.476   2.013  1.3084  1.3077  1.4482
15925TIP3   OH269265   6.769   4.719  12.753  0.0425  0.1448  0.1154
15925TIP3    H169266   6.833   4.699  12.821 -1.1152  2.9306  2.1316
15925TIP3    H269267   6.708   4.645  12.755  0.4057 -0.1237  1.6356
15926TIP3   OH269268   3.713   4.802  15.740  0.0481 -0.3695 -0.1660
15926TIP3    H169269   3.657   4.857  15.794 -2.2290 -1.6935 -1.0793
15926TIP3    H269270   3.719   4.849  15.657  2.6185  1.1209  0.8408
15927TIP3   OH269271   2.666   3.865   4.329  0.2179 -0.3458 -0.0319
15927TIP3    H169272   2.620   3.941   4.292  0.4171 -1.0090 -1.6854
15927TIP3    H269273   2.755   3.897   4.346  0.4389 -0.3336 -1.1734
15928TIP3   OH269274   4.852   6.493  16.584 -1.0812  0.3408  0.7209
15928TIP3    H169275   4.795   6.546  16.528 -1.0221  0.4875  0.7963
15928TIP3    H269276   4.923   6.553  16.609 -0.8475  0.1363  0.5535
15929TIP3   OH269277   1.668   6.234  13.406 -0.1665  0.0461 -0.3363
15929TIP3    H169278   1.611   6.299  13.365  1.0516  0.8411 -0.7960
15929TIP3    H269279   1.616   6.154  13.407 -1.4307  0.8493 -0.3985
15930TIP3   OH269280   5.706   1.331   1.633  0.0587 -0.3288 -0.5884
15930TIP3    H169281   5.777   1.297   1.688  0.4645 -0.4080 -1.1567
15930TIP3    H269282   5.749   1.390   1.571 -0.6886  1.4478  0.5605
15931TIP3   OH269283   0.372   6.457   2.568  0.1910 -0.2581  0.5601
15931TIP3    H169284   0.360   6.546   2.535 -2.6671 -0.0741  1.9035
15931TIP3    H269285   0.341   6.400   2.497  0.5003 -0.1264  0.3185
15932TIP3   OH269286   6.726   4.734   0.121 -0.1570  0.6540  0.5165
15932TIP3    H169287   6.769   4.667   0.174  0.0926 -0.6052 -1.2292
15932TIP3    H269288   6.650   4.689   0.082 -0.1169  1.4288 -0.4867
15933TIP3   OH269289   5.885   3.280  11.064  0.4123 -0.4286 -0.0960
15933TIP3    H169290   5.837   3.197  11.055 -0.0097 -0.2806  0.7846
15933TIP3    H269291   5.970   3.255  11.100  0.3953 -0.5136 -0.1151
15934TIP3   OH269292   5.444   2.624   3.930  0.6331 -0.3641 -0.0685
15934TIP3    H169293   5.436   2.670   3.846 -0.8448  0.5699  0.5541
15934TIP3    H269294   5.399   2.681   3.993  4.1127  0.3194  1.9246
15935TIP3   OH269295   5.890   6.711  16.912 -0.0729 -1.1335 -0.4871
15935TIP3    H169296   5.826   6.756  16.968 -0.3261 -1.3658 -0.5840
15935TIP3    H269297   5.880   6.751  16.826 -0.2795 -1.3567 -0.5659
15936TIP3   OH269298   4.689   4.498  12.077  0.6514  0.0402 -0.2498
15936TIP3    H169299   4.698   4.436  12.004 -0.4778  0.4524 -0.7408
15936TIP3    H269300   4.750   4.568  12.056  2.3954 -1.1750  0.6122
15937TIP3   OH269301   4.574   5.017   6.525 -0.4100 -1.0058 -0.7593
15937TIP3    H169302   4.605   4.927   6.523 -0.0492 -0.8960 -0.2633
15937TIP3    H269303   4.505   5.017   6.592  0.4883 -0.6396  0.1868
15938TIP3   OH269304   3.143   6.390  10.298 -0.2313 -0.8819 -0.8644
15938TIP3    H169305   3.142   6.296  10.283  1.5619 -0.9808 -0.4954
15938TIP3    H269306   3.051   6.413  10.312 -0.8568 -2.3149 -2.4211
15939TIP3   OH269307   6.234   6.299   6.439  0.0554  0.5801  0.4091
15939TIP3    H169308   6.241   6.371   6.377 -1.0675  0.1446 -0.2297
15939TIP3    H269309   6.203   6.225   6.387 -0.0937 -0.0109  1.3237
15940TIP3   OH269310   4.475   6.014   0.483  0.2657  0.0005 -0.0011
15940TIP3    H169311   4.446   6.098   0.447 -1.2891  0.4437  2.1338
15940TIP3    H269312   4.542   5.983   0.422  0.6736  2.6560 -0.9840
15941TIP3   OH269313   6.773   2.515  14.394 -0.3500  0.3375  0.4996
15941TIP3    H169314   6.723   2.469  14.461 -0.9035  0.0496 -0.1001
15941TIP3    H269315   6.827   2.578  14.442 -0.5705 -0.0236  1.2220
15942TIP3   OH269316   0.893   4.391  11.923  0.3697 -0.6562 -0.0732
15942TIP3    H169317   0.968   4.354  11.971  0.4479  0.0065  0.3292
15942TIP3    H269318   0.832   4.319  11.915 -0.1427 -0.4946  2.0542
15943TIP3   OH269319   5.397   4.661  10.744  0.8251  0.7321 -0.0653
15943TIP3    H169320   5.387   4.610  10.663 -0.9172 -0.7700  1.0528
15943TIP3    H269321   5.369   4.749  10.720 -0.2492  0.1628 -0.9589
15944TIP3   OH269322   2.003   3.390   4.700 -0.1809 -0.2130 -0.1731
15944TIP3    H169323   2.090   3.430   4.709  0.6848 -1.9304 -0.6316
15944TIP3    H269324   2.018   3.313   4.646 -2.4116  0.7580 -2.2784
15945TIP3   OH269325   0.680   6.366   4.813  0.7495  0.0129  0.2560
15945TIP3    H169326   0.642   6.398   4.731  1.0759 -0.9093 -0.2582
15945TIP3    H269327   0.759   6.419   4.824  1.4296 -0.7687 -0.7325
15946TIP3   OH269328   1.652   2.943   3.101 -0.3215  0.2449  0.2805
15946TIP3    H169329   1.588   2.929   3.171 -0.6849  0.1357 -0.0731
15946TIP3    H269330   1.724   2.884   3.122 -0.6811 -0.2054  0.2548
15947TIP3   OH269331   5.582   2.494  16.875 -0.4573  0.1900 -0.5794
15947TIP3    H169332   5.654   2.540  16.918 -0.8451 -0.7085  1.0854
15947TIP3    H269333   5.625   2.428  16.820  0.0082  0.0159 -0.0165
15948TIP3   OH269334   3.359   3.486  11.797 -0.1749 -0.3350 -0.6164
15948TIP3    H169335   3.394   3.416  11.743 -1.0752 -1.3351  0.0843
15948TIP3    H269336   3.407   3.564  11.768  2.0169 -1.5001 -0.2730
15949TIP3   OH269337   6.581   2.513  11.724  0.1721 -0.2138  0.6538
15949TIP3    H169338   6.548   2.489  11.810  0.0802 -0.9785  0.4098
15949TIP3    H269339   6.516   2.480  11.662  0.3520  0.1274  0.2736
15950TIP3   OH269340   3.173   5.653  11.650  0.1613  0.2432 -0.1151
15950TIP3    H169341   3.086   5.679  11.681  0.5473  1.8814 -0.3739
15950TIP3    H269342   3.210   5.602  11.722 -0.4337  0.7838  0.5846
15951TIP3   OH269343   3.240   5.661   0.529 -0.3934 -0.0580  0.2330
15951TIP3    H169344   3.189   5.692   0.455  0.0229  0.5706  0.2074
15951TIP3    H269345   3.324   5.635   0.491 -0.9975 -1.9703  0.1259
15952TIP3   OH269346   4.526   1.160   4.678 -0.0574  0.2893  0.3391
15952TIP3    H169347   4.440   1.123   4.696  0.8268 -1.9406  0.1056
15952TIP3    H269348   4.552   1.122   4.594  0.3371  2.4796 -0.5844
15953TIP3   OH269349   2.313   0.787   5.881 -0.0966  0.1593  0.7937
15953TIP3    H169350   2.338   0.788   5.788 -2.6303 -1.5691  0.0386
15953TIP3    H269351   2.357   0.709   5.916  0.6520  0.6661  0.9783
15954TIP3   OH269352   2.481   3.987  14.196 -0.1226  0.1975  0.0279
15954TIP3    H169353   2.423   3.985  14.273 -0.8293  1.8356 -0.4340
15954TIP3    H269354   2.422   4.007  14.123  0.8386  0.5555 -0.6513
15955TIP3   OH269355   4.484   0.930   5.237  0.0069 -0.3030  0.2709
15955TIP3    H169356   4.510   0.848   5.281  2.1474 -1.6350 -3.2648
15955TIP3    H269357   4.560   0.987   5.248  1.1086 -1.1218 -2.7170
15956TIP3   OH269358   1.343   3.090   3.024 -0.0121  0.0862 -0.2079
15956TIP3    H169359   1.358   3.101   3.118 -2.7062  2.1737  0.0304
15956TIP3    H269360   1.270   3.148   3.005 -0.1135 -1.0414 -3.4364
15957TIP3   OH269361   0.346   6.372   2.287 -0.4806 -0.1840  0.0362
15957TIP3    H169362   0.411   6.435   2.254  0.5591 -1.2271  0.0770
15957TIP3    H269363   0.288   6.357   2.213  1.1117 -1.5592 -0.9649
15958TIP3   OH269364   1.695   1.223   5.383 -0.0332 -0.2568  0.7307
15958TIP3    H169365   1.705   1.132   5.355 -0.2887  0.5488 -2.1217
15958TIP3    H269366   1.612   1.251   5.345 -0.0681  1.1197  1.7832
15959TIP3   OH269367   3.568   2.456   5.330 -0.2722 -0.1493  0.5875
15959TIP3    H169368   3.570   2.421   5.241 -1.0735  0.7369  0.2060
15959TIP3    H269369   3.660   2.454   5.359  0.0242 -0.2156 -0.3456
15960TIP3   OH269370   4.084   1.885   1.830  0.2191 -0.3103  0.0860
15960TIP3    H169371   3.996   1.888   1.793 -0.1022  0.6329  0.9200
15960TIP3    H269372   4.142   1.877   1.754 -0.5466 -0.2541 -0.5009
15961TIP3   OH269373   0.922   5.543   5.334  0.0692  0.0191 -0.3289
15961TIP3    H169374   0.978   5.509   5.263 -2.4788 -0.2118 -2.2990
15961TIP3    H269375   0.930   5.638   5.326 -0.1100 -0.0068 -0.8408
15962TIP3   OH269376   5.693   5.072  15.822  0.2556 -0.0275 -0.5932
15962TIP3    H169377   5.774   5.099  15.865  1.3131  0.1190 -2.6595
15962TIP3    H269378   5.645   5.025  15.890  1.6687  0.6458  0.9078
15963TIP3   OH269379   3.237   5.053  11.404 -0.2958 -0.1817  0.5541
15963TIP3    H169380   3.155   5.087  11.369  1.9294  1.7883 -3.1822
15963TIP3    H269381   3.258   4.978  11.347  1.7865  1.0330 -0.3568
15964TIP3   OH269382   3.879   3.589   3.311  0.4363 -0.2477 -0.6170
15964TIP3    H169383   3.884   3.558   3.401 -0.5620  1.0654 -0.0845
15964TIP3    H269384   3.970   3.607   3.287  1.1033 -3.9226 -1.1208
15965TIP3   OH269385   0.030   4.921  13.389 -0.2427 -0.1010  0.1036
15965TIP3    H169386  -0.006   4.988  13.447 -0.9191  0.3669 -0.8419
15965TIP3    H269387  -0.024   4.844  13.407  0.7525 -0.5022  1.4340
15966TIP3   OH269388   2.254   4.957  13.994 -0.5226  0.1908  0.2632
15966TIP3    H169389   2.179   4.975  13.937  0.6843  0.0160 -1.4077
15966TIP3    H269390   2.327   5.003  13.954  0.7118 -1.2583  0.7673
15967TIP3   OH269391   4.673   4.059   3.411  0.5976  0.3004 -0.1970
15967TIP3    H169392   4.651   4.145   3.448  1.0017  0.9869 -1.5423
15967TIP3    H269393   4.768   4.054   3.419  0.4463 -0.6308  1.1735
15968TIP3   OH269394   3.684   1.625   6.050  0.2415 -0.0529  0.0194
15968TIP3    H169395   3.759   1.646   5.994  1.3545 -0.9377  1.1518
15968TIP3    H269396   3.669   1.705   6.100 -1.7932  1.3080 -2.6374
15969TIP3   OH269397   4.704   4.062  17.069  0.2025  0.3543  0.2328
15969TIP3    H169398   4.649   4.139  17.085 -0.5006 -0.3081  1.0410
15969TIP3    H269399   4.793   4.093  17.083 -0.1439  0.7710  1.6117
15970TIP3   OH269400   2.563   3.333  16.358  0.1305 -0.1387 -0.2292
15970TIP3    H169401   2.560   3.354  16.265  0.8581  3.1643  0.4406
15970TIP3    H269402   2.654   3.349  16.383 -0.1450 -0.6430  1.1258
15971TIP3   OH269403   3.322   0.217  17.224  0.0109 -0.2876  0.0386
15971TIP3    H169404   3.411   0.184  17.229 -0.2626 -1.0835 -0.4174
15971TIP3    H269405   3.266   0.140  17.228 -0.6228  0.0858 -1.1888
15972TIP3   OH269406   1.881   5.363   2.341  0.3353 -0.3938 -0.4311
15972TIP3    H169407   1.843   5.383   2.427 -0.1918 -1.4501 -0.4072
15972TIP3    H269408   1.938   5.287   2.357  1.4208  0.3370 -0.7314
15973TIP3   OH269409   0.580   4.252   6.954 -0.3444  0.2893  0.5751
15973TIP3    H169410   0.606   4.179   7.009  2.3117  0.8274  0.1000
15973TIP3    H269411   0.526   4.213   6.885  1.5116 -1.3234 -0.0049
15974TIP3   OH269412   2.838   4.692   1.336 -0.1676  0.5575  0.4224
15974TIP3    H169413   2.918   4.743   1.327  0.8018 -1.1551 -1.0892
15974TIP3    H269414   2.867   4.603   1.354 -1.6656 -0.2646 -0.9913
15975TIP3   OH269415   0.328   2.026  14.464 -0.5556  0.2147 -0.0006
15975TIP3    H169416   0.313   2.115  14.431  0.5321 -0.0317 -1.1979
15975TIP3    H269417   0.413   2.001  14.428 -0.1857 -0.7696  1.5313
15976TIP3   OH269418   3.829   2.210   3.798 -0.0190  0.0540 -0.9628
15976TIP3    H169419   3.915   2.205   3.839 -0.3268  2.2371  0.0326
15976TIP3    H269420   3.768   2.214   3.872 -0.7180  2.0537 -1.6110
15977TIP3   OH269421   0.196   2.587  17.088  0.6994 -0.0187  0.2625
15977TIP3    H169422   0.174   2.494  17.090 -0.4133  0.2036 -0.7757
15977TIP3    H269423   0.177   2.618  17.177  2.2552 -1.0245  0.9643
15978TIP3   OH269424   0.269   1.690   1.329 -0.0257  0.3640  0.5353
15978TIP3    H169425   0.263   1.638   1.410  0.7617 -0.3580  0.1462
15978TIP3    H269426   0.247   1.627   1.259  1.3685  0.4345  0.0217
15979TIP3   OH269427   0.471   2.007  15.265  0.5150 -0.3275 -0.0815
15979TIP3    H169428   0.498   2.016  15.174  0.0302 -0.3783 -0.2325
15979TIP3    H269429   0.476   1.913  15.282 -0.0172 -0.3888 -0.2528
15980TIP3   OH269430   2.550   5.187   3.702 -0.0471 -0.0973  0.2429
15980TIP3    H169431   2.639   5.153   3.699  0.6270  1.6834 -0.0895
15980TIP3    H269432   2.539   5.233   3.619 -1.0949  0.1291  0.5022
15981TIP3   OH269433   4.021   3.273  11.731  0.3604 -0.6105 -0.3135
15981TIP3    H169434   3.928   3.278  11.712  0.3078  0.4960  0.1656
15981TIP3    H269435   4.050   3.192  11.690 -1.4450 -2.6401  2.2557
15982TIP3   OH269436   0.758   0.962   2.335 -0.2286 -1.0088  0.1039
15982TIP3    H169437   0.666   0.937   2.342 -0.4432 -0.1017  0.6672
15982TIP3    H269438   0.765   1.042   2.388  0.2649  0.5833 -2.2711
15983TIP3   OH269439   1.347   6.150   0.460  0.0280  0.4510  0.3627
15983TIP3    H169440   1.291   6.198   0.399  1.3519 -0.3918 -1.5360
15983TIP3    H269441   1.435   6.184   0.445  0.6410 -1.0480  0.5073
15984TIP3   OH269442   1.511   1.438   1.861  0.1252 -0.3956  0.1403
15984TIP3    H169443   1.459   1.358   1.871 -0.0788 -0.2083  0.5873
15984TIP3    H269444   1.577   1.433   1.929 -0.1881  0.0449  0.4847
15985TIP3   OH269445   3.378   0.898   5.194 -0.1544 -0.3585 -0.1665
15985TIP3    H169446   3.371   0.928   5.284 -0.5956  1.4845 -0.8010
15985TIP3    H269447   3.431   0.818   5.200 -1.2432 -0.9719  1.8466
15986TIP3   OH269448   1.264   6.537  11.451  0.0289  0.2970  0.3878
15986TIP3    H169449   1.292   6.617  11.495  1.4613  1.1987 -2.0352
15986TIP3    H269450   1.257   6.471  11.521  1.6188  1.8025  2.0075
15987TIP3   OH269451   2.130   0.294  13.298  0.0654  0.4028 -0.3078
15987TIP3    H169452   2.163   0.217  13.252  1.6251 -0.2655  1.8675
15987TIP3    H269453   2.037   0.274  13.313  0.1891 -0.5428 -0.7379
15988TIP3   OH269454   0.981   2.806   1.483  0.1738 -0.1166  0.8055
15988TIP3    H169455   0.903   2.778   1.436  0.3813  1.8206 -0.7437
15988TIP3    H269456   0.964   2.781   1.574 -0.5674 -3.2115 -0.1242
15989TIP3   OH269457   4.045   4.811   2.877  0.0729  0.0420 -0.1835
15989TIP3    H169458   4.117   4.778   2.931  0.3467  0.4602 -0.2895
15989TIP3    H269459   4.037   4.748   2.806 -0.4323 -0.6354  0.4633
15990TIP3   OH269460   4.102   3.836  16.203 -0.2017 -0.1164  0.0400
15990TIP3    H169461   4.130   3.751  16.239  4.0304 -0.5703 -3.8800
15990TIP3    H269462   4.071   3.816  16.115 -2.2533  2.0168  0.2392
15991TIP3   OH269463   5.746   4.921  14.856  0.5187 -0.1060 -0.7798
15991TIP3    H169464   5.778   4.987  14.918  0.6419 -0.0192 -0.9326
15991TIP3    H269465   5.788   4.839  14.884 -1.1346 -0.5095  0.5810
15992TIP3   OH269466   1.620   5.854   5.887 -0.3243  0.5385  0.0268
15992TIP3    H169467   1.695   5.896   5.844  1.3618 -0.8909  1.4804
15992TIP3    H269468   1.592   5.787   5.825  0.4736  0.1755  0.0528
15993TIP3   OH269469   6.414   5.462   1.126 -0.7598  0.6573 -0.1509
15993TIP3    H169470   6.437   5.371   1.146 -1.2945  0.7861  1.0675
15993TIP3    H269471   6.443   5.474   1.036 -0.5446 -0.6774 -0.2732
15994TIP3   OH269472   0.870   5.383   5.564 -0.2535 -0.2383  0.2877
15994TIP3    H169473   0.795   5.401   5.621  0.7584  0.4605  1.4435
15994TIP3    H269474   0.851   5.430   5.483 -1.3661 -0.6286  0.3089
15995TIP3   OH269475   5.990   0.358   4.060 -0.0903 -0.3941  0.5128
15995TIP3    H169476   6.022   0.400   3.980  2.7213 -1.9670  0.7578
15995TIP3    H269477   5.903   0.327   4.037 -0.0687  0.8109 -1.3437
15996TIP3   OH269478   0.409   3.867  16.294 -0.2283  0.1101  0.4602
15996TIP3    H169479   0.375   3.833  16.212  1.4157  0.4172 -0.3667
15996TIP3    H269480   0.428   3.789  16.347  0.9263 -0.1787 -0.3637
15997TIP3   OH269481   4.475   5.770   3.934 -0.3401 -0.7412 -0.1572
15997TIP3    H169482   4.530   5.777   4.012  0.4915  1.0310 -0.8574
15997TIP3    H269483   4.422   5.850   3.935  0.1127 -0.3943 -1.7151
15998TIP3   OH269484   1.979   5.292  16.496  0.1992  0.5578 -0.4496
15998TIP3    H169485   1.975   5.197  16.498 -1.9650  0.6458  0.8111
15998TIP3    H269486   2.032   5.313  16.418  1.4969 -1.6642 -0.1823
15999TIP3   OH269487   5.682   3.858  14.424  0.5952  0.4308  0.1738
15999TIP3    H169488   5.686   3.891  14.334  1.1966 -0.1542 -0.0197
15999TIP3    H269489   5.626   3.920  14.470 -1.4031 -0.3797 -1.0993
16000TIP3   OH269490   5.655   2.452  11.475 -0.0054  0.3011  0.4999
16000TIP3    H169491   5.612   2.530  11.511 -1.4465  0.3457 -1.2762
16000TIP3    H269492   5.683   2.404  11.553 -1.8086  1.0827  1.6970
16001TIP3   OH269493   3.072   5.278  16.921  0.0499 -0.7235  0.0090
16001TIP3    H169494   3.125   5.291  16.999  1.4681 -1.1615 -0.8588
16001TIP3    H269495   3.039   5.189  16.929 -0.3833 -0.5215  0.4547
16002TIP3   OH269496   6.214   1.006   3.782 -0.0753  0.5628  0.2778
16002TIP3    H169497   6.232   0.919   3.747  1.7011  0.7605  0.6262
16002TIP3    H269498   6.162   1.049   3.715 -2.0443 -1.1754  0.6443
16003TIP3   OH269499   3.450   4.665   1.717  0.3294 -0.1501 -0.0142
16003TIP3    H169500   3.505   4.737   1.685  2.3360 -1.5400  0.1610
16003TIP3    H269501   3.511   4.610   1.766 -1.5315 -1.0724  1.2917
16004TIP3   OH269502   2.256   3.391   4.562  0.7213 -0.1677 -0.3670
16004TIP3    H169503   2.348   3.369   4.577  0.3094 -0.4616  1.9296
16004TIP3    H269504   2.258   3.481   4.530  1.8624 -0.5063 -1.2721
16005TIP3   OH269505   2.659   5.799   4.636  0.3250  0.8452 -0.6758
16005TIP3    H169506   2.652   5.811   4.731 -1.3955  1.6911 -0.8773
16005TIP3    H269507   2.593   5.859   4.600  0.6942  0.2502 -2.3810
16006TIP3   OH269508   4.139   6.225   0.129 -0.2138  0.7749 -1.0815
16006TIP3    H169509   4.111   6.315   0.117  0.9097  1.4075  0.8405
16006TIP3    H269510   4.094   6.176   0.059 -1.1827  2.7216 -1.8530
16007TIP3   OH269511   1.427   4.766   3.559  0.2602  0.7421  0.8899
16007TIP3    H169512   1.517   4.795   3.548  0.0365  1.1640  0.1744
16007TIP3    H269513   1.376   4.847   3.564 -0.2998  0.4915 -0.5774
16008TIP3   OH269514   2.232   6.464   4.586  0.1707 -0.2055 -0.2124
16008TIP3    H169515   2.311   6.414   4.610  0.4518  0.9168  1.3274
16008TIP3    H269516   2.205   6.505   4.668 -3.3489 -2.3630 -0.2203
16009TIP3   OH269517   3.126   5.226   1.182 -0.2985  0.4267  0.4096
16009TIP3    H169518   3.159   5.266   1.102 -0.6230  0.2068  0.1646
16009TIP3    H269519   3.204   5.215   1.237 -0.2012  1.3406  0.4590
16010TIP3   OH269520   4.529   5.834  15.939 -0.4079 -0.4600 -0.4838
16010TIP3    H169521   4.529   5.885  15.858 -1.0119  0.1006 -0.1326
16010TIP3    H269522   4.611   5.859  15.983 -0.8959  0.5053 -0.1243
16011TIP3   OH269523   4.215   4.003  14.197  0.4192 -0.9372 -0.1863
16011TIP3    H169524   4.281   4.038  14.257  1.1105  0.8725 -1.9602
16011TIP3    H269525   4.261   3.993  14.114 -0.8290 -2.3407 -0.7218
16012TIP3   OH269526   6.505   2.442  15.486 -0.6880 -0.0399 -0.0586
16012TIP3    H169527   6.520   2.415  15.577 -2.9547 -2.0642 -0.2227
16012TIP3    H269528   6.447   2.518  15.493  0.4508  0.8208  0.2115
16013TIP3   OH269529   0.147   5.495  15.179  0.1239 -0.2587  0.0571
16013TIP3    H169530   0.128   5.425  15.116 -1.9364 -1.1380  1.6032
16013TIP3    H269531   0.129   5.576  15.131 -1.9171 -0.9290 -0.3697
16014TIP3   OH269532   1.086   6.251   2.859 -0.1717  0.5165 -0.2954
16014TIP3    H169533   0.996   6.268   2.830  0.0348  0.6305 -0.8851
16014TIP3    H269534   1.084   6.161   2.891 -0.6500  0.7424  0.3283
16015TIP3   OH269535   6.774   4.305  15.678  0.2058 -0.7112  0.3258
16015TIP3    H169536   6.800   4.216  15.655 -1.2226 -1.5471  1.8404
16015TIP3    H269537   6.782   4.355  15.596 -0.1434 -2.4976 -0.8086
16016TIP3   OH269538   3.008   2.913  16.000  0.4868 -0.0187 -0.4849
16016TIP3    H169539   3.089   2.965  15.995  0.9525 -0.6074  0.7679
16016TIP3    H269540   2.976   2.910  15.910  2.5616 -0.8712 -1.2311
16017TIP3   OH269541   1.465   2.601  13.047 -0.4294  0.0227  0.0183
16017TIP3    H169542   1.498   2.688  13.067 -0.5963 -0.1945  1.2768
16017TIP3    H269543   1.371   2.612  13.035 -0.3120  0.1736 -0.7789
16018TIP3   OH269544   4.376   2.524  15.729  0.3980  0.6776  0.0372
16018TIP3    H169545   4.396   2.450  15.671 -0.7320 -0.2688  0.8615
16018TIP3    H269546   4.457   2.537  15.779  1.2226  1.1866 -1.3577
16019TIP3   OH269547   1.292   1.642   6.175 -0.2023  0.8840 -0.0858
16019TIP3    H169548   1.287   1.584   6.251  1.5447  0.4629 -0.2799
16019TIP3    H269549   1.346   1.715   6.204 -1.1725  1.7040 -0.3130
16020TIP3   OH269550   1.336   6.562   1.520  0.0949 -0.5845  0.3043
16020TIP3    H169551   1.368   6.619   1.589  0.9670 -1.1289  0.3685
16020TIP3    H269552   1.397   6.576   1.447 -1.8361  1.2820 -0.9924
16021TIP3   OH269553   2.267   4.490   1.898  0.7486  0.4118  0.0350
16021TIP3    H169554   2.239   4.504   1.807  1.8915  0.1681 -0.3648
16021TIP3    H269555   2.360   4.512   1.897  1.6927 -3.3457  0.2908
16022TIP3   OH269556   0.030   6.061  16.951  0.1258  0.2890 -0.5656
16022TIP3    H169557  -0.054   6.097  16.923  0.0506 -0.2456 -1.0537
16022TIP3    H269558   0.007   5.984  17.004  0.2342  2.0924  2.1679
16023TIP3   OH269559   6.524   5.731   1.287  0.1265  0.2837 -0.1808
16023TIP3    H169560   6.438   5.734   1.328 -0.7355  2.0356 -2.0304
16023TIP3    H269561   6.511   5.680   1.206  0.4481  1.9338 -1.2893
16024TIP3   OH269562   0.773   0.017  16.951 -0.6660 -0.1439  0.5740
16024TIP3    H169563   0.734   0.102  16.974 -1.0253 -0.6451  1.8434
16024TIP3    H269564   0.811  -0.015  17.032 -1.4992 -1.7121  0.3640
16025TIP3   OH269565   4.280   0.442  12.247  0.5007 -0.1081 -0.5337
16025TIP3    H169566   4.192   0.469  12.221 -0.1107 -0.7532  0.8078
16025TIP3    H269567   4.288   0.352  12.216  0.5912 -0.1288 -0.4520
16026TIP3   OH269568   4.005   4.725   2.333 -0.0788  0.1262  0.2316
16026TIP3    H169569   3.981   4.707   2.424  1.0566  0.5139  0.6233
16026TIP3    H269570   3.925   4.759   2.293 -0.3275  0.9137  1.3640
16027TIP3   OH269571   0.020   3.295   1.363 -0.8204 -0.2700  0.5844
16027TIP3    H169572   0.040   3.356   1.292  0.8204 -1.5682 -0.1297
16027TIP3    H269573  -0.068   3.318   1.391 -0.3869  2.1532  0.0742
16028TIP3   OH269574   3.469   0.012  15.850  0.3325 -0.3939  0.0298
16028TIP3    H169575   3.442  -0.039  15.925 -1.1747  0.1224 -0.1509
16028TIP3    H269576   3.560   0.036  15.868  0.0194 -0.3938  1.6157
16029TIP3   OH269577   2.531   5.662  11.853  0.6551  0.4000  0.0421
16029TIP3    H169578   2.552   5.749  11.818 -0.0303  1.0839  1.3224
16029TIP3    H269579   2.470   5.625  11.789 -1.6001  2.1500  1.1352
16030TIP3   OH269580   5.644   2.346  14.649  0.0748 -0.1920 -0.2646
16030TIP3    H169581   5.625   2.437  14.672 -2.0574 -0.8206  0.5409
16030TIP3    H269582   5.649   2.346  14.553 -1.9476  0.3918 -0.3783
16031TIP3   OH269583   0.834   1.036   6.264 -0.0288 -0.2097 -0.6833
16031TIP3    H169584   0.901   1.090   6.223  0.2067 -0.0139 -0.0428
16031TIP3    H269585   0.783   1.097   6.318  1.2007 -0.8608  1.2685
16032TIP3   OH269586   3.776   2.984   1.479 -0.0115 -0.4172 -0.8359
16032TIP3    H169587   3.828   3.063   1.494 -2.2096  0.6943  1.2020
16032TIP3    H269588   3.840   2.918   1.453  2.3071  1.1469  0.7194
16033TIP3   OH269589   5.234   6.694   4.271  0.1308  0.2870  0.7147
16033TIP3    H169590   5.236   6.602   4.296  1.3370 -0.1738 -1.0186
16033TIP3    H269591   5.217   6.693   4.177  1.2724  1.7961  0.4848
16034TIP3   OH269592   5.470   3.965  16.456 -0.2961 -0.3997  0.1139
16034TIP3    H169593   5.487   3.875  16.485 -0.1441 -0.2334  0.5406
16034TIP3    H269594   5.404   3.997  16.518 -0.4023 -0.2369 -0.0812
16035TIP3   OH269595   2.519   1.879   1.293 -0.4534  0.2924 -0.0729
16035TIP3    H169596   2.426   1.883   1.313 -0.3755 -0.3299  0.4296
16035TIP3    H269597   2.556   1.824   1.362  0.4677  1.4824  0.4090
16036TIP3   OH269598   2.387   2.859   2.318 -0.0696 -0.0185  0.3278
16036TIP3    H169599   2.439   2.907   2.382 -0.1558 -0.4824  0.7525
16036TIP3    H269600   2.426   2.880   2.234 -0.2281  0.9518  0.4887
16037TIP3   OH269601   0.216   4.774   0.031 -0.5704  0.0804  0.6788
16037TIP3    H169602   0.154   4.701   0.022  1.4150 -1.5162 -0.5239
16037TIP3    H269603   0.241   4.773   0.123 -1.7830  0.3012  1.0229
16038TIP3   OH269604   3.792   6.016  13.858 -0.4523  0.2813 -0.7688
16038TIP3    H169605   3.729   6.021  13.786  0.3426  0.5293 -1.4477
16038TIP3    H269606   3.846   5.940  13.837 -0.9270 -0.3064  0.1399
16039TIP3   OH269607   5.122   1.376  17.014 -0.4055  0.5466 -0.1931
16039TIP3    H169608   5.061   1.369  17.088  1.1708 -0.0662  1.0739
16039TIP3    H269609   5.209   1.377  17.055  0.4143  2.2586 -1.9272
16040TIP3   OH269610   6.692   0.676  15.970  0.3527 -0.4343  0.2078
16040TIP3    H169611   6.712   0.648  16.060  1.2848  1.2062  0.5211
16040TIP3    H269612   6.619   0.619  15.944  0.4543 -1.3299  1.7923
16041TIP3   OH269613   0.797   3.665   2.695  0.4271  0.4932  0.3383
16041TIP3    H169614   0.702   3.677   2.693  0.4136  0.2417 -1.5113
16041TIP3    H269615   0.832   3.748   2.661  0.8782  0.5922  1.0287
16042TIP3   OH269616   0.088   6.440   5.495  0.0642  0.0274  0.0834
16042TIP3    H169617   0.008   6.457   5.446  0.0314 -1.0447 -0.2492
16042TIP3    H269618   0.116   6.353   5.467  1.8870  0.7881 -0.5444
16043TIP3   OH269619   3.981   3.922   2.347 -0.2620  0.4096  0.1433
16043TIP3    H169620   4.009   3.999   2.297 -0.6263 -0.6119 -1.6663
16043TIP3    H269621   4.048   3.913   2.415  0.0462  2.0352  0.0860
16044TIP3   OH269622   2.157   0.171  17.275  1.0197 -0.2385 -0.8579
16044TIP3    H169623   2.112   0.090  17.252  1.4042 -0.0719 -2.2399
16044TIP3    H269624   2.236   0.171  17.221  2.5519 -0.3806  1.3230
16045TIP3   OH269625   0.804   4.902   4.081  0.0639 -0.4885  0.0399
16045TIP3    H169626   0.711   4.880   4.078  0.1170 -0.8735  1.0747
16045TIP3    H269627   0.840   4.860   4.002 -0.9335  1.1563 -1.3276
16046TIP3   OH269628   3.032   0.889   2.466 -0.1613  0.1252 -0.1807
16046TIP3    H169629   2.957   0.925   2.419 -1.3353  1.4766  2.6310
16046TIP3    H269630   3.103   0.950   2.447 -0.9187  1.2896  0.6621
16047TIP3   OH269631   5.508   5.483  14.445  0.5917  0.3531  0.2610
16047TIP3    H169632   5.553   5.561  14.476  1.7709  0.0187 -0.5666
16047TIP3    H269633   5.579   5.424  14.417 -0.3555 -0.2032 -1.0033
16048TIP3   OH269634   6.253   4.707  12.295  0.2195 -0.2181 -0.0071
16048TIP3    H169635   6.217   4.795  12.305  1.1243  0.3349 -1.4044
16048TIP3    H269636   6.212   4.674  12.214  2.0490  0.0507 -1.0746
16049TIP3   OH269637   1.257   4.376  11.769  0.1795 -0.2895 -0.2065
16049TIP3    H169638   1.219   4.457  11.802 -1.2726 -1.0676  0.1041
16049TIP3    H269639   1.295   4.334  11.847 -0.5470 -0.6896 -0.0650
16050TIP3   OH269640   5.267   4.370   0.190 -0.0212  0.2212 -0.6575
16050TIP3    H169641   5.229   4.401   0.273 -2.2096 -1.5417 -0.9838
16050TIP3    H269642   5.359   4.398   0.195 -0.6057  1.9552  1.4442
16051TIP3   OH269643   1.534   4.244  15.346  0.1733 -0.0902 -0.6256
16051TIP3    H169644   1.476   4.318  15.363 -0.4613 -0.9063  0.8528
16051TIP3    H269645   1.605   4.254  15.410 -0.1170 -0.9688 -0.1632
16052TIP3   OH269646   0.766   3.690  12.421 -0.0765  0.1111 -0.0656
16052TIP3    H169647   0.860   3.691  12.437 -0.0593 -2.2375  0.1366
16052TIP3    H269648   0.747   3.777  12.385  1.9919  0.9622  0.7954
16053TIP3   OH269649   5.601   1.235   5.066 -0.0217 -0.3428  0.0029
16053TIP3    H169650   5.651   1.154   5.078  0.9230 -0.1789 -2.4390
16053TIP3    H269651   5.641   1.298   5.125  1.2073 -0.8432 -0.2889
16054TIP3   OH269652   1.680   1.391  13.782 -0.0573 -0.4326 -0.4215
16054TIP3    H169653   1.590   1.418  13.765  0.3540  0.5832 -1.0301
16054TIP3    H269654   1.713   1.457  13.842 -0.1200 -1.5426  0.8609
16055TIP3   OH269655   0.196   2.694   6.244 -0.1061  0.0148  0.1105
16055TIP3    H169656   0.222   2.697   6.336 -1.4231  1.4907  0.4491
16055TIP3    H269657   0.144   2.773   6.231 -1.2046 -0.9480 -1.5219
16056TIP3   OH269658   1.761   0.009   2.290  0.0716 -0.0700 -0.4415
16056TIP3    H169659   1.827   0.057   2.341  0.8499 -0.6999 -0.8365
16056TIP3    H269660   1.792   0.015   2.200 -2.0327  2.2173 -1.0472
16057TIP3   OH269661   6.208   1.447  15.044 -0.8556  0.5991 -0.0298
16057TIP3    H169662   6.234   1.399  15.123  1.5304  0.2663 -0.9766
16057TIP3    H269663   6.149   1.387  14.998 -0.4091 -0.1473  0.3578
16058TIP3   OH269664   4.923   6.618   4.437 -0.1801 -0.6182 -0.2945
16058TIP3    H169665   4.963   6.555   4.378 -2.4162 -2.3489 -0.0089
16058TIP3    H269666   4.911   6.570   4.519  1.8475  1.4121  1.2405
16059TIP3   OH269667   4.636   5.338  16.603 -0.6289  0.4329 -0.7694
16059TIP3    H169668   4.678   5.391  16.672 -1.1231  2.0971 -1.7186
16059TIP3    H269669   4.676   5.370  16.522 -0.6364 -0.9593 -1.3259
16060TIP3   OH269670   1.303   3.565   0.627 -0.6167 -0.5135  0.2666
16060TIP3    H169671   1.345   3.514   0.558  1.0487  1.8850 -0.5754
16060TIP3    H269672   1.370   3.575   0.694 -0.8809  0.5928  0.3852
16061TIP3   OH269673   1.517   1.533  12.507 -0.0307 -0.1057 -0.5777
16061TIP3    H169674   1.610   1.534  12.527 -0.2852  0.7560  0.6113
16061TIP3    H269675   1.486   1.448  12.538 -0.1858  0.7417  1.6826
16062TIP3   OH269676   3.262   4.231  16.054 -0.2834  0.2460 -0.1817
16062TIP3    H169677   3.177   4.222  16.096 -0.9023  0.8032 -1.3162
16062TIP3    H269678   3.257   4.175  15.977  0.1634  0.7690 -0.5928
16063TIP3   OH269679   0.187   6.285  14.261 -0.3978 -0.4779 -0.0843
16063TIP3    H169680   0.207   6.218  14.326  0.8561 -0.3864 -0.3654
16063TIP3    H269681   0.243   6.359  14.285 -0.3836 -0.2188 -0.9013
16064TIP3   OH269682   2.999   5.004  13.655 -0.2724  0.0992  0.5459
16064TIP3    H169683   3.041   4.937  13.602  2.1528  2.1749 -0.2590
16064TIP3    H269684   3.028   4.988  13.744  0.8803  0.4976  0.2450
16065TIP3   OH269685   6.433   0.901  15.507 -0.1054 -0.6092 -0.1322
16065TIP3    H169686   6.421   0.978  15.452 -0.6882 -0.2661  0.4723
16065TIP3    H269687   6.522   0.911  15.542  0.2919 -0.8634 -1.0521
16066TIP3   OH269688   5.013   4.936  17.002  0.5389  0.0045 -0.5588
16066TIP3    H169689   4.991   5.028  16.986  0.6093  0.0453 -0.4262
16066TIP3    H269690   5.104   4.939  17.033  0.3624 -0.0558 -0.0276
16067TIP3   OH269691   4.830   6.142  13.904  0.0650  0.2167  0.9880
16067TIP3    H169692   4.843   6.223  13.954  1.0628  0.4179  0.4170
16067TIP3    H269693   4.916   6.100  13.904 -0.2318 -0.3950  0.4962
16068TIP3   OH269694   3.702   3.528   1.881 -0.1096  0.2571 -0.6710
16068TIP3    H169695   3.793   3.503   1.864  0.6333  0.7279  2.3558
16068TIP3    H269696   3.695   3.616   1.845  0.6626  0.2597 -0.8316
16069TIP3   OH269697   0.758   4.339   2.999 -0.0185 -0.7560  0.3136
16069TIP3    H169698   0.699   4.265   2.992  0.0676 -0.7687 -0.3170
16069TIP3    H269699   0.747   4.387   2.917 -0.3196  0.1191  0.8502
16070TIP3   OH269700   4.484   6.267  13.524  0.0630  0.9281 -0.3381
16070TIP3    H169701   4.416   6.313  13.574  1.0628  1.2476  0.7653
16070TIP3    H269702   4.563   6.318  13.540  1.1327 -0.9975  0.6636
16071TIP3   OH269703   3.537   2.695   3.772 -0.3840  0.5947 -0.1311
16071TIP3    H169704   3.575   2.608   3.787 -0.1455  0.7701  0.3050
16071TIP3    H269705   3.607   2.756   3.797 -0.8461  0.9204  0.3662
16072TIP3   OH269706   2.232   1.304  14.808 -0.1348  0.4045 -1.0275
16072TIP3    H169707   2.307   1.336  14.858 -0.3852  2.3620 -1.8461
16072TIP3    H269708   2.226   1.211  14.829  2.1255  0.3720 -0.4545
16073TIP3   OH269709   6.215   0.515   6.013  0.0260 -0.0986 -0.4556
16073TIP3    H169710   6.202   0.425   6.044  2.1067 -0.2425  0.0476
16073TIP3    H269711   6.165   0.568   6.075  1.3376 -0.6752  1.1551
16074TIP3   OH269712   1.320   3.078  16.139  0.0234  0.2188 -0.2791
16074TIP3    H169713   1.318   3.173  16.125 -1.4745  0.1968 -0.3539
16074TIP3    H269714   1.372   3.044  16.066 -1.1006  0.8251 -1.4037
16075TIP3   OH269715   4.084   5.376  15.890  0.1177 -0.0335  0.3368
16075TIP3    H169716   4.135   5.302  15.924 -1.3637  0.0891  2.9605
16075TIP3    H269717   4.128   5.453  15.926 -1.3224  0.1072  1.8671
16076TIP3   OH269718   6.338   2.884   4.442 -0.2339  0.6128 -0.1265
16076TIP3    H169719   6.314   2.906   4.532  0.8187  0.7239  0.1222
16076TIP3    H269720   6.405   2.817   4.450  1.4181  2.1419 -0.7826
16077TIP3   OH269721   0.629   6.749  15.727 -0.0068 -0.1891  0.6971
16077TIP3    H169722   0.548   6.699  15.743 -0.6723  1.3114  2.0843
16077TIP3    H269723   0.602   6.819  15.667  0.0072  0.9584  2.0126
16078TIP3   OH269724   2.092   3.203  16.373 -0.1825  0.5100 -0.4941
16078TIP3    H169725   2.109   3.132  16.435 -0.5703 -0.1173 -1.1054
16078TIP3    H269726   2.036   3.264  16.422  0.4183  0.5617  0.1409
16079TIP3   OH269727   3.502   5.458  16.567  0.0444  0.8608 -0.0101
16079TIP3    H169728   3.427   5.401  16.548  0.4370  0.0783  0.7841
16079TIP3    H269729   3.463   5.542  16.592 -0.6072  0.1588  1.3954
16080TIP3   OH269730   4.847   0.609  12.136 -0.7311 -0.0375  0.0818
16080TIP3    H169731   4.757   0.601  12.167 -0.9577 -2.0240 -1.0255
16080TIP3    H269732   4.879   0.519  12.128  0.9708  0.5962 -0.6176
16081TIP3   OH269733   3.468   2.092  15.171  0.2448  0.0705 -0.2251
16081TIP3    H169734   3.558   2.094  15.138  0.3236  0.9841  0.0379
16081TIP3    H269735   3.475   2.127  15.260 -0.2941 -0.3679 -0.0089
16082TIP3   OH269736   5.836   3.187   5.900  0.6252 -0.0672  0.0614
16082TIP3    H169737   5.900   3.251   5.933  1.9124 -0.8151 -0.9136
16082TIP3    H269738   5.890   3.114   5.868 -0.6940 -0.4662 -1.3046
16083TIP3   OH269739   1.615   1.455   1.420 -0.1080 -0.2151  0.1344
16083TIP3    H169740   1.581   1.392   1.484 -0.3225 -0.9033 -0.6486
16083TIP3    H269741   1.646   1.401   1.347  1.5191  0.4768  0.2854
16084TIP3   OH269742   5.134   5.696  12.293 -0.3549 -0.1781 -0.2000
16084TIP3    H169743   5.071   5.696  12.220 -1.4868 -1.9863  0.7408
16084TIP3    H269744   5.084   5.730  12.367  0.3453  0.1842  0.1100
16085TIP3   OH269745   0.216   5.749   4.565 -0.5799 -0.2208 -0.1245
16085TIP3    H169746   0.209   5.844   4.577 -1.0454 -0.2104 -0.4515
16085TIP3    H269747   0.282   5.721   4.628  1.5079  0.6951 -1.8575
16086TIP3   OH269748   6.715   5.347  11.925 -0.1878  0.3349  0.3220
16086TIP3    H169749   6.756   5.301  11.998  0.1641  0.8953  0.4796
16086TIP3    H269750   6.624   5.316  11.926  0.4111 -1.5461 -0.5527
16087TIP3   OH269751   2.118   3.323   4.320  0.4845 -0.1334  0.6833
16087TIP3    H169752   2.083   3.410   4.300  2.3687  0.6245  0.6579
16087TIP3    H269753   2.173   3.336   4.398 -0.1078 -1.5165  1.3566
16088TIP3   OH269754   3.234   5.594  14.334 -0.0278  0.6495  0.2746
16088TIP3    H169755   3.312   5.560  14.289  0.1721 -1.4316  2.1222
16088TIP3    H269756   3.210   5.672  14.284  1.8376 -0.0153 -1.7498
16089TIP3   OH269757   2.941   2.482   2.561 -0.3330  0.7004  0.9935
16089TIP3    H169758   2.903   2.502   2.476 -1.0474  2.2298  1.6484
16089TIP3    H269759   3.012   2.546   2.572  2.0345 -1.6568  0.0997
16090TIP3   OH269760   6.303   5.693  11.655 -0.1699  0.3756 -0.3855
16090TIP3    H169761   6.286   5.603  11.630 -0.3703  0.5632 -0.9255
16090TIP3    H269762   6.348   5.687  11.739 -1.2850 -0.1781  0.1705
16091TIP3   OH269763   2.040   3.224  10.773  0.6332  0.0661  0.0200
16091TIP3    H169764   1.990   3.217  10.853  1.6548 -1.0361  0.5804
16091TIP3    H269765   2.036   3.136  10.734  0.6914  0.4166 -0.7873
16092TIP3   OH269766   5.963   6.125   0.251 -0.1682 -0.6632  0.2189
16092TIP3    H169767   5.936   6.057   0.189 -0.1667 -1.2890  0.8978
16092TIP3    H269768   6.032   6.172   0.205 -1.0027 -0.3389 -0.7382
16093TIP3   OH269769   2.791   1.965   2.039 -0.6817  0.1673  0.6336
16093TIP3    H169770   2.876   1.931   2.067  0.7598  1.9111 -1.5173
16093TIP3    H269771   2.752   2.000   2.119  2.1468  2.5440  1.0466
16094TIP3   OH269772   2.316   1.700   4.785 -0.1923  0.7014  0.1989
16094TIP3    H169773   2.330   1.616   4.743 -0.4908  1.0194 -0.5435
16094TIP3    H269774   2.378   1.702   4.858 -1.8967 -1.2358  1.7878
16095TIP3   OH269775   3.086   2.200   5.846  0.3766 -0.4341 -0.4924
16095TIP3    H169776   3.154   2.146   5.885  0.5459 -0.6616 -1.1018
16095TIP3    H269777   3.028   2.138   5.802 -0.7574 -0.3351  0.8099
16096TIP3   OH269778   5.911   4.710  16.737  0.9118  0.2132 -0.2370
16096TIP3    H169779   5.982   4.767  16.706  1.9368 -0.7242  0.3539
16096TIP3    H269780   5.935   4.623  16.706  0.8551 -0.3758  1.3533
16097TIP3   OH269781   0.354   6.079  13.144 -0.0274  0.3378  0.0499
16097TIP3    H169782   0.411   6.137  13.094  2.4249 -0.9319  1.3012
16097TIP3    H269783   0.267   6.092  13.106  1.2290  1.6896 -2.4457
16098TIP3   OH269784   0.087   5.754   4.333  0.4379  0.0436  0.1167
16098TIP3    H169785   0.147   5.753   4.408 -0.8106  0.4194  1.1270
16098TIP3    H269786   0.145   5.754   4.257  1.7192 -0.6232  1.0662
16099TIP3   OH269787   2.915   5.095  14.991 -0.0782 -0.6800 -0.1766
16099TIP3    H169788   2.905   5.008  15.030  1.4779 -1.7083 -1.9690
16099TIP3    H269789   2.881   5.085  14.902 -1.5855  1.0439  0.2039
16100TIP3   OH269790   0.038   1.496   3.499 -0.1789  1.2428  0.0809
16100TIP3    H169791   0.097   1.497   3.575  0.5370  1.0876 -0.4645
16100TIP3    H269792   0.084   1.443   3.434 -2.1339 -1.1327  0.5931
16101TIP3   OH269793   5.501   0.043  16.117  0.0657 -0.1760  0.3294
16101TIP3    H169794   5.512   0.131  16.152  1.8318 -0.8631  1.6000
16101TIP3    H269795   5.548  -0.013  16.178 -2.8058 -2.2875  0.7376
16102TIP3   OH269796   2.348   5.454   4.764 -0.3814 -0.2811 -0.1855
16102TIP3    H169797   2.297   5.439   4.685 -1.1399  0.3573  0.1724
16102TIP3    H269798   2.408   5.379   4.769 -0.4086 -0.3821 -1.2891
16103TIP3   OH269799   5.427   5.530   0.769  0.4796 -0.1042 -0.4089
16103TIP3    H169800   5.399   5.505   0.857 -1.6071 -2.5354 -1.7079
16103TIP3    H269801   5.498   5.470   0.749  1.1390  0.6295 -0.3079
16104TIP3   OH269802   4.814   6.407   2.334 -0.5698  0.0979  0.7870
16104TIP3    H169803   4.896   6.393   2.381 -1.0199 -1.5224  1.1507
16104TIP3    H269804   4.828   6.486   2.283  1.6704 -0.8562 -0.1203
16105TIP3   OH269805   0.665   5.064  16.046 -0.1754 -0.3041  0.1853
16105TIP3    H169806   0.750   5.100  16.022 -0.1176 -1.0135 -0.7066
16105TIP3    H269807   0.684   4.977  16.081 -0.3520  0.3385  1.9602
16106TIP3   OH269808   3.725   5.480  10.552  0.1685 -0.2472  0.1719
16106TIP3    H169809   3.652   5.526  10.510 -0.0844 -1.2141 -0.4628
16106TIP3    H269810   3.687   5.399  10.586  0.6848 -0.1673  0.9681
16107TIP3   OH269811   1.552   1.721   1.772  0.0205 -0.4723  0.4984
16107TIP3    H169812   1.517   1.704   1.684 -0.8535 -0.1745  0.7822
16107TIP3    H269813   1.524   1.646   1.824 -0.4576 -0.0911  0.7973
16108TIP3   OH269814   0.895   2.695   4.309 -0.2709 -0.0876 -0.2750
16108TIP3    H169815   0.863   2.700   4.219  0.9736  2.0373 -0.6361
16108TIP3    H269816   0.824   2.732   4.361 -1.1909 -1.7554 -0.2905
16109TIP3   OH269817   2.650   6.786  13.669 -0.2479  0.5954 -0.1170
16109TIP3    H169818   2.702   6.755  13.743  0.7551 -0.0193 -1.0641
16109TIP3    H269819   2.585   6.844  13.708 -0.4551 -0.6158  1.3746
16110TIP3   OH269820   6.668   1.963  11.669 -0.4713  0.4905  0.4105
16110TIP3    H169821   6.735   2.028  11.693 -0.3331 -0.0474  1.4768
16110TIP3    H269822   6.706   1.917  11.594  1.3978 -1.3621  2.4155
16111TIP3   OH269823   4.496   4.868   1.952  0.1757 -0.3448 -0.7576
16111TIP3    H169824   4.485   4.960   1.975 -1.0273 -0.6524 -0.0529
16111TIP3    H269825   4.501   4.868   1.857  1.2854  0.5528 -0.7102
16112TIP3   OH269826   2.481   2.748   3.226  0.0176  0.5193 -0.2602
16112TIP3    H169827   2.474   2.675   3.165  0.2970  0.9727 -0.8525
16112TIP3    H269828   2.494   2.825   3.169 -0.5499  1.0587  0.3379
16113TIP3   OH269829   2.435   5.484   0.849 -0.0770  0.9584  0.7890
16113TIP3    H169830   2.442   5.532   0.766 -1.3178  1.0407  0.7245
16113TIP3    H269831   2.425   5.553   0.915 -1.2813  0.8305  0.7585
16114TIP3   OH269832   0.889   2.593  14.890 -0.6105  0.1120  0.3344
16114TIP3    H169833   0.904   2.500  14.873 -0.6001 -0.0155  1.0318
16114TIP3    H269834   0.814   2.594  14.950 -0.8381  0.5697  0.0425
16115TIP3   OH269835   1.327   1.396  16.300 -0.0575 -0.0099 -0.2378
16115TIP3    H169836   1.348   1.482  16.264  0.0967  0.3458  0.7050
16115TIP3    H269837   1.411   1.363  16.333 -0.0725 -0.6167 -0.8042
16116TIP3   OH269838   6.289   2.537  14.723  0.3559 -0.2210  0.4618
16116TIP3    H169839   6.266   2.561  14.813 -1.0033 -0.8822  0.3117
16116TIP3    H269840   6.268   2.444  14.718  0.5116 -0.2036 -0.5243
16117TIP3   OH269841   3.456   1.269  16.112 -0.2155 -0.8611  0.0831
16117TIP3    H169842   3.482   1.322  16.037 -0.8174  2.1037  1.8897
16117TIP3    H269843   3.536   1.256  16.162 -0.9575  3.0051  2.4261
16118TIP3   OH269844   3.968   3.085   2.949 -0.0361 -0.0021 -0.7550
16118TIP3    H169845   3.922   3.056   2.870  0.4702 -1.8065 -0.4127
16118TIP3    H269846   3.943   3.177   2.959 -1.0426 -0.0815 -2.3459
16119TIP3   OH269847   6.510   4.308   5.493  0.2036 -0.2989 -0.1245
16119TIP3    H169848   6.427   4.278   5.455 -0.1548  0.3082  0.1717
16119TIP3    H269849   6.568   4.232   5.489  0.1622 -0.2498 -1.8711
16120TIP3   OH269850   2.899   3.214  13.174 -0.3175  0.5687  0.1372
16120TIP3    H169851   2.838   3.259  13.117 -1.8411 -2.1977 -0.5234
16120TIP3    H269852   2.983   3.258  13.159 -1.1158  1.2495 -2.6710
16121TIP3   OH269853   1.519   4.705  13.000  0.3103 -0.1391  0.1129
16121TIP3    H169854   1.538   4.738  12.912  1.6486 -0.2135  0.3656
16121TIP3    H269855   1.488   4.781  13.048 -3.7741 -0.7632 -1.3500
16122TIP3   OH269856   4.803   5.143  16.243  0.2591 -0.4017 -0.0503
16122TIP3    H169857   4.806   5.153  16.148  1.1770 -0.4932 -0.0307
16122TIP3    H269858   4.778   5.052  16.257 -0.4904 -0.2271 -0.1981
16123TIP3   OH269859   5.892   0.899  12.072  0.0006  0.0529 -0.2131
16123TIP3    H169860   5.797   0.887  12.085  0.1587 -0.3463  0.6671
16123TIP3    H269861   5.928   0.811  12.083  0.2201 -0.2293 -3.0194
16124TIP3   OH269862   6.512   1.510  11.133 -0.5224  0.7027  0.1137
16124TIP3    H169863   6.599   1.544  11.114  0.1484 -0.1249  1.6469
16124TIP3    H269864   6.506   1.430  11.082  0.1720  0.0128  1.0914
16125TIP3   OH269865   3.904   3.081   0.451 -0.3341  0.3456  0.0162
16125TIP3    H169866   3.989   3.124   0.446  0.2843 -0.8201  0.2750
16125TIP3    H269867   3.841   3.147   0.420  0.9829  0.2689 -3.0020
16126TIP3   OH269868   3.833   5.627   4.543 -0.0498 -0.2960 -0.9887
16126TIP3    H169869   3.824   5.675   4.461  0.2213  0.3448 -0.6560
16126TIP3    H269870   3.786   5.681   4.607  1.2127  0.1192 -0.3893
16127TIP3   OH269871   5.627   0.364   5.849 -0.2365 -0.1647  0.0656
16127TIP3    H169872   5.693   0.417   5.893  0.2166 -0.7142  0.0537
16127TIP3    H269873   5.565   0.341   5.918 -1.1006  1.3984 -0.1749
16128TIP3   OH269874   5.671   0.692  12.354 -0.0078 -0.0505  0.1519
16128TIP3    H169875   5.720   0.612  12.335 -0.6810 -0.3810 -0.2047
16128TIP3    H269876   5.596   0.689  12.294 -0.1990  0.6943  0.3483
16129TIP3   OH269877   2.384   4.272   2.605  0.0103  0.4534  0.3406
16129TIP3    H169878   2.462   4.321   2.578 -0.6482  1.8046  0.8238
16129TIP3    H269879   2.331   4.266   2.525  0.0965  0.5209  0.2779
16130TIP3   OH269880   5.251   6.108  13.288  0.6946 -0.5163 -0.1586
16130TIP3    H169881   5.245   6.121  13.383  0.9419 -0.6578 -0.1220
16130TIP3    H269882   5.343   6.124  13.268  0.4471  0.4561 -0.5240
16131TIP3   OH269883   6.594   5.195  14.530  0.0065 -0.2444  0.3340
16131TIP3    H169884   6.658   5.141  14.577 -0.0022 -1.7699 -1.3235
16131TIP3    H269885   6.626   5.285  14.540  0.8504 -0.7073  1.8972
16132TIP3   OH269886   0.551   6.290   2.740  0.0166 -0.2552  0.3741
16132TIP3    H169887   0.488   6.238   2.789  0.1446 -0.4573  0.3263
16132TIP3    H269888   0.500   6.360   2.700 -0.3847 -1.1726 -0.7393
16133TIP3   OH269889   5.563   6.214  16.444  0.3489  0.5610  0.3468
16133TIP3    H169890   5.616   6.135  16.447 -0.7637 -0.1976  0.0624
16133TIP3    H269891   5.541   6.225  16.351 -0.3157  0.6593  0.5144
16134TIP3   OH269892   2.749   5.985   3.133 -0.1855  0.0226  0.4206
16134TIP3    H169893   2.796   6.034   3.201  1.7871  0.5337 -1.2690
16134TIP3    H269894   2.816   5.931   3.092 -1.2021  0.2652 -1.5959
16135TIP3   OH269895   2.491   2.348   4.373  0.4719 -0.4411  0.2458
16135TIP3    H169896   2.583   2.323   4.382  1.1136  2.5317  2.4127
16135TIP3    H269897   2.492   2.434   4.332 -1.4421 -1.0178 -1.1194
16136TIP3   OH269898   3.251   4.969   0.584 -0.5088  0.5694 -0.1723
16136TIP3    H169899   3.217   4.959   0.495  0.8407 -0.9460 -0.5349
16136TIP3    H269900   3.292   4.885   0.604  0.0460  1.2187  1.5367
16137TIP3   OH269901   1.011   6.578   3.539 -0.4065 -0.2707 -0.2289
16137TIP3    H169902   1.034   6.577   3.631  1.5468 -1.4258 -0.6982
16137TIP3    H269903   1.056   6.654   3.503  0.5506 -0.9983 -0.6136
16138TIP3   OH269904   4.665   5.171  14.825  0.1302  0.5848 -0.3428
16138TIP3    H169905   4.679   5.204  14.914 -2.4967  0.2086  0.2382
16138TIP3    H269906   4.589   5.114  14.832 -1.2243  1.9333 -3.1321
16139TIP3   OH269907   3.361   5.946   2.099  0.1005 -0.6015 -0.2010
16139TIP3    H169908   3.342   5.997   2.019  0.6603  1.5089  0.9655
16139TIP3    H269909   3.456   5.935   2.098  0.1540 -0.2235  0.3553
16140TIP3   OH269910   5.623   0.046  16.793 -0.5706 -0.1665 -0.3957
16140TIP3    H169911   5.576  -0.036  16.807  0.7454 -0.9064 -0.2763
16140TIP3    H269912   5.647   0.045  16.701 -0.5748  0.0977 -0.4037
16141TIP3   OH269913   3.828   2.051   4.386  0.2182 -0.3726  0.5544
16141TIP3    H169914   3.736   2.058   4.409 -0.3350 -0.2056 -1.6105
16141TIP3    H269915   3.859   2.141   4.384  0.4405 -0.4310  1.3215
16142TIP3   OH269916   1.552   0.862   3.034  0.2499  0.1538 -0.0709
16142TIP3    H169917   1.570   0.901   3.119  0.3164 -0.6055  0.2587
16142TIP3    H269918   1.606   0.783   3.031 -1.6768 -1.2196  0.2310
16143TIP3   OH269919   0.397   6.729   0.143 -0.6640 -0.7369  0.2660
16143TIP3    H169920   0.354   6.650   0.112 -0.7474 -1.1697  1.4509
16143TIP3    H269921   0.337   6.800   0.120 -0.5135 -0.9897 -0.9437
16144TIP3   OH269922   1.948   1.320   2.156 -0.3425 -0.7714  0.5798
16144TIP3    H169923   1.943   1.299   2.249  0.8667  0.9081  1.0487
16144TIP3    H269924   2.036   1.291   2.130  0.1782  0.8480  0.5133
16145TIP3   OH269925   5.573   0.074   3.580  0.5562  0.4082 -0.2444
16145TIP3    H169926   5.658   0.076   3.624  1.8760  1.3714 -2.7326
16145TIP3    H269927   5.587   0.019   3.503 -1.2240  0.1447 -0.3856
16146TIP3   OH269928   3.950   6.432  15.612  0.4152 -0.1835 -0.1655
16146TIP3    H169929   3.910   6.506  15.566 -1.1755 -0.2093  1.1447
16146TIP3    H269930   4.002   6.472  15.682 -0.4198 -0.2895  0.5254
16147TIP3   OH269931   2.246   0.183  14.123 -0.2487 -0.1688  0.4617
16147TIP3    H169932   2.202   0.193  14.039 -0.9398 -1.6388  0.6247
16147TIP3    H269933   2.262   0.272  14.153 -0.1031  0.3658 -1.1738
16148TIP3   OH269934   0.905   6.520   2.098  0.5219  0.3967  0.1855
16148TIP3    H169935   0.826   6.471   2.121  0.6044  0.3147  0.2947
16148TIP3    H269936   0.940   6.551   2.181  0.1893  1.0766  0.0697
16149TIP3   OH269937   4.139   0.246  17.077 -0.4797 -0.0682 -0.4700
16149TIP3    H169938   4.228   0.239  17.113 -1.0903 -0.6313  0.9688
16149TIP3    H269939   4.133   0.172  17.015 -0.6500 -1.3170  1.0110
16150TIP3   OH269940   4.939   6.343  11.554  0.3702  0.0421 -0.3954
16150TIP3    H169941   4.992   6.410  11.511 -0.8014  0.2986 -1.4866
16150TIP3    H269942   4.849   6.376  11.548  0.1399 -0.0399  2.0468
16151TIP3   OH269943   6.645   2.083  13.651  0.7198  0.1286 -1.3411
16151TIP3    H169944   6.615   2.009  13.704 -0.0308  0.9160 -0.6571
16151TIP3    H269945   6.740   2.087  13.665  1.1280 -2.0966 -3.1598
16152TIP3   OH269946   6.687   4.873  16.541  0.3707 -0.8227 -0.5288
16152TIP3    H169947   6.741   4.864  16.619 -2.3527  0.8731  1.6249
16152TIP3    H269948   6.735   4.935  16.486  1.3327 -0.4793  0.6825
16153TIP3   OH269949   2.531   3.585  16.736 -0.2679 -0.1577  0.0546
16153TIP3    H169950   2.484   3.508  16.705  1.8799 -1.7626  0.6944
16153TIP3    H269951   2.525   3.580  16.831  1.8156 -0.7913  0.1618
16154TIP3   OH269952   5.719   5.313  11.066  0.0396  0.1426 -0.0264
16154TIP3    H169953   5.685   5.284  10.981  0.0388 -1.6779  0.5856
16154TIP3    H269954   5.807   5.346  11.047  0.8380 -2.1643 -0.4239
16155TIP3   OH269955   5.909   4.600  12.703 -0.2274 -0.2833 -0.1498
16155TIP3    H169956   5.886   4.596  12.611  0.9874 -0.4656 -0.4567
16155TIP3    H269957   6.003   4.618  12.704 -0.1894 -0.4619  1.0443
16156TIP3   OH269958   2.476   1.403   5.966 -0.5149 -0.0038 -0.5942
16156TIP3    H169959   2.433   1.325   5.932  0.6407 -0.0489 -1.9710
16156TIP3    H269960   2.506   1.378   6.054 -0.4409 -0.9877 -0.9023
16157TIP3   OH269961   5.777   3.130  16.337 -0.1122  0.3531  0.4771
16157TIP3    H169962   5.865   3.138  16.376  1.0617 -0.7088 -1.8666
16157TIP3    H269963   5.728   3.076  16.399  1.0068  0.5738  1.5800
16158TIP3   OH269964   2.487   0.611  16.080 -0.0286  1.1559 -0.6679
16158TIP3    H169965   2.510   0.563  16.001  0.6162 -0.4853  0.4878
16158TIP3    H269966   2.394   0.629  16.071 -0.3963 -0.7777 -0.9022
16159TIP3   OH269967   2.927   0.278   0.760 -0.7241  0.5934  0.3418
16159TIP3    H169968   2.928   0.311   0.850 -0.5802  0.6632  0.3155
16159TIP3    H269969   2.917   0.356   0.705 -1.1750  0.5153  0.3109
16160TIP3   OH269970   5.973   6.644   6.539 -0.1706  0.1903 -0.0834
16160TIP3    H169971   5.997   6.658   6.448 -2.0742  1.1668 -0.4460
16160TIP3    H269972   5.898   6.585   6.537 -0.3474  0.3621  0.8395
16161TIP3   OH269973   1.961   4.138  15.003 -0.3031 -0.0464 -0.5939
16161TIP3    H169974   1.985   4.103  15.088  1.4055  1.0316 -0.5995
16161TIP3    H269975   1.869   4.116  14.993 -0.2601 -1.0844  1.0743
16162TIP3   OH269976   5.669   5.975  13.912  0.4376 -0.8478 -0.5663
16162TIP3    H169977   5.746   5.922  13.935  0.4398 -0.2761  0.7837
16162TIP3    H269978   5.704   6.046  13.858  0.6442 -1.3681 -1.1351
16163TIP3   OH269979   0.098   3.173   5.641 -0.1043 -0.4574 -0.2611
16163TIP3    H169980   0.065   3.263   5.637  1.9066  0.2533 -1.2692
16163TIP3    H269981   0.022   3.121   5.669 -1.5333  1.4124 -0.5793
16164TIP3   OH269982   5.003   3.666  16.258  0.2286 -0.7175  0.6351
16164TIP3    H169983   5.075   3.706  16.307  0.2811 -0.0643  0.0264
16164TIP3    H269984   4.945   3.630  16.325 -0.4120  1.3954  1.2217
16165TIP3   OH269985   2.190   1.473   0.292  0.0372 -0.0606  0.2204
16165TIP3    H169986   2.230   1.415   0.356 -0.2766 -0.0849  0.3953
16165TIP3    H269987   2.208   1.561   0.324  1.8743 -0.0071 -0.8576
16166TIP3   OH269988   0.314   6.382   1.366  0.3030 -0.3668  0.1297
16166TIP3    H169989   0.381   6.315   1.378  2.3930  1.4191 -1.2530
16166TIP3    H269990   0.326   6.413   1.276 -2.7144 -0.3450 -0.3383
16167TIP3   OH269991   1.012   4.240  16.553  0.0500  0.0578 -0.0137
16167TIP3    H169992   1.101   4.210  16.568  0.7022  0.0272 -3.5818
16167TIP3    H269993   0.980   4.187  16.480 -2.1368  1.5335 -0.1789
16168TIP3   OH269994   5.369   5.893  16.655  1.1734  0.6129  0.0133
16168TIP3    H169995   5.347   5.948  16.579  1.3308 -1.9669 -1.9638
16168TIP3    H269996   5.465   5.891  16.657  1.1891 -1.3524 -1.2972
16169TIP3   OH269997   3.469   6.017  13.405  0.5271  0.0586 -0.3725
16169TIP3    H169998   3.412   5.963  13.350 -1.1150  0.2844  1.1018
16169TIP3    H269999   3.494   6.091  13.349  1.1121 -1.1178 -1.7102
16170TIP3   OH270000   1.699   4.894   0.530 -0.2883  0.2770  0.5197
16170TIP3    H170001   1.630   4.957   0.552 -1.1382 -0.9536  1.3706
16170TIP3    H270002   1.654   4.810   0.522  1.0240 -0.4336  0.4713
16171TIP3   OH270003   0.228   2.937   1.102 -0.1877  0.1339 -0.2010
16171TIP3    H170004   0.297   2.991   1.138  0.9212 -1.4644  0.1193
16171TIP3    H270005   0.154   2.949   1.162  0.2802  0.7374  0.2520
16172TIP3   OH270006   5.154   4.039   3.529 -0.4187 -0.1106  0.1362
16172TIP3    H170007   5.201   3.956   3.521  1.3963  0.8603  0.5338
16172TIP3    H270008   5.208   4.102   3.482 -1.4757  0.9863  0.3681
16173TIP3   OH270009   5.551   4.216   4.024 -0.1089  0.0414  0.1331
16173TIP3    H170010   5.466   4.259   4.012 -0.6454 -1.4940 -1.9121
16173TIP3    H270011   5.604   4.247   3.950  0.4202 -0.5948  0.2447
16174TIP3   OH270012   4.914   4.486  10.412  0.1835  0.9417  0.6757
16174TIP3    H170013   4.900   4.574  10.377  0.5422  0.9233  0.4783
16174TIP3    H270014   4.982   4.497  10.479 -0.3648  0.9457  1.2357
16175TIP3   OH270015   5.842   0.065   3.707  0.1804 -0.6343 -0.0952
16175TIP3    H170016   5.932   0.042   3.682  0.7208  0.0701  1.1306
16175TIP3    H270017   5.837   0.159   3.691 -0.6512 -0.8395 -1.0519
16176TIP3   OH270018   5.597   6.513   3.307  0.0639  0.1174  0.3083
16176TIP3    H170019   5.678   6.474   3.342 -0.3991 -0.4648  0.7377
16176TIP3    H270020   5.605   6.606   3.326  0.4494  0.0044  0.7116
16177TIP3   OH270021   2.822   3.505  16.079 -0.0046 -0.3592  0.6074
16177TIP3    H170022   2.730   3.523  16.060 -0.0482 -1.6941 -0.5271
16177TIP3    H270023   2.828   3.409  16.081  1.0514 -0.2767  2.2747
16178TIP3   OH270024   6.421   3.569   5.885  0.0559 -0.1060  0.1925
16178TIP3    H170025   6.362   3.503   5.849  0.8775 -1.7039  1.7526
16178TIP3    H270026   6.506   3.547   5.849  0.7297 -1.2059  2.3854
16179TIP3   OH270027   6.264   2.771   5.664  0.0133  0.7474 -0.5820
16179TIP3    H170028   6.279   2.804   5.752 -0.0265 -0.4017 -0.1468
16179TIP3    H270029   6.351   2.755   5.628 -0.0114 -1.9519  0.4552
16180TIP3   OH270030   1.946   1.089   4.919 -0.4149 -0.4672  0.2434
16180TIP3    H170031   1.917   1.000   4.902 -2.2157 -0.0325  0.9775
16180TIP3    H270032   1.928   1.136   4.837  2.1237 -1.1326 -0.7523
16181TIP3   OH270033   1.378   2.345   2.381 -0.4938 -0.2535 -0.4227
16181TIP3    H170034   1.311   2.398   2.424  0.5056  0.7321 -0.0294
16181TIP3    H270035   1.330   2.283   2.327 -1.7135  0.4208 -0.1181
16182TIP3   OH270036   4.308   6.078   5.431 -0.7048  0.1338 -0.4654
16182TIP3    H170037   4.342   6.142   5.368 -0.7832 -0.9511 -1.6287
16182TIP3    H270038   4.383   6.021   5.450 -0.6516  0.5106  0.5260
16183TIP3   OH270039   3.465   3.379   5.845 -0.1413  0.3397  0.2367
16183TIP3    H170040   3.433   3.469   5.849 -0.6594  0.1395  0.6409
16183TIP3    H270041   3.517   3.368   5.924  0.3616  0.4486 -0.0773
16184TIP3   OH270042   1.607   1.683   6.085  0.9498  0.5261  0.1457
16184TIP3    H170043   1.555   1.724   6.155  0.5509 -1.0270  0.7803
16184TIP3    H270044   1.547   1.679   6.011  0.9288  0.9209  0.1392
16185TIP3   OH270045   5.115   4.320  14.193 -0.1691  0.4948 -0.0789
16185TIP3    H170046   5.205   4.327  14.162 -0.1219 -0.6443 -0.2179
16185TIP3    H270047   5.069   4.393  14.151  0.4856  0.5468 -0.7116
16186TIP3   OH270048   1.816   6.429   6.544 -0.1658 -0.3989  0.0730
16186TIP3    H170049   1.745   6.408   6.483 -1.3816 -1.0745  1.7068
16186TIP3    H270050   1.784   6.505   6.593  0.5522 -0.2390  0.2937
16187TIP3   OH270051   5.345   6.475   6.595  0.0563  0.1118 -0.3012
16187TIP3    H170052   5.341   6.569   6.613 -0.5739  0.0660 -0.2101
16187TIP3    H270053   5.308   6.434   6.673 -1.0290 -0.1590 -0.9631
16188TIP3   OH270054   6.462   6.346  13.606  0.5889 -0.2256 -1.0271
16188TIP3    H170055   6.501   6.273  13.654 -1.4310 -1.8744 -1.8570
16188TIP3    H270056   6.460   6.418  13.670  0.4700 -1.5730  0.5158
16189TIP3   OH270057   2.956   5.842   3.337 -0.3421 -0.3739 -0.1776
16189TIP3    H170058   2.946   5.747   3.345 -1.1720 -0.4870 -2.1749
16189TIP3    H270059   3.038   5.853   3.288 -0.7944 -0.1113 -0.8871
16190TIP3   OH270060   1.345   3.561  13.674 -0.0203  0.2813 -0.2353
16190TIP3    H170061   1.282   3.490  13.658  0.7018  0.1961 -2.8351
16190TIP3    H270062   1.429   3.517  13.685  0.5900  0.7528 -2.7717
16191TIP3   OH270063   3.307   5.477   1.303  0.3140  0.4094 -0.4049
16191TIP3    H170064   3.295   5.473   1.209  2.3868 -0.7639 -0.6531
16191TIP3    H270065   3.342   5.391   1.327  0.5426  0.9456  1.3136
16192TIP3   OH270066   0.887   6.512  13.838 -0.3519 -0.2132 -0.0849
16192TIP3    H170067   0.943   6.442  13.804 -1.8801 -1.5181  0.0444
16192TIP3    H270068   0.850   6.554  13.760 -0.4478 -0.3810 -0.1275
16193TIP3   OH270069   5.203   4.310   2.204  0.2265  0.7776 -0.2917
16193TIP3    H170070   5.278   4.369   2.212 -0.0069  1.0599 -0.1720
16193TIP3    H270071   5.145   4.352   2.141  0.0338  0.7069 -0.1648
16194TIP3   OH270072   4.147   5.579   4.125  0.3996  0.2754 -0.0571
16194TIP3    H170073   4.082   5.547   4.063 -0.4996  2.2915 -0.1724
16194TIP3    H270074   4.191   5.500   4.157 -2.3149 -1.1435  0.2657
16195TIP3   OH270075   4.568   5.602  14.119 -0.1487  0.2435 -0.4995
16195TIP3    H170076   4.488   5.556  14.092  0.1121 -1.1230  0.9649
16195TIP3    H270077   4.558   5.691  14.085 -2.0117 -0.0913 -0.8589
16196TIP3   OH270078   1.345   0.088  11.914 -0.2251  0.0973 -0.4728
16196TIP3    H170079   1.435   0.102  11.943 -0.3928  1.5112 -0.6362
16196TIP3    H270080   1.338   0.136  11.831 -1.4077  0.8060  0.0288
16197TIP3   OH270081   1.193   4.395   4.749  0.6061 -0.0734 -0.0689
16197TIP3    H170082   1.147   4.448   4.814  1.0599  0.9762 -0.5831
16197TIP3    H270083   1.127   4.333   4.718  0.8546 -1.7410  2.6169
16198TIP3   OH270084   1.317   4.664   4.797  0.2599 -0.0990  0.1401
16198TIP3    H170085   1.230   4.693   4.825  0.1252 -0.7986  0.4537
16198TIP3    H270086   1.302   4.579   4.756  0.7417 -0.0380 -0.1646
16199TIP3   OH270087   2.283   1.910  11.607  0.0126  0.0055  0.1995
16199TIP3    H170088   2.204   1.857  11.619  0.9806 -1.0836  1.8882
16199TIP3    H270089   2.355   1.850  11.624  1.2643  0.7613 -2.1843
16200TIP3   OH270090   1.645   6.766  16.704  0.1935  0.4694 -0.6947
16200TIP3    H170091   1.698   6.692  16.676 -0.0869  0.9358 -2.5310
16200TIP3    H270092   1.708   6.828  16.742  0.3429 -0.9472  1.4254
16201TIP3   OH270093   0.974   3.499   5.142  0.3528 -0.4458 -0.5259
16201TIP3    H170094   0.916   3.571   5.118 -0.9451 -1.2588  0.1725
16201TIP3    H270095   0.996   3.516   5.234  1.5111  0.0489 -0.8839
16202TIP3   OH270096   1.613   2.113   0.904  0.3360 -0.6684 -0.3479
16202TIP3    H170097   1.569   2.031   0.885  0.4096 -1.1983  1.7179
16202TIP3    H270098   1.687   2.089   0.960 -0.1300  0.8899  0.9724
16203TIP3   OH270099   1.045   0.822   4.905  0.9575  0.0935 -0.4485
16203TIP3    H170100   0.979   0.752   4.912  1.9104 -0.6183  2.0085
16203TIP3    H270101   1.036   0.855   4.816 -2.1045 -0.6149 -0.4537
16204TIP3   OH270102   3.124   5.940  12.222  0.1557  0.5505  0.2226
16204TIP3    H170103   3.212   5.966  12.249  0.2874  0.5011 -0.1562
16204TIP3    H270104   3.122   5.956  12.127 -0.6363  1.6858  0.4274
16205TIP3   OH270105   2.000   1.993   5.684  0.0877 -0.0017  0.0692
16205TIP3    H170106   1.945   2.070   5.672 -0.1671 -0.1904  0.0129
16205TIP3    H270107   2.089   2.027   5.690 -0.0553  0.3240  0.3611
16206TIP3   OH270108   1.168   0.829   1.708  0.0264  0.0307 -0.1718
16206TIP3    H170109   1.100   0.770   1.675 -2.0225  0.7709  2.5506
16206TIP3    H270110   1.224   0.846   1.632 -1.2633 -2.7226 -1.8256
16207TIP3   OH270111   4.558   6.278   2.326  0.2291  0.4112 -0.4353
16207TIP3    H170112   4.496   6.337   2.283  0.3339  0.8555  0.0197
16207TIP3    H270113   4.638   6.329   2.335 -0.2416  0.8318  1.6145
16208TIP3   OH270114   4.413   5.605  17.292 -0.4041  0.2928 -0.1866
16208TIP3    H170115   4.473   5.552  17.239  1.2048  2.2129 -0.3309
16208TIP3    H270116   4.422   5.569  17.380 -0.9813 -1.0916 -0.6745
16209TIP3   OH270117   4.390   3.629  14.722 -0.1326  0.3085  0.4648
16209TIP3    H170118   4.299   3.653  14.740 -0.1423  0.6084  0.0182
16209TIP3    H270119   4.392   3.608  14.629  0.3566  0.7816  0.3651
16210TIP3   OH270120   5.859   1.671  16.373  0.2055  0.2953 -0.2725
16210TIP3    H170121   5.948   1.698  16.395  0.6212 -0.0098 -1.5464
16210TIP3    H270122   5.833   1.614  16.446  0.5163  1.5064  0.8127
16211TIP3   OH270123   4.015   2.543  16.242 -0.2506 -0.0528  0.6071
16211TIP3    H170124   4.085   2.586  16.193  1.2777 -1.1370  1.7952
16211TIP3    H270125   3.979   2.478  16.181 -0.5578  0.8247 -0.1582
16212TIP3   OH270126   6.520   3.887  14.521 -0.4611 -0.2645 -0.1233
16212TIP3    H170127   6.455   3.861  14.586 -0.3581  0.5425  0.3051
16212TIP3    H270128   6.504   3.980  14.506 -0.6862 -0.5103 -1.4894
16213TIP3   OH270129   0.733   5.618  12.547  0.2730 -0.2256 -0.0800
16213TIP3    H170130   0.793   5.576  12.608  0.5621 -0.9350 -0.8485
16213TIP3    H270131   0.772   5.703  12.529  0.2609 -0.0714  0.6057
16214TIP3   OH270132   4.129   4.872   0.558  0.2827  0.4713 -0.4154
16214TIP3    H170133   4.208   4.823   0.583  0.4878  0.8655 -0.2860
16214TIP3    H270134   4.103   4.833   0.475  2.0496  1.9696 -1.7177
16215TIP3   OH270135   2.070   1.542   4.753 -0.7637 -0.4676 -0.2536
16215TIP3    H170136   2.046   1.504   4.837 -1.2160 -0.7153 -0.4928
16215TIP3    H270137   2.034   1.630   4.755  0.4471  0.0222  0.3784
16216TIP3   OH270138   3.763   2.640   1.471 -0.0576 -1.0213 -0.4156
16216TIP3    H170139   3.727   2.608   1.388 -0.6623 -0.2685 -0.4518
16216TIP3    H270140   3.856   2.618   1.467 -0.2187 -1.6238 -0.9843
16217TIP3   OH270141   0.620   3.996  13.825  0.7124 -0.1604  0.1369
16217TIP3    H170142   0.713   3.990  13.804  0.3811 -2.3179 -0.9004
16217TIP3    H270143   0.593   4.081  13.792  1.9105 -0.3082 -1.2836
16218TIP3   OH270144   2.586   6.159   4.280  0.0733 -0.0118  0.0205
16218TIP3    H170145   2.531   6.213   4.223  0.7693  1.9325  1.1659
16218TIP3    H270146   2.548   6.072   4.273 -2.3913  1.0405 -0.1876
16219TIP3   OH270147   1.976   5.854   2.142  0.6271  0.0682  0.0985
16219TIP3    H170148   2.064   5.818   2.130  0.5586 -1.3697  3.3192
16219TIP3    H270149   1.989   5.931   2.196 -0.2470 -1.4089  2.4858
16220TIP3   OH270150   5.014   0.690  11.661 -0.6465 -0.2739 -0.9805
16220TIP3    H170151   4.982   0.726  11.744 -0.9640 -1.4524 -0.5824
16220TIP3    H270152   5.048   0.604  11.684 -1.2172 -0.8309 -2.1600
16221TIP3   OH270153   3.188   0.991   0.016 -0.4796  0.6301  0.2596
16221TIP3    H170154   3.273   0.973   0.055 -1.3178  1.2368  2.4101
16221TIP3    H270155   3.184   0.932  -0.060  1.4871 -0.0112  0.6223
16222TIP3   OH270156   1.105   2.345   2.185  0.5688  0.3585 -0.1838
16222TIP3    H170157   1.150   2.429   2.198 -0.1449  1.0293 -1.8249
16222TIP3    H270158   1.062   2.327   2.269  1.0983  1.4178  0.3252
16223TIP3   OH270159   4.278   0.681   5.447 -0.2193 -0.3229 -0.1169
16223TIP3    H170160   4.225   0.679   5.367  0.3653  1.4537 -0.5773
16223TIP3    H270161   4.233   0.743   5.504  0.5629  0.0855  0.0626
16224TIP3   OH270162   3.242   6.204  16.693 -0.4149  0.0918  0.0706
16224TIP3    H170163   3.328   6.195  16.652 -0.7513  0.9883 -0.8698
16224TIP3    H270164   3.211   6.290  16.665 -0.9842  0.4080  1.6351
16225TIP3   OH270165   4.102   1.817   6.290  0.4687 -0.5690 -0.8590
16225TIP3    H170166   4.007   1.824   6.278  0.1443 -1.9256  0.7476
16225TIP3    H270167   4.126   1.894   6.342  0.0644 -0.8096 -0.3120
16226TIP3   OH270168   5.788   3.601  15.783 -0.5869  0.6098  0.2579
16226TIP3    H170169   5.784   3.629  15.874 -0.0063  0.8650  0.2021
16226TIP3    H270170   5.852   3.530  15.782 -1.5728 -0.2956  0.2844
16227TIP3   OH270171   6.792   0.710  16.843 -0.4806  0.1638 -0.4136
16227TIP3    H170172   6.800   0.805  16.851 -0.9594  0.2934 -1.3902
16227TIP3    H270173   6.767   0.680  16.930 -3.9459  1.3291 -0.9386
16228TIP3   OH270174   4.679   5.267   3.832 -0.8182 -0.1897 -0.4135
16228TIP3    H170175   4.747   5.312   3.780 -0.3685 -0.5018 -0.0941
16228TIP3    H270176   4.611   5.245   3.768 -1.5378  1.8796 -0.4083
16229TIP3   OH270177   1.713   2.817   4.915 -0.5275  0.2549  0.4162
16229TIP3    H170178   1.666   2.881   4.862  0.1166  0.9453  0.6799
16229TIP3    H270179   1.712   2.853   5.003 -0.3139 -0.1840  0.5984
16230TIP3   OH270180   4.149   6.522  15.104 -0.0230 -0.0990  0.1336
16230TIP3    H170181   4.097   6.575  15.165  0.7884 -1.4194  2.0182
16230TIP3    H270182   4.239   6.530  15.136  0.0993 -2.6683  0.5397
16231TIP3   OH270183   6.740   4.484  14.563 -0.5768 -0.2298  0.5644
16231TIP3    H170184   6.789   4.474  14.481  0.6709  0.0737  1.2552
16231TIP3    H270185   6.719   4.395  14.590 -1.7780 -0.2987 -0.5380
16232TIP3   OH270186   1.544   3.124  15.255  0.6832  0.0472 -0.2516
16232TIP3    H170187   1.537   3.185  15.181  0.3821  0.9307  0.5035
16232TIP3    H270188   1.589   3.174  15.323 -0.5918 -0.1838  0.7785
16233TIP3   OH270189   4.360   3.386   4.399  0.6077  0.1231 -0.1182
16233TIP3    H170190   4.407   3.426   4.326  0.9279 -0.6367 -0.3392
16233TIP3    H270191   4.285   3.443   4.414  1.2463  0.9898 -0.1916
16234TIP3   OH270192   5.600   2.716   0.506  0.1944 -0.0422  0.6120
16234TIP3    H170193   5.528   2.670   0.463  0.4217  0.0175  0.1609
16234TIP3    H270194   5.640   2.651   0.563 -0.9125  0.2291  1.7196
16235TIP3   OH270195   0.977   1.319  16.705  0.0229 -0.0019  0.1006
16235TIP3    H170196   0.996   1.321  16.799 -0.4175  1.4042  0.1615
16235TIP3    H270197   0.892   1.361  16.696  0.7166  1.2023 -1.0734
16236TIP3   OH270198   2.792   3.522   3.790  0.6090  0.2898 -0.2984
16236TIP3    H170199   2.854   3.552   3.723  0.0525 -0.5092 -1.1937
16236TIP3    H270200   2.716   3.578   3.780  1.4544  1.7416  1.2837
16237TIP3   OH270201   4.609   5.519   3.961  0.1473 -0.7259  0.1884
16237TIP3    H170202   4.556   5.593   3.931  2.5226  0.3934 -1.4056
16237TIP3    H270203   4.612   5.460   3.885 -0.4187 -1.7242  0.9289
16238TIP3   OH270204   2.883   2.616   4.934  0.3933  0.6433 -0.1499
16238TIP3    H170205   2.958   2.565   4.904 -0.7246 -0.0571 -1.8496
16238TIP3    H270206   2.807   2.574   4.892 -0.8675  1.8255  0.8880
16239TIP3   OH270207   4.585   1.875   5.277  0.2546  0.0363  0.0096
16239TIP3    H170208   4.676   1.860   5.252  0.9547  1.7877  1.4088
16239TIP3    H270209   4.561   1.799   5.329  0.4799 -1.0496 -1.4225
16240TIP3   OH270210   6.349   1.394  12.687  0.2627 -0.1573 -1.1246
16240TIP3    H170211   6.280   1.408  12.753  1.7427 -1.1310  0.6713
16240TIP3    H270212   6.301   1.363  12.610 -1.6286  2.0836 -0.9197
16241TIP3   OH270213   4.133   0.641   0.787  0.0375 -0.0745 -0.2080
16241TIP3    H170214   4.151   0.586   0.864 -0.9831 -0.1799 -0.0340
16241TIP3    H270215   4.207   0.701   0.783 -0.2174  0.3745  1.2622
16242TIP3   OH270216   5.595   2.351   4.739 -0.1701  0.0137  0.3418
16242TIP3    H170217   5.674   2.318   4.696  0.0900 -1.3947  1.8846
16242TIP3    H270218   5.616   2.441   4.763  0.3605  0.1818 -0.7321
16243TIP3   OH270219   5.533   2.325   5.537 -0.1284 -0.5090 -0.1500
16243TIP3    H170220   5.478   2.363   5.605 -0.9062 -0.1311 -0.9699
16243TIP3    H270221   5.482   2.251   5.503  0.5188 -1.0746  0.0935
16244TIP3   OH270222   2.614   5.683  14.820  0.0167  0.3319 -0.4150
16244TIP3    H170223   2.646   5.595  14.805 -0.4184  0.5092 -2.6407
16244TIP3    H270224   2.518   5.675  14.816 -0.0069  1.0266 -1.5996
16245TIP3   OH270225   5.497   4.351   3.013 -0.1461  0.1796  0.3815
16245TIP3    H170226   5.418   4.344   2.960  1.9583 -1.4373 -2.6960
16245TIP3    H270227   5.548   4.420   2.971  1.0390 -0.3105  0.9987
16246TIP3   OH270228   5.268   0.007   3.602 -0.2094 -0.6313 -0.1573
16246TIP3    H170229   5.223   0.090   3.599 -0.9658 -1.0738 -2.0490
16246TIP3    H270230   5.361   0.029   3.590 -0.4064 -0.0652 -0.6183
16247TIP3   OH270231   6.569   4.705   1.149  0.4074  0.3728  0.2125
16247TIP3    H170232   6.578   4.610   1.156 -1.2098  0.2818  1.3719
16247TIP3    H270233   6.489   4.725   1.197 -0.5794  2.0691 -2.0375
16248TIP3   OH270234   1.307   2.588  15.980 -0.6198  1.2060 -0.1428
16248TIP3    H170235   1.222   2.631  15.981 -1.8268 -1.0758  2.0966
16248TIP3    H270236   1.288   2.498  15.953  0.7225  0.0976  2.3707
16249TIP3   OH270237   5.390   3.942   2.108 -0.1986 -0.1797 -0.0325
16249TIP3    H170238   5.405   3.853   2.140  0.3677 -0.2296 -0.4268
16249TIP3    H270239   5.411   3.938   2.015 -0.0898  0.3866 -0.0348
16250TIP3   OH270240   0.284   4.503   6.285 -0.1453  0.5780 -0.3317
16250TIP3    H170241   0.277   4.580   6.341 -2.0757 -0.3521  0.7450
16250TIP3    H270242   0.252   4.532   6.199 -1.0078  0.9340  0.1098
16251TIP3   OH270243   6.046   4.713   1.897  0.4037 -0.1573  0.1109
16251TIP3    H170244   6.107   4.654   1.852  0.2199 -2.1645  2.3282
16251TIP3    H270245   5.961   4.672   1.886  0.2820 -0.3857  1.7567
16252TIP3   OH270246   1.233   2.797   2.845  0.6260 -0.0537 -0.7528
16252TIP3    H170247   1.180   2.737   2.898  1.4151 -1.4509 -1.4980
16252TIP3    H270248   1.309   2.817   2.900  0.9843 -0.7674 -0.9682
16253TIP3   OH270249   0.789   2.084  16.164 -0.2648 -0.4487 -0.7603
16253TIP3    H170250   0.794   2.029  16.242 -0.1782  1.3219  0.5116
16253TIP3    H270251   0.880   2.113  16.149 -0.2254 -1.0580 -1.7211
16254TIP3   OH270252   4.198   3.000   1.072 -0.7506 -0.0538  0.3852
16254TIP3    H170253   4.208   3.068   1.006  0.1955 -0.1887  0.3818
16254TIP3    H270254   4.197   2.918   1.022  0.0452 -0.1614  0.5315
16255TIP3   OH270255   6.591   0.688  13.940 -0.3634 -0.4045  0.4932
16255TIP3    H170256   6.641   0.744  13.880 -0.0679 -0.1257  1.0005
16255TIP3    H270257   6.553   0.621  13.883  1.8425 -1.5317  0.2507
16256TIP3   OH270258   1.323   3.449   2.987 -0.4803 -0.2670 -0.0077
16256TIP3    H170259   1.405   3.489   2.957 -1.0641 -0.5708 -2.0235
16256TIP3    H270260   1.316   3.367   2.938 -0.3165 -1.9283  2.6250
16257TIP3   OH270261   2.264   2.701   4.681  0.7387  0.6695  0.1306
16257TIP3    H170262   2.229   2.621   4.719  0.8862  1.2482  1.5198
16257TIP3    H270263   2.269   2.763   4.754  0.8167  1.8850 -0.8750
16258TIP3   OH270264   5.825   3.929   4.186  0.7339  0.0164  0.0026
16258TIP3    H170265   5.772   3.924   4.266 -0.4774  0.4767 -0.7571
16258TIP3    H270266   5.876   4.009   4.196  0.3187  0.2646  0.1524
16259TIP3   OH270267   2.672   2.763   6.336 -0.1496  0.4240  0.1093
16259TIP3    H170268   2.725   2.835   6.369 -0.5919  0.5371  0.5870
16259TIP3    H270269   2.712   2.684   6.373  0.7056  0.3727 -0.9141
16260TIP3   OH270270   5.459   6.723  15.882  0.5076 -0.4094 -0.0506
16260TIP3    H170271   5.374   6.685  15.905  0.6271 -0.6953 -0.0749
16260TIP3    H270272   5.487   6.770  15.960  1.0487 -1.6172  0.4996
16261TIP3   OH270273   5.618   0.587  14.223  0.0282 -0.0329 -0.3002
16261TIP3    H170274   5.565   0.528  14.276  0.8316 -0.3963  0.0989
16261TIP3    H270275   5.630   0.540  14.140  3.6663 -2.0414  1.2637
16262TIP3   OH270276   4.664   1.544   4.557  0.1139 -0.2584 -0.2459
16262TIP3    H170277   4.617   1.516   4.636  1.3618  1.0908  1.0106
16262TIP3    H270278   4.638   1.481   4.490 -1.2393 -1.2315  1.1550
16263TIP3   OH270279   0.549   3.055   1.950  0.1978  0.4468 -0.1192
16263TIP3    H170280   0.583   3.071   2.039 -2.7185  0.3522  1.0833
16263TIP3    H270281   0.535   3.143   1.915 -1.0065  0.5217  0.5054
16264TIP3   OH270282   1.295   0.075   1.266 -0.3814  0.1518  0.2156
16264TIP3    H170283   1.246   0.006   1.223 -0.2160  0.2181 -0.0818
16264TIP3    H270284   1.244   0.154   1.250  0.0643  0.3014 -0.5098
16265TIP3   OH270285   1.944   1.738  12.334  0.8898 -0.1466  0.6876
16265TIP3    H170286   1.986   1.677  12.273  1.7116  0.8452  0.2526
16265TIP3    H270287   2.015   1.765  12.393  0.2979 -0.3990  1.5231
16266TIP3   OH270288   5.554   6.553  11.066 -0.4109  0.8546 -0.0031
16266TIP3    H170289   5.596   6.624  11.016  1.3179 -0.3684 -0.3406
16266TIP3    H270290   5.464   6.583  11.079  0.2263  3.0122 -0.3263
16267TIP3   OH270291   2.093   3.146  14.617  0.5743  0.1142  0.1748
16267TIP3    H170292   2.113   3.214  14.682  0.5029 -0.0001  0.3169
16267TIP3    H270293   1.998   3.146  14.611  0.6402  1.5983 -1.5052
16268TIP3   OH270294   3.980   0.097  13.761  0.5720 -0.2537 -0.2969
16268TIP3    H170295   3.940   0.041  13.828 -0.0179 -0.0282 -0.4559
16268TIP3    H270296   3.924   0.174  13.759  0.6140 -0.2436 -1.0204
16269TIP3   OH270297   6.078   2.814  11.811 -0.6292 -0.1798 -0.3350
16269TIP3    H170298   6.015   2.746  11.834 -1.0407  0.3003 -0.0238
16269TIP3    H270299   6.128   2.829  11.891 -0.5120 -0.1448 -0.4154
16270TIP3   OH270300   4.645   4.943  12.689  0.2965 -0.7467  0.1099
16270TIP3    H170301   4.700   4.917  12.615 -0.2770  0.9659 -0.9461
16270TIP3    H270302   4.588   4.868  12.704  1.1084 -1.4987 -0.5141
16271TIP3   OH270303   1.250   3.663   4.114  0.0022  0.1568  0.0150
16271TIP3    H170304   1.235   3.699   4.201  0.2762 -2.1288  1.0573
16271TIP3    H270305   1.163   3.633   4.085 -0.3509  2.1905 -1.1338
16272TIP3   OH270306   1.666   5.252   4.829 -0.0775  0.6696 -0.2211
16272TIP3    H170307   1.605   5.191   4.787  0.8163  0.4800 -1.2591
16272TIP3    H270308   1.732   5.196   4.870  0.5286  0.9203 -0.8415
16273TIP3   OH270309   2.553   2.955  13.047  0.3052  0.2912  0.4028
16273TIP3    H170310   2.603   2.876  13.065 -0.6223 -0.5691 -0.6436
16273TIP3    H270311   2.544   2.999  13.132 -0.5429 -1.5689  1.3082
16274TIP3   OH270312   4.194   4.271   1.413  0.2342  0.0572 -0.3958
16274TIP3    H170313   4.132   4.258   1.341 -0.8326  1.3639  0.2488
16274TIP3    H270314   4.204   4.185   1.453  0.4292 -0.5727 -1.7754
16275TIP3   OH270315   1.069   6.091  15.175  0.6816  0.1857 -0.3053
16275TIP3    H170316   1.071   6.118  15.267 -0.4546 -1.4199  0.1933
16275TIP3    H270317   1.149   6.040  15.163  1.1714  0.9667 -0.3947
16276TIP3   OH270318   1.176   3.799   0.087 -0.4641  0.1409  0.8271
16276TIP3    H170319   1.137   3.854   0.155  0.3073  0.1990  1.2315
16276TIP3    H270320   1.185   3.856   0.011  1.2935  0.8648  1.5747
16277TIP3   OH270321   5.207   1.455  15.753 -0.4004 -0.0634 -0.3071
16277TIP3    H170322   5.234   1.388  15.690 -0.1557  0.2252 -0.5099
16277TIP3    H270323   5.289   1.499  15.777 -0.3412 -0.8364  0.9848
16278TIP3   OH270324   0.431   6.379   0.349 -0.0773 -0.0641 -0.6164
16278TIP3    H170325   0.468   6.462   0.377  0.5274 -0.7014  0.5080
16278TIP3    H270326   0.365   6.358   0.415  0.6068 -1.0514 -0.2211
16279TIP3   OH270327   4.131   0.958  14.595 -0.0224  0.3646  0.4720
16279TIP3    H170328   4.220   0.936  14.566 -0.2293 -1.4273  1.1525
16279TIP3    H270329   4.090   0.997  14.518  0.8530 -0.2814 -0.3383
16280TIP3   OH270330   1.714   3.219   2.134 -0.4924  0.1134 -0.1652
16280TIP3    H170331   1.770   3.242   2.059 -0.5760 -1.5610 -0.7569
16280TIP3    H270332   1.773   3.177   2.196 -0.7690 -0.1571 -0.0830
16281TIP3   OH270333   3.862   2.894  16.716  0.3226 -0.5201  0.1409
16281TIP3    H170334   3.806   2.923  16.788  0.5366  0.1992  0.0137
16281TIP3    H270335   3.837   2.802  16.703 -1.9660  0.2055 -0.9631
16282TIP3   OH270336   0.698   4.612  14.978  0.1219  0.3458  0.1216
16282TIP3    H170337   0.687   4.525  14.940  0.2690  0.5247 -0.3356
16282TIP3    H270338   0.792   4.625  14.983  0.1001  0.9190 -0.8447
16283TIP3   OH270339   2.034   2.411  12.120  0.7101  0.1911 -0.3208
16283TIP3    H170340   1.968   2.480  12.107 -0.0444 -0.4771 -0.0538
16283TIP3    H270341   2.049   2.376  12.033 -0.1893 -0.4714 -0.2197
16284TIP3   OH270342   4.843   0.777  15.423  0.3670 -0.4678  0.0397
16284TIP3    H170343   4.824   0.801  15.332  1.2469  0.5023  0.1114
16284TIP3    H270344   4.760   0.794  15.469 -0.1741 -1.2452 -0.6221
16285TIP3   OH270345   4.436   2.981  15.829 -0.2484 -0.0731 -0.2822
16285TIP3    H170346   4.527   2.986  15.802 -0.3289  1.1280 -0.3364
16285TIP3    H270347   4.399   2.912  15.773  0.7148 -0.8908  0.0638
16286TIP3   OH270348   1.546   6.088  10.688  0.2908  0.4499 -0.3439
16286TIP3    H170349   1.506   6.070  10.773  0.3407 -0.1630 -0.4472
16286TIP3    H270350   1.509   6.022  10.630  0.1980  0.9179 -0.8172
16287TIP3   OH270351   6.500   2.631   5.869  0.2489 -1.1087  0.0931
16287TIP3    H170352   6.412   2.594   5.869  0.3972 -1.5824  2.2124
16287TIP3    H270353   6.488   2.722   5.895  0.3101 -0.9655 -0.3842
16288TIP3   OH270354   6.078   6.704   3.772  0.3392  0.1105  0.1973
16288TIP3    H170355   6.152   6.751   3.734  0.3544 -0.6108 -0.6875
16288TIP3    H270356   6.089   6.713   3.866  0.6918  1.3410  0.0438
16289TIP3   OH270357   5.784   4.803  16.984  0.6711  0.3341 -0.2847
16289TIP3    H170358   5.859   4.862  17.000  0.7909 -0.2002  1.2383
16289TIP3    H270359   5.811   4.750  16.909  1.6748  0.3923  0.0218
16290TIP3   OH270360   5.826   0.834   1.952 -0.3695 -0.3858  0.5126
16290TIP3    H170361   5.808   0.924   1.927  0.0543 -0.6645 -0.8222
16290TIP3    H270362   5.914   0.816   1.917 -0.8674 -1.6400 -0.1195
16291TIP3   OH270363   6.474   3.486  11.188 -0.1219  0.2283  0.0693
16291TIP3    H170364   6.556   3.511  11.145  0.1094  1.2204  1.0407
16291TIP3    H270365   6.405   3.520  11.131  0.1874  2.5727  1.0345
16292TIP3   OH270366   5.933   1.943   5.465 -0.0642  0.2493 -0.1042
16292TIP3    H170367   6.012   1.952   5.519  1.2106  0.1585 -1.9071
16292TIP3    H270368   5.913   2.033   5.438 -1.0481  0.3668  0.9768
16293TIP3   OH270369   1.005   5.381  16.925  0.3363  0.4654  0.4763
16293TIP3    H170370   0.917   5.388  16.962  0.5471  3.1267  0.5606
16293TIP3    H270371   1.061   5.425  16.988  1.6220 -0.4705  0.0060
16294TIP3   OH270372   4.075   3.840   2.890 -0.6936  0.0197  0.7197
16294TIP3    H170373   4.017   3.908   2.856 -0.6508 -0.1469  0.3123
16294TIP3    H270374   4.046   3.760   2.846 -0.2579 -0.0929  0.6395
16295TIP3   OH270375   0.414   2.374  13.556  0.2635  0.1783  0.2062
16295TIP3    H170376   0.391   2.460  13.521 -0.4789  0.0558  0.3830
16295TIP3    H270377   0.470   2.393  13.631 -1.4276  0.5950  1.4067
16296TIP3   OH270378   5.613   0.908   1.333 -0.0588 -0.1216 -0.1232
16296TIP3    H170379   5.607   0.894   1.238 -2.4137 -0.1350 -0.0070
16296TIP3    H270380   5.523   0.896   1.364  0.5971  0.4317  2.0434
16297TIP3   OH270381   3.489   1.752   2.991 -0.3448 -0.5432 -0.1952
16297TIP3    H170382   3.412   1.712   2.951  1.4745 -2.0348 -2.3072
16297TIP3    H270383   3.563   1.699   2.959  1.6989  1.7966  0.5354
16298TIP3   OH270384   2.486   2.015   2.461  0.0155 -0.1107  0.3666
16298TIP3    H170385   2.542   2.092   2.469  1.4668 -1.3011  2.1662
16298TIP3    H270386   2.496   1.970   2.545 -0.5935 -2.3903 -0.7475
16299TIP3   OH270387   1.118   5.541  13.437 -0.4537 -0.6777  0.5476
16299TIP3    H170388   1.153   5.593  13.510 -1.3132  0.4042  0.1972
16299TIP3    H270389   1.191   5.535  13.375 -0.2555 -0.1140  0.7194
16300TIP3   OH270390   5.536   4.531   1.417  0.2510 -0.1941  0.0517
16300TIP3    H170391   5.501   4.472   1.483  0.1265 -0.6253 -0.3971
16300TIP3    H270392   5.462   4.550   1.359  0.3316  0.2695  0.0945
16301TIP3   OH270393   4.730   5.878   2.787 -0.6694  0.3578 -0.1531
16301TIP3    H170394   4.684   5.806   2.744  0.4857 -0.3773 -0.1734
16301TIP3    H270395   4.661   5.933   2.823 -1.5596 -0.6966 -0.2459
16302TIP3   OH270396   1.217   0.186  16.490  0.0217 -0.0032  0.0374
16302TIP3    H170397   1.259   0.206  16.407 -1.2637 -0.1628 -0.6636
16302TIP3    H270398   1.241   0.095  16.508  2.7722  0.9519  1.3541
16303TIP3   OH270399   0.315   5.709   1.573 -0.4594 -0.4194  0.1745
16303TIP3    H170400   0.229   5.700   1.615  0.4477 -1.0984  1.9475
16303TIP3    H270401   0.352   5.621   1.575  1.2675  0.2948  1.6691
16304TIP3   OH270402   4.196   5.668  12.194 -0.4769 -0.2014  0.4109
16304TIP3    H170403   4.189   5.716  12.277 -1.2230  0.1237  0.1566
16304TIP3    H270404   4.113   5.622  12.186 -0.1978 -0.6490  0.0983
16305TIP3   OH270405   6.506   2.394   1.570 -0.1720 -0.2665 -0.2054
16305TIP3    H170406   6.564   2.390   1.645  2.3465 -1.5728 -2.1402
16305TIP3    H270407   6.418   2.396   1.607  1.0668  0.9792  2.7700
16306TIP3   OH270408   5.953   4.588  15.548  0.0199 -0.0319 -0.2848
16306TIP3    H170409   5.908   4.545  15.621  1.0691  0.7640  0.8450
16306TIP3    H270410   5.899   4.664  15.528  0.8117  0.9021  1.0459
16307TIP3   OH270411   0.648   3.732  12.845  0.3919 -0.0712  0.2114
16307TIP3    H170412   0.590   3.657  12.851  1.1726 -0.7230 -0.2099
16307TIP3    H270413   0.657   3.764  12.935 -0.6417  0.0600  0.2697
16308TIP3   OH270414   6.007   6.062  15.736 -0.0396 -0.2156  0.3953
16308TIP3    H170415   6.037   6.010  15.810  0.6693  0.3331  0.4937
16308TIP3    H270416   5.927   6.104  15.767  0.8550  0.8938  1.2348
16309TIP3   OH270417   0.946   6.600  14.984 -0.3102 -0.0015 -0.5271
16309TIP3    H170418   1.034   6.564  14.976 -0.1712 -0.3452  1.8982
16309TIP3    H270419   0.959   6.683  15.031 -0.9784  1.5296 -2.9852
16310TIP3   OH270420   4.795   3.426  17.085  0.2968  0.3471 -0.5616
16310TIP3    H170421   4.713   3.386  17.111  0.0083 -0.9515 -3.2540
16310TIP3    H270422   4.863   3.368  17.120  0.1550  2.1465  2.8202
16311TIP3   OH270423   0.502   0.281  10.614  0.1689 -0.5129 -0.2905
16311TIP3    H170424   0.572   0.218  10.630  2.4093  2.4529  2.0069
16311TIP3    H270425   0.545   0.356  10.573 -2.1628  0.1963 -1.5259
16312TIP3   OH270426   2.348   4.250   4.432  0.0056 -0.4019 -0.7961
16312TIP3    H170427   2.321   4.159   4.441 -0.9126 -0.1020 -0.4506
16312TIP3    H270428   2.415   4.249   4.363 -0.7673 -1.1817 -1.5398
16313TIP3   OH270429   0.824   4.104   0.541  0.2035 -0.1277 -0.5489
16313TIP3    H170430   0.779   4.094   0.457  0.8955 -2.2968 -0.6887
16313TIP3    H270431   0.914   4.074   0.523  0.1509 -1.3565  1.1453
16314TIP3   OH270432   6.513   3.733   6.689 -0.3246  0.2268  0.2661
16314TIP3    H170433   6.465   3.687   6.757 -1.0971 -0.4224 -0.6947
16314TIP3    H270434   6.481   3.823   6.694  0.2432  0.3794  1.3020
16315TIP3   OH270435   1.457   2.071   0.553  0.1329  0.6484  0.1009
16315TIP3    H170436   1.536   2.048   0.504  0.1874  0.1083  0.4330
16315TIP3    H270437   1.438   1.993   0.606  0.3043  1.3590  1.2313
16316TIP3   OH270438   1.292   6.229  14.720  0.0005 -0.5883  0.2820
16316TIP3    H170439   1.339   6.311  14.706 -0.9663 -0.2308 -0.8913
16316TIP3    H270440   1.253   6.238  14.807 -0.2353  0.2640  0.0861
16317TIP3   OH270441   4.444   6.734  13.564 -0.4952 -0.2332  0.1786
16317TIP3    H170442   4.409   6.646  13.556 -0.2024 -0.3009 -0.4668
16317TIP3    H270443   4.390   6.787  13.504  0.4646 -0.3364 -0.8022
16318TIP3   OH270444   4.987   4.830  13.146 -0.6758  0.2978  0.1864
16318TIP3    H170445   4.940   4.862  13.069 -1.7526  0.8496  1.0564
16318TIP3    H270446   5.019   4.909  13.190  0.5693 -0.0481 -0.0773
16319TIP3   OH270447   5.783   2.812   4.317  0.0583  0.1371  0.2842
16319TIP3    H170448   5.725   2.743   4.350  0.2021 -0.4566 -0.6887
16319TIP3    H270449   5.830   2.843   4.394 -0.5978 -0.2974  0.8599
16320TIP3   OH270450   0.300   6.178  15.016  0.3298  0.6255  0.1181
16320TIP3    H170451   0.300   6.085  15.038 -1.9662  0.9332  1.5943
16320TIP3    H270452   0.391   6.199  14.998  0.9158 -1.8226  0.1273
16321TIP3   OH270453   4.412   0.706  16.890 -1.0223  0.5969 -0.0540
16321TIP3    H170454   4.384   0.774  16.829 -1.9941  0.3908  0.1386
16321TIP3    H270455   4.353   0.717  16.965  0.2303  0.9265  0.8943
16322TIP3   OH270456   4.540   4.927  11.902  0.5012  0.0178 -0.0743
16322TIP3    H170457   4.444   4.925  11.909  0.4264 -1.4499 -1.1958
16322TIP3    H270458   4.557   4.967  11.817  0.8760 -0.1639 -0.0849
16323TIP3   OH270459   5.262   4.927  15.339 -0.3296  0.4462  0.4925
16323TIP3    H170460   5.248   4.995  15.405 -0.6165  1.4489 -0.5843
16323TIP3    H270461   5.355   4.931  15.320 -0.2332  0.1066  0.8879
16324TIP3   OH270462   0.765   5.449  14.120 -0.5099  0.2019 -0.0867
16324TIP3    H170463   0.819   5.520  14.155  0.1639 -0.1870 -0.3177
16324TIP3    H270464   0.770   5.381  14.187 -0.3226 -0.0169 -0.3197
16325TIP3   OH270465   4.113   2.965   2.671 -0.1425 -0.4407 -0.0436
16325TIP3    H170466   4.096   3.057   2.691 -0.3426 -0.4139 -0.3289
16325TIP3    H270467   4.185   2.967   2.607  1.2813 -0.5753  1.5360
16326TIP3   OH270468   0.979   5.163  16.753 -0.0276 -0.2950  0.1785
16326TIP3    H170469   1.059   5.158  16.700 -1.3158 -0.8007 -1.7900
16326TIP3    H270470   0.993   5.238  16.810  0.5084  1.7141 -2.4808
16327TIP3   OH270471   5.105   1.447  13.176 -0.2090  0.6092 -0.2617
16327TIP3    H170472   5.100   1.377  13.242  2.2116 -0.6151 -1.3095
16327TIP3    H270473   5.068   1.408  13.097  1.2137  0.4651 -0.8670
16328TIP3   OH270474   6.689   0.309  15.788 -0.2850 -0.0522 -0.1351
16328TIP3    H170475   6.730   0.233  15.746 -1.6058 -1.0273  0.3162
16328TIP3    H270476   6.596   0.300  15.769 -0.5089  1.2499  0.2687
16329TIP3   OH270477   0.424   2.347  10.751 -0.3711 -0.3085 -0.2803
16329TIP3    H170478   0.507   2.308  10.778  0.1509  0.0553 -1.3553
16329TIP3    H270479   0.410   2.315  10.662 -2.0125 -1.3838  0.3295
16330TIP3   OH270480   4.892   5.717   4.730  0.6803  0.1219 -0.0724
16330TIP3    H170481   4.835   5.770   4.674  0.1956  0.6277  0.8765
16330TIP3    H270482   4.868   5.627   4.711  1.1186  0.2649 -1.2969
16331TIP3   OH270483   6.671   6.488  12.360  0.6450  0.0781  0.0963
16331TIP3    H170484   6.751   6.444  12.332  0.9361  1.7785 -1.8654
16331TIP3    H270485   6.656   6.556  12.294 -2.5534 -0.3564  0.2918
16332TIP3   OH270486   0.064   5.356   1.800 -0.3355  0.4040  0.7992
16332TIP3    H170487  -0.012   5.305   1.772  0.7192 -0.4935 -0.5221
16332TIP3    H270488   0.082   5.415   1.727  1.0821 -0.3939  0.4706
16333TIP3   OH270489   4.899   2.603   1.629 -0.1621  0.3147 -0.4709
16333TIP3    H170490   4.934   2.629   1.543  1.8236 -0.3855  0.0916
16333TIP3    H270491   4.813   2.567   1.610 -0.9929  2.8795 -1.8219
16334TIP3   OH270492   3.353   1.973   0.915  0.1412  0.1683  0.1364
16334TIP3    H170493   3.283   1.929   0.867  1.0734 -3.6477  2.1355
16334TIP3    H270494   3.433   1.949   0.868  0.6650 -0.3918  1.2864
16335TIP3   OH270495   6.112   2.354   1.418  0.2372 -0.0930 -0.6108
16335TIP3    H170496   6.170   2.365   1.493  0.7038  0.2358 -1.0175
16335TIP3    H270497   6.129   2.265   1.387  0.8332  0.1421 -0.9799
16336TIP3   OH270498   1.109   6.796  13.100  0.2165  0.1164 -0.4732
16336TIP3    H170499   1.031   6.771  13.150 -0.3601  2.1486 -0.3051
16336TIP3    H270500   1.177   6.736  13.130 -0.5978  0.0801  1.3677
16337TIP3   OH270501   2.361   1.593   3.761 -0.2200  0.2784  0.4656
16337TIP3    H170502   2.361   1.656   3.833  0.0294  0.2077  0.5292
16337TIP3    H270503   2.307   1.633   3.694  1.7284  1.5771 -0.3759
16338TIP3   OH270504   3.230   4.138   2.302 -0.6024 -0.3743 -0.5459
16338TIP3    H170505   3.229   4.105   2.212  3.0915  1.9563 -1.5731
16338TIP3    H270506   3.313   4.106   2.338  0.7305  3.4857  0.0573
16339TIP3   OH270507   1.129   6.703  13.906  0.3817  0.4096 -0.5173
16339TIP3    H170508   1.175   6.621  13.891  1.0284  0.2510  2.1191
16339TIP3    H270509   1.042   6.677  13.936  0.8382  0.6701  1.0544
16340TIP3   OH270510   3.612   3.181   1.782 -0.2433 -0.1422 -0.5538
16340TIP3    H170511   3.577   3.121   1.848  0.6277 -0.8035 -0.6828
16340TIP3    H270512   3.648   3.254   1.832 -0.0555 -0.3897 -0.3302
16341TIP3   OH270513   4.669   2.284   6.618  0.1569  0.1492  0.2060
16341TIP3    H170514   4.734   2.277   6.548  0.0071 -0.0082  0.0825
16341TIP3    H270515   4.645   2.377   6.619 -1.6526 -0.2694 -1.6011
16342TIP3   OH270516   4.827   4.083   3.948  0.4129  0.4139  0.3351
16342TIP3    H170517   4.837   4.178   3.955 -0.3041  0.4122  1.3666
16342TIP3    H270518   4.896   4.057   3.887 -0.1127  1.7397 -0.8543
16343TIP3   OH270519   2.446   1.179   0.265  0.0452 -0.0391 -0.0162
16343TIP3    H170520   2.368   1.184   0.209 -0.1565  1.7273  0.3925
16343TIP3    H270521   2.514   1.222   0.215  0.2168  0.3165  0.5177
16344TIP3   OH270522   2.778   6.293  13.965  0.6473 -0.3136 -0.9280
16344TIP3    H170523   2.813   6.351  14.032  1.5765 -1.0634 -0.7510
16344TIP3    H270524   2.683   6.295  13.978  0.7382  0.4823 -0.3716
16345TIP3   OH270525   5.357   4.644   6.324 -0.2956  0.6143 -0.0237
16345TIP3    H170526   5.347   4.567   6.269  0.9715  1.2666 -1.2136
16345TIP3    H270527   5.450   4.668   6.316 -0.2658  1.1974  1.7703
16346TIP3   OH270528   0.205   4.791  12.043  0.6386  0.0813  0.2211
16346TIP3    H170529   0.190   4.776  11.949 -0.2656  0.4269  0.3041
16346TIP3    H270530   0.123   4.765  12.084  0.2240  2.0858  0.7046
16347TIP3   OH270531   4.051   1.621  15.191 -0.4532  0.2662  0.3214
16347TIP3    H170532   4.026   1.551  15.131 -1.9021  0.3164  0.8336
16347TIP3    H270533   4.122   1.667  15.147  0.5967 -1.6076  0.0476
16348TIP3   OH270534   1.047   5.943  14.910 -0.1549  0.1416 -0.1835
16348TIP3    H170535   1.073   5.902  14.827 -2.1234 -0.4475 -0.5396
16348TIP3    H270536   1.115   5.917  14.971  0.6631 -0.4651 -1.3223
16349TIP3   OH270537   1.903   5.065   3.424 -0.2727  0.3541 -0.1523
16349TIP3    H170538   1.829   5.122   3.446  0.5135  1.2950  0.1034
16349TIP3    H270539   1.977   5.125   3.414  0.8943 -0.7782  1.5249
16350TIP3   OH270540   6.687   6.196  14.440 -0.1870  0.2273  0.1182
16350TIP3    H170541   6.650   6.260  14.501 -0.2513  0.7287 -0.4331
16350TIP3    H270542   6.761   6.241  14.401 -0.6527  0.2237 -0.7917
16351TIP3   OH270543   0.130   5.932   2.558  0.0363  0.1347  0.6333
16351TIP3    H170544   0.113   6.016   2.514  0.8929 -0.4090 -0.7466
16351TIP3    H270545   0.114   5.866   2.491 -2.9289 -0.9708  2.3700
16352TIP3   OH270546   4.815   3.936   4.785 -0.2725 -0.7246 -0.5191
16352TIP3    H170547   4.824   3.847   4.749 -0.7274 -0.1395 -2.1234
16352TIP3    H270548   4.904   3.962   4.807 -0.0057 -1.1690 -1.0592
16353TIP3   OH270549   3.236   4.181   1.736 -0.3145  0.1115  0.0547
16353TIP3    H170550   3.211   4.202   1.646 -1.4873 -0.7960  0.1579
16353TIP3    H270551   3.216   4.088   1.745  3.3621 -0.7398  0.0659
16354TIP3   OH270552   4.100   2.599   4.554 -0.4895 -0.2264  0.5368
16354TIP3    H170553   4.149   2.629   4.631  0.3054 -0.2190  0.0364
16354TIP3    H270554   4.008   2.616   4.575 -0.2050  0.5805  1.1321
16355TIP3   OH270555   5.037   1.459   3.554  0.4186  0.3247 -0.1032
16355TIP3    H170556   5.106   1.526   3.547 -0.5964  1.3631 -0.3221
16355TIP3    H270557   4.957   1.509   3.569 -0.3649 -0.8533 -0.3217
16356TIP3   OH270558   5.023   5.852   0.027  0.1491  0.0977  0.3959
16356TIP3    H170559   4.985   5.937   0.045 -1.3985 -0.1569 -1.5241
16356TIP3    H270560   5.076   5.865  -0.052 -0.9363 -0.9448 -0.5141
16357TIP3   OH270561   1.340   3.303  13.423 -0.2166  0.0564 -0.1594
16357TIP3    H170562   1.346   3.208  13.406 -0.4415  0.0567 -0.2577
16357TIP3    H270563   1.268   3.311  13.486  1.1165 -0.0054  1.3918
16358TIP3   OH270564   4.351   6.094  13.832 -0.2557  0.8483  0.0282
16358TIP3    H170565   4.341   6.045  13.914 -1.6750 -2.2971 -1.9013
16358TIP3    H270566   4.415   6.162  13.852  0.2589 -0.5226  3.4389
16359TIP3   OH270567   6.587   2.005  15.461 -0.0750 -0.0413  0.6131
16359TIP3    H170568   6.548   1.960  15.386 -0.3035 -0.1912  0.8201
16359TIP3    H270569   6.517   2.009  15.526  0.3363 -0.5920  1.1011
16360TIP3   OH270570   3.457   2.924  11.660 -0.0776  0.0496 -0.0026
16360TIP3    H170571   3.458   3.019  11.648  0.6852  0.2446  1.4804
16360TIP3    H270572   3.390   2.909  11.727 -0.6652 -0.5249 -0.7165
16361TIP3   OH270573   0.737   4.903  15.337  0.0699  0.7247  0.1390
16361TIP3    H170574   0.736   4.809  15.354  0.4885  0.2274 -2.3164
16361TIP3    H270575   0.660   4.937  15.383 -2.0187 -1.3866 -1.6312
16362TIP3   OH270576   0.434   1.032  12.571 -0.4332  0.2742 -0.2268
16362TIP3    H170577   0.443   0.938  12.590  0.1166  0.1251 -1.1831
16362TIP3    H270578   0.501   1.049  12.506  0.0673  1.5377  0.6068
16363TIP3   OH270579   4.088   1.182  11.954  0.1139 -0.0703 -0.5583
16363TIP3    H170580   4.038   1.239  12.012  0.4938 -1.6966  1.4459
16363TIP3    H270581   4.040   1.100  11.953  1.1036 -0.6586 -1.0733
16364TIP3   OH270582   2.961   6.117  12.792  0.8018 -0.2975  0.0374
16364TIP3    H170583   3.029   6.111  12.859  1.7015  2.0418 -0.6387
16364TIP3    H270584   2.920   6.202  12.806  0.0313 -0.3977 -1.4839
16365TIP3   OH270585   5.993   1.492   3.571  0.4564 -0.4360 -0.0786
16365TIP3    H170586   6.011   1.437   3.495 -0.0880  0.7179 -1.0551
16365TIP3    H270587   6.023   1.579   3.545 -0.8057  0.2109  0.6034
16366TIP3   OH270588   0.336   5.674  16.306  0.1827  0.3547 -0.2856
16366TIP3    H170589   0.393   5.715  16.371  0.3261  0.2831 -0.3658
16366TIP3    H270590   0.391   5.608  16.264 -0.3221 -0.6025  0.5208
16367TIP3   OH270591   4.063   0.048  12.913  0.3634  0.3867  0.6952
16367TIP3    H170592   4.144   0.067  12.961  0.0394  0.6851  1.1272
16367TIP3    H270593   4.071   0.098  12.831  1.6969 -1.4872 -0.3548
16368TIP3   OH270594   5.587   0.828   2.074  0.6338  0.0126 -0.8358
16368TIP3    H170595   5.663   0.837   2.016  0.3717 -2.2580 -1.5921
16368TIP3    H270596   5.569   0.734   2.074 -1.4993  0.4103  0.2173
16369TIP3   OH270597   2.858   3.559  12.829 -0.6442 -0.1054 -0.2689
16369TIP3    H170598   2.899   3.478  12.859 -0.2909  0.8358  1.9687
16369TIP3    H270599   2.795   3.532  12.762  0.8938 -1.9865 -0.9827
16370TIP3   OH270600   4.894   5.444  14.323 -0.3302 -0.3674 -0.0005
16370TIP3    H170601   4.861   5.357  14.302 -0.9711 -0.0844 -0.1588
16370TIP3    H270602   4.987   5.430  14.340 -0.2743 -0.9580 -0.7689
16371TIP3   OH270603   1.148   0.059   4.339  0.1147  0.1313 -0.3161
16371TIP3    H170604   1.198   0.139   4.351  1.3015 -0.4500 -1.2399
16371TIP3    H270605   1.174   0.027   4.252  1.1147 -2.2579  0.8052
16372TIP3   OH270606   4.790   2.245   0.949 -0.1104 -0.0333  0.0278
16372TIP3    H170607   4.761   2.171   0.897 -0.2983  0.4252 -0.5286
16372TIP3    H270608   4.886   2.245   0.941 -0.2518  1.2752 -2.0573
16373TIP3   OH270609   5.817   2.094  14.477  0.0280  0.1760 -0.1866
16373TIP3    H170610   5.885   2.160  14.488  0.0965 -0.1578  1.5600
16373TIP3    H270611   5.737   2.144  14.460 -0.0295  0.7749  1.6834
16374TIP3   OH270612   1.348   6.768  13.244  0.6311  0.3333  0.1001
16374TIP3    H170613   1.442   6.779  13.237  0.8019 -1.4989 -0.8092
16374TIP3    H270614   1.316   6.851  13.281  2.4781  1.2682 -0.3695
16375TIP3   OH270615   4.541   3.083   0.534 -0.5339  0.2153 -0.3292
16375TIP3    H170616   4.488   3.003   0.532 -1.0150  0.5614 -2.4224
16375TIP3    H270617   4.600   3.070   0.608  0.3127 -2.6966 -1.4236
16376TIP3   OH270618   4.451   3.653   6.375  0.0736 -0.1615 -0.1984
16376TIP3    H170619   4.415   3.587   6.316  0.8654  0.6272 -1.5970
16376TIP3    H270620   4.500   3.602   6.440  1.4988 -0.9288 -1.8338
16377TIP3   OH270621   6.149   3.269   3.684  0.4707 -0.1263 -0.2496
16377TIP3    H170622   6.173   3.314   3.765  1.5344 -2.1528  0.6007
16377TIP3    H270623   6.056   3.288   3.672  0.4389  0.6377  1.1480
16378TIP3   OH270624   2.178   6.044   6.425  0.6241  0.1917  0.2968
16378TIP3    H170625   2.206   6.005   6.508  0.1693 -2.0322 -0.5643
16378TIP3    H270626   2.123   5.977   6.385  0.5096  1.4146 -1.6204
16379TIP3   OH270627   5.450   6.189   5.173 -0.0629 -0.1501  0.2481
16379TIP3    H170628   5.373   6.231   5.212  0.3694  0.0978  0.8360
16379TIP3    H270629   5.490   6.141   5.245  1.3497  1.1881  0.3835
16380TIP3   OH270630   0.713   2.645   0.673  0.6009 -0.1652  0.2825
16380TIP3    H170631   0.794   2.601   0.648  0.7970  0.4041 -0.0734
16380TIP3    H270632   0.643   2.586   0.642  0.8678 -0.6766  0.6330
16381TIP3   OH270633   1.420   5.499   4.664  0.3509  0.2596  0.1271
16381TIP3    H170634   1.424   5.591   4.688 -0.1408 -0.1141  1.7328
16381TIP3    H270635   1.385   5.455   4.742  0.1778 -1.2260 -0.7531
16382TIP3   OH270636   2.218   5.752   3.199  0.3146 -0.0395 -0.0460
16382TIP3    H170637   2.165   5.799   3.135 -1.2090 -0.5906  0.7851
16382TIP3    H270638   2.304   5.793   3.195 -0.4184  1.4196 -0.8252
16383TIP3   OH270639   3.940   5.434   0.673 -0.3800 -0.8415 -0.9998
16383TIP3    H170640   3.982   5.495   0.734 -1.5190 -0.7213 -0.3281
16383TIP3    H270641   3.929   5.485   0.592  0.3962 -0.7521 -1.0547
16384TIP3   OH270642   1.575   1.099  11.594  0.2533  0.8532 -0.0742
16384TIP3    H170643   1.561   1.192  11.615  0.6163  0.1930  3.4547
16384TIP3    H270644   1.561   1.054  11.677  0.7031 -2.2128 -1.6028
16385TIP3   OH270645   0.512   5.788   3.251  0.7463  0.0987  0.2291
16385TIP3    H170646   0.585   5.820   3.198  0.1354  0.5758 -0.3389
16385TIP3    H270647   0.550   5.773   3.337  1.0567  2.4183  0.5384
16386TIP3   OH270648   3.099   4.926  11.863  0.1173  0.5688  0.1739
16386TIP3    H170649   3.137   4.838  11.861  2.2659  1.3680  2.8215
16386TIP3    H270650   3.148   4.974  11.796 -0.3517  0.0484 -0.5551
16387TIP3   OH270651   0.217   2.863   1.787 -0.1301  0.3101 -0.0174
16387TIP3    H170652   0.135   2.909   1.769  0.3220  0.0145 -3.0895
16387TIP3    H270653   0.191   2.772   1.804 -0.6160  0.7165  1.5125
16388TIP3   OH270654   1.050   1.248  15.208  0.3319 -0.0765 -0.7314
16388TIP3    H170655   1.072   1.228  15.299  0.8876 -0.6095 -0.9816
16388TIP3    H270656   1.011   1.336  15.212 -0.9735 -0.6724  0.2016
16389TIP3   OH270657   4.733   2.658   6.133  0.3290 -0.2246 -0.1768
16389TIP3    H170658   4.719   2.577   6.182 -2.1227 -0.2682 -0.8761
16389TIP3    H270659   4.717   2.728   6.196 -0.2515 -0.2897 -0.2477
16390TIP3   OH270660   6.095   4.139  13.861  0.7334  0.8946  0.0369
16390TIP3    H170661   6.091   4.226  13.902 -1.9939  0.9475 -0.2806
16390TIP3    H270662   6.073   4.155  13.769  1.2072  0.0010 -0.2375
16391TIP3   OH270663   4.454   6.066   1.302  0.3743  0.5996  0.3508
16391TIP3    H170664   4.480   6.115   1.223  1.6708 -0.6812 -0.0470
16391TIP3    H270665   4.370   6.026   1.279  0.8992 -0.0224 -0.4997
16392TIP3   OH270666   5.009   5.052   4.319 -0.1430  0.5576  0.2867
16392TIP3    H170667   4.998   4.958   4.328  2.1480  0.2250 -0.1326
16392TIP3    H270668   4.948   5.090   4.383  0.8871 -1.2755  2.3952
16393TIP3   OH270669   4.873   1.635  14.406 -0.0371  0.2183 -0.2583
16393TIP3    H170670   4.891   1.603  14.318  1.5506 -2.0104  0.8433
16393TIP3    H270671   4.944   1.697  14.424 -0.8532  1.3622 -0.8271
16394TIP3   OH270672   5.353   3.269   2.509 -0.0645 -0.2026  0.1381
16394TIP3    H170673   5.370   3.175   2.499  1.7354  0.1586 -0.2681
16394TIP3    H270674   5.299   3.274   2.588 -0.8038 -1.6343 -0.2494
16395TIP3   OH270675   2.218   1.777   5.445 -0.3205  0.1700  0.5248
16395TIP3    H170676   2.146   1.728   5.484 -0.5886  0.8879  0.9330
16395TIP3    H270677   2.178   1.857   5.411 -0.1864 -0.6726 -1.7016
16396TIP3   OH270678   6.451   5.751   4.918  0.0513 -0.2246 -0.1340
16396TIP3    H170679   6.516   5.797   4.864  1.1551 -1.9525 -0.3298
16396TIP3    H270680   6.425   5.676   4.865 -1.5103 -0.0134  0.3064
16397TIP3   OH270681   0.795   3.457   0.971 -0.4842  0.0628 -0.1692
16397TIP3    H170682   0.844   3.402   1.032 -2.7479 -1.1058  0.6467
16397TIP3    H270683   0.742   3.514   1.027  0.1253  1.5243 -1.0376
16398TIP3   OH270684   5.651   3.031   0.138  0.2603 -0.0651  0.5254
16398TIP3    H170685   5.594   3.100   0.106 -1.1602 -1.2652  0.4004
16398TIP3    H270686   5.661   3.048   0.231 -3.1923 -1.7829  1.2866
16399TIP3   OH270687   4.010   0.825   1.876  0.3154  0.0296 -0.3209
16399TIP3    H170688   4.082   0.812   1.814  0.7054  2.9828 -0.5516
16399TIP3    H270689   4.021   0.754   1.939  1.9232 -1.0543 -1.7541
16400TIP3   OH270690   3.954   4.151   5.355 -0.2686  0.2617 -1.1777
16400TIP3    H170691   3.888   4.110   5.410  0.6602 -0.9580 -0.9608
16400TIP3    H270692   4.026   4.173   5.415  0.6283 -0.8165 -1.8319
16401TIP3   OH270693   0.628   4.207   1.956 -0.3841 -0.0126 -0.1350
16401TIP3    H170694   0.647   4.300   1.942  0.0392  0.0913  1.0628
16401TIP3    H270695   0.675   4.185   2.037 -0.8017 -1.1714 -0.2021
16402TIP3   OH270696   6.472   5.016  10.863 -0.7140  0.2578 -0.2603
16402TIP3    H170697   6.400   4.962  10.895  0.5990 -1.0083  0.5794
16402TIP3    H270698   6.533   4.954  10.823  0.7729  1.1223  0.6522
16403TIP3   OH270699   0.506   2.578   1.858  0.2458  0.1175  0.4596
16403TIP3    H170700   0.449   2.654   1.849  0.1200  0.0927  1.0891
16403TIP3    H270701   0.570   2.589   1.787 -0.8863 -0.1729 -0.6238
16404TIP3   OH270702   4.900   6.216   1.191  0.8352 -0.0018  0.1079
16404TIP3    H170703   4.978   6.173   1.225 -0.5458 -2.2065  0.5702
16404TIP3    H270704   4.877   6.166   1.112  0.0623  0.8292 -0.2089
16405TIP3   OH270705   5.451   6.074   5.705  0.0111 -0.3353 -0.5599
16405TIP3    H170706   5.375   6.016   5.700 -0.5273  0.4535 -1.6922
16405TIP3    H270707   5.421   6.147   5.759 -0.3075  0.3640 -1.6650
16406TIP3   OH270708   0.867   6.732  12.390 -0.2438 -0.2568 -0.4499
16406TIP3    H170709   0.855   6.761  12.480 -0.2681 -0.8890 -0.2451
16406TIP3    H270710   0.900   6.642  12.398  2.4313  0.6295 -1.0276
16407TIP3   OH270711   0.809   0.000   0.264 -0.1114  0.1562 -0.7618
16407TIP3    H170712   0.840  -0.026   0.351 -0.0214 -0.1339 -0.8794
16407TIP3    H270713   0.725  -0.044   0.255 -0.5165  0.8635 -0.4823
16408TIP3   OH270714   2.583   0.818   5.745 -0.5793  0.2119 -0.3543
16408TIP3    H170715   2.550   0.741   5.699 -0.6343 -0.3673  0.6404
16408TIP3    H270716   2.653   0.784   5.802 -2.0207  0.5353  1.6633
16409TIP3   OH270717   1.904   2.680  12.926  1.0134 -0.1184 -0.2810
16409TIP3    H170718   1.937   2.693  13.015 -1.4867 -0.0986  0.6765
16409TIP3    H270719   1.939   2.755  12.877  0.3552  1.2739  1.2993
16410TIP3   OH270720   0.987   6.006  14.132 -0.1600 -0.0908 -0.0562
16410TIP3    H170721   0.915   5.992  14.071 -1.0726  0.9045  0.7647
16410TIP3    H270722   0.993   5.925  14.182 -1.6258  0.3077  0.7972
16411TIP3   OH270723   3.509   0.261   3.968  0.8305  0.2899  0.2200
16411TIP3    H170724   3.443   0.324   3.939  2.1151  0.9853 -1.2717
16411TIP3    H270725   3.460   0.180   3.982 -0.4895  1.0488  0.0963
16412TIP3   OH270726   5.499   5.544  12.776  1.2357  0.4155  0.4523
16412TIP3    H170727   5.452   5.543  12.859  0.9094 -0.3955  0.2646
16412TIP3    H270728   5.455   5.477  12.723  0.5857  1.8283 -0.8302
16413TIP3   OH270729   2.916   0.940   2.138  0.4886  0.2506 -0.4228
16413TIP3    H170730   2.957   0.953   2.052  0.3719  0.3499 -0.4636
16413TIP3    H270731   2.824   0.922   2.118  0.3063  1.0038 -0.2838
16414TIP3   OH270732   0.605   5.969   1.835 -0.0994 -0.1156  0.1301
16414TIP3    H170733   0.514   5.992   1.856 -0.2418 -0.0481 -0.5580
16414TIP3    H270734   0.630   5.906   1.902  0.1572  1.7343  1.8300
16415TIP3   OH270735   2.561   6.644   3.267 -0.2040  0.1812 -0.2376
16415TIP3    H170736   2.654   6.619   3.266  0.2115  1.7417 -0.9833
16415TIP3    H270737   2.542   6.657   3.360  0.0902 -0.9472 -0.0045
16416TIP3   OH270738   2.106   3.057  12.629 -0.7640  0.0768  0.1672
16416TIP3    H170739   2.039   3.006  12.674 -0.5563 -0.0351  0.3558
16416TIP3    H270740   2.083   3.054  12.537 -1.5253  0.7957  0.3259
16417TIP3   OH270741   0.768   3.055   4.555  0.3568 -0.9969 -0.4408
16417TIP3    H170742   0.861   3.058   4.534  0.7654 -1.1457  1.2429
16417TIP3    H270743   0.762   2.998   4.632 -1.3312 -2.3143 -1.5216
16418TIP3   OH270744   3.792   1.503  14.773  0.0257 -0.0891 -0.1639
16418TIP3    H170745   3.844   1.495  14.853 -0.7841 -0.0089  0.3782
16418TIP3    H270746   3.701   1.511  14.804 -0.7207 -3.8161 -1.1979
16419TIP3   OH270747   5.030   4.588   0.259 -0.5991  0.3070  0.0613
16419TIP3    H170748   5.049   4.681   0.272  0.5373 -0.0401  1.0140
16419TIP3    H270749   5.072   4.544   0.333  0.2107 -1.1118 -1.1886
16420TIP3   OH270750   0.558   1.869  17.271 -0.4106  0.4538  0.2653
16420TIP3    H170751   0.596   1.939  17.218  2.0328  1.0139  2.6596
16420TIP3    H270752   0.510   1.915  17.340 -1.1036 -0.2517  0.2552
16421TIP3   OH270753   4.002   4.043  15.284  0.1617  0.3300  0.0166
16421TIP3    H170754   4.041   4.018  15.368  2.0434  2.2144 -0.2576
16421TIP3    H270755   4.077   4.054  15.225 -0.9695  1.3534 -1.2562
16422TIP3   OH270756   2.002   2.059  14.546 -0.0112 -0.0288  0.6488
16422TIP3    H170757   2.026   2.072  14.637 -0.9940 -0.5143  0.9797
16422TIP3    H270758   2.071   2.003  14.511  0.1150 -0.2259  1.2101
16423TIP3   OH270759   4.403   0.863  13.572  0.1028  0.2607  0.0967
16423TIP3    H170760   4.443   0.776  13.570 -0.1374  0.0445  2.6795
16423TIP3    H270761   4.476   0.922  13.589  0.2324  0.5659 -1.4462
16424TIP3   OH270762   5.485   2.515  13.186 -0.3716 -0.0045 -0.1153
16424TIP3    H170763   5.482   2.463  13.106 -0.5775  0.7386 -0.5889
16424TIP3    H270764   5.529   2.596  13.161  0.5210 -0.1996  0.7708
16425TIP3   OH270765   0.819   4.281  12.239  0.6015  0.4019  0.6905
16425TIP3    H170766   0.745   4.323  12.283  0.7453  1.0797  0.2937
16425TIP3    H270767   0.779   4.214  12.183  0.4079 -0.3602  1.7192
16426TIP3   OH270768   4.596   2.755  10.902  0.0003  0.0478  0.1753
16426TIP3    H170769   4.583   2.692  10.972 -1.0371  0.5252  0.4206
16426TIP3    H270770   4.675   2.804  10.927  0.8181 -1.1456 -0.0278
16427TIP3   OH270771   4.808   3.749   3.934 -0.3862 -0.4768  0.1165
16427TIP3    H170772   4.715   3.736   3.950 -0.6919  1.4864  0.0544
16427TIP3    H270773   4.822   3.721   3.844 -0.7910 -1.3563  0.3240
16428TIP3   OH270774   5.608   1.314   0.041 -0.2306 -0.3310 -0.1652
16428TIP3    H170775   5.670   1.275   0.102  0.6263  0.0331 -0.7913
16428TIP3    H270776   5.532   1.256   0.044 -0.5422  0.1319  1.8703
16429TIP3   OH270777   3.789   1.038   1.405 -0.0627 -0.2990  0.5597
16429TIP3    H170778   3.806   0.969   1.341  0.2186 -0.7169  1.0807
16429TIP3    H270779   3.828   1.117   1.367  0.7877 -0.7065  0.5714
16430TIP3   OH270780   6.692   3.153   3.904  0.4991  0.2708  0.3787
16430TIP3    H170781   6.752   3.211   3.858  0.0242  1.4353  1.1951
16430TIP3    H270782   6.617   3.146   3.846 -0.4306  2.3571  1.2556
16431TIP3   OH270783   2.080   0.670   4.718  0.2811 -0.2858  0.0904
16431TIP3    H170784   2.151   0.626   4.765  0.0108 -1.0348 -0.1945
16431TIP3    H270785   2.120   0.701   4.637 -0.3231 -3.1737 -1.4006
16432TIP3   OH270786   1.111   6.525  12.071  0.1570 -0.1359 -0.4998
16432TIP3    H170787   1.036   6.487  12.117  0.6277  1.0987  1.3252
16432TIP3    H270788   1.165   6.451  12.047  0.1895 -0.7590  1.4524
16433TIP3   OH270789   4.989   4.273   3.799  0.0507 -0.5001 -0.8864
16433TIP3    H170790   4.921   4.285   3.733  0.5854  0.4481 -1.2670
16433TIP3    H270791   5.071   4.289   3.753  0.4131  0.4493  0.0644
16434TIP3   OH270792   2.127   1.003   4.367  0.4520 -0.0459  0.0789
16434TIP3    H170793   2.127   0.988   4.273  0.9184  0.8916 -0.0778
16434TIP3    H270794   2.048   0.960   4.399  0.1205 -0.0826 -0.7875
16435TIP3   OH270795   4.844   1.021   3.366  0.2026 -0.1905 -0.0408
16435TIP3    H170796   4.801   0.965   3.430  1.8857 -0.7240  0.6731
16435TIP3    H270797   4.834   0.975   3.283  2.5834 -2.2343  0.7180
16436TIP3   OH270798   3.135   5.816  14.184  0.4924  0.3911 -0.3662
16436TIP3    H170799   3.041   5.823  14.167  0.3619  0.8884  0.5382
16436TIP3    H270800   3.157   5.896  14.232  1.0576 -0.4405  0.8021
16437TIP3   OH270801   5.241   4.806  12.823 -0.7352  0.7424  0.1083
16437TIP3    H170802   5.158   4.847  12.799 -1.1222 -1.3000 -2.3123
16437TIP3    H270803   5.274   4.769  12.740  1.5129 -0.3428  1.4388
16438TIP3   OH270804   6.783   5.094  16.436  0.2191  0.3769  0.9175
16438TIP3    H170805   6.788   5.106  16.341 -2.2414  0.1874  0.7479
16438TIP3    H270806   6.716   5.156  16.465 -1.0703 -1.5462  2.1390
16439TIP3   OH270807   1.114   4.659   3.135  0.5273 -0.1722  0.1581
16439TIP3    H170808   1.032   4.679   3.180  0.8617  2.6358 -0.3784
16439TIP3    H270809   1.174   4.633   3.205 -0.8439 -2.4194  0.5286
16440TIP3   OH270810   0.772   5.972   2.872 -0.0601 -0.3773  0.0616
16440TIP3    H170811   0.745   5.887   2.906 -0.4153 -0.9772 -1.6295
16440TIP3    H270812   0.859   5.957   2.836  0.4139  0.2973  0.9306
16441TIP3   OH270813   4.122   6.372   0.454 -0.2336  0.2323  0.1884
16441TIP3    H170814   4.186   6.440   0.475  0.4520 -1.1400  2.7416
16441TIP3    H270815   4.037   6.416   0.461  0.2835  1.3063 -0.2061
16442TIP3   OH270816   1.437   5.567   3.145  0.1333  0.0541  0.4923
16442TIP3    H170817   1.457   5.660   3.147 -1.0422  0.3929 -1.9287
16442TIP3    H270818   1.408   5.550   3.056 -0.0768 -2.5590  0.9993
16443TIP3   OH270819   4.831   3.994  14.666 -0.5641  0.2896  0.4808
16443TIP3    H170820   4.765   3.928  14.643 -0.5205 -0.2453  1.8491
16443TIP3    H270821   4.859   4.030  14.582  0.5722 -2.5567 -0.4275
16444TIP3   OH270822   4.812   4.323   3.614  0.5190 -0.0415 -0.1163
16444TIP3    H170823   4.728   4.368   3.622  0.0492 -0.6177 -1.7266
16444TIP3    H270824   4.869   4.386   3.568  0.8165  0.1301  0.4750
16445TIP3   OH270825   4.308   5.642  14.508 -0.9997 -0.6144 -0.5625
16445TIP3    H170826   4.279   5.606  14.592 -0.4018  1.6453  0.6315
16445TIP3    H270827   4.340   5.565  14.459 -0.7598 -1.8646  1.4929
16446TIP3   OH270828   2.043   5.121   4.977  0.0599 -0.6241 -0.3159
16446TIP3    H170829   2.099   5.134   4.901  0.1181 -2.3615 -0.6000
16446TIP3    H270830   2.099   5.080   5.042  0.0561  1.0118  0.7559
16447TIP3   OH270831   5.990   1.943  13.204 -0.3140 -0.4668  0.0138
16447TIP3    H170832   6.004   2.005  13.275 -0.7037  1.3335 -1.4175
16447TIP3    H270833   6.070   1.891  13.199  0.7984  1.2322  0.0075
16448TIP3   OH270834   0.332   5.676  14.002 -0.2065  0.0289 -0.0940
16448TIP3    H170835   0.303   5.752  14.052 -0.1041 -1.0929  1.7248
16448TIP3    H270836   0.419   5.700  13.970 -0.0798  0.5975  0.6621
16449TIP3   OH270837   3.848   1.426   1.680  0.5661 -0.1784  0.0518
16449TIP3    H170838   3.756   1.423   1.653  0.5053 -1.3874  0.3807
16449TIP3    H270839   3.860   1.516   1.713 -0.4899 -0.0117  0.0096
16450TIP3   OH270840   5.576   0.800   3.289 -0.5823  0.1510 -0.3604
16450TIP3    H170841   5.567   0.848   3.207 -2.0690 -2.4231 -1.7971
16450TIP3    H270842   5.671   0.793   3.302 -0.3405  1.8530 -1.0874
16451TIP3   OH270843   2.163   5.649   6.540 -0.0686  0.2797 -0.4504
16451TIP3    H170844   2.244   5.600   6.553 -1.3204 -1.2613  1.9688
16451TIP3    H270845   2.188   5.741   6.552  1.4955 -0.0954 -0.7571
16452TIP3   OH270846   2.188   1.138  11.619 -0.1834  0.0699 -0.2806
16452TIP3    H170847   2.132   1.072  11.659  0.1418 -1.0350 -1.6186
16452TIP3    H270848   2.226   1.185  11.693 -1.5455 -0.2824  0.6573
16453TIP3   OH270849   4.047   0.370  14.156  0.4638  0.0000  0.3116
16453TIP3    H170850   4.037   0.465  14.154  0.1388 -0.0007  1.4598
16453TIP3    H270851   3.961   0.336  14.132  0.4975 -0.0068  0.1995
16454TIP3   OH270852   1.842   6.605  14.552  0.7860  0.2695  0.2037
16454TIP3    H170853   1.783   6.664  14.505  2.5144  0.8546 -1.2453
16454TIP3    H270854   1.847   6.527  14.498 -1.0094 -1.0278  1.8219
16455TIP3   OH270855   0.173   3.401  17.107  0.1816  0.2138  0.0612
16455TIP3    H170856   0.264   3.426  17.087  0.0135 -1.0646 -2.4986
16455TIP3    H270857   0.128   3.405  17.023 -1.7337 -0.8499  1.0047
16456TIP3   OH270858   5.875   0.479  12.242 -0.4664  0.0076  0.3788
16456TIP3    H170859   5.952   0.525  12.277 -0.0263 -1.1507  0.9632
16456TIP3    H270860   5.912   0.411  12.185 -1.1094  0.3694 -0.4698
16457TIP3   OH270861   0.659   1.359  14.917  0.2898  0.1649  0.1426
16457TIP3    H170862   0.652   1.450  14.888  3.8809  0.8359  1.0935
16457TIP3    H270863   0.732   1.323  14.867 -1.4772 -2.4400 -0.6772
16458TIP3   OH270864   3.765   4.864   2.959  0.1089  0.6008 -0.0174
16458TIP3    H170865   3.845   4.861   2.906  1.1215 -3.9888  1.4507
16458TIP3    H270866   3.696   4.831   2.901  0.6224 -1.5221  0.5184
16459TIP3   OH270867   1.876   5.192  16.177  0.3155 -0.4941  0.0065
16459TIP3    H170868   1.927   5.272  16.183 -1.0855  0.6605 -2.7511
16459TIP3    H270869   1.799   5.209  16.232  0.0623  0.0256 -0.5049
16460TIP3   OH270870   1.264   0.650  16.011 -0.2613 -0.1510  0.5903
16460TIP3    H170871   1.337   0.593  15.990  0.7500  1.2298  0.3344
16460TIP3    H270872   1.275   0.670  16.104  0.4499  1.1360  0.2359
16461TIP3   OH270873   0.416   5.890   0.492  0.3070  0.1626  0.1938
16461TIP3    H170874   0.349   5.864   0.429  0.1027 -0.3810  0.6350
16461TIP3    H270875   0.437   5.980   0.468  0.9038 -0.3463 -1.2297
16462TIP3   OH270876   3.800   5.789  16.621  0.1156 -0.1070  0.1875
16462TIP3    H170877   3.855   5.712  16.609 -1.9375 -1.6785  0.6088
16462TIP3    H270878   3.712   5.754  16.634 -1.3695  2.4329 -2.5443
16463TIP3   OH270879   1.464   2.190   5.978 -0.1794 -0.3104  0.1946
16463TIP3    H170880   1.494   2.280   5.993 -0.1943 -0.3439  0.4240
16463TIP3    H270881   1.403   2.197   5.904 -1.3261  0.0826  1.1688
16464TIP3   OH270882   1.019   1.399   2.430  0.1677  0.1173  0.6295
16464TIP3    H170883   0.935   1.431   2.396  0.3867  1.3755  1.2335
16464TIP3    H270884   1.024   1.308   2.401 -1.2914  0.1081  0.3823
16465TIP3   OH270885   4.974   0.862   4.102 -0.1550 -0.1653 -0.4420
16465TIP3    H170886   5.048   0.805   4.082 -1.7338 -1.3619 -3.0904
16465TIP3    H270887   4.907   0.804   4.137  0.0143  0.8765  1.7099
16466TIP3   OH270888   4.541   6.005  15.246  0.6710 -0.3303 -0.0006
16466TIP3    H170889   4.563   6.097  15.259  1.4373 -0.5227  0.1345
16466TIP3    H270890   4.446   6.001  15.257  0.3420  0.8079 -2.2883
16467TIP3   OH270891   6.494   0.667  12.979  0.2075  0.3750  0.0313
16467TIP3    H170892   6.534   0.601  13.036 -0.1633 -1.3594 -1.6715
16467TIP3    H270893   6.484   0.744  13.035  1.6192 -0.6691  1.7656
16468TIP3   OH270894   3.904   6.630  16.729 -0.3409  0.2280  0.1650
16468TIP3    H170895   3.956   6.677  16.663 -0.1905  3.2640  2.3281
16468TIP3    H270896   3.822   6.609  16.684 -0.4789  2.7644 -0.8806
16469TIP3   OH270897   5.259   6.125  13.571 -0.1014  0.1584  0.1308
16469TIP3    H170898   5.167   6.149  13.566 -0.3997 -1.4006 -3.4955
16469TIP3    H270899   5.259   6.034  13.602  0.1708 -0.0142 -0.3672
16470TIP3   OH270900   3.964   5.127   1.345 -0.0369 -0.2533 -0.3704
16470TIP3    H170901   4.029   5.059   1.363  0.0685  0.0484  0.4185
16470TIP3    H270902   4.002   5.207   1.383 -1.6403 -0.4309  1.7242
16471TIP3   OH270903   5.249   0.079   3.872 -0.2370 -0.1707  0.3902
16471TIP3    H170904   5.250  -0.002   3.923 -0.7510  0.7075  1.8411
16471TIP3    H270905   5.211   0.055   3.788  0.1814 -1.5529  0.5875
16472TIP3   OH270906   2.180   1.339  15.912  0.5473  0.0834 -0.0777
16472TIP3    H170907   2.090   1.328  15.943  0.7970  0.3542  0.7264
16472TIP3    H270908   2.234   1.328  15.989  1.2376 -0.4261 -0.6220
16473TIP3   OH270909   0.734   2.014   1.550  0.0239  0.0534 -0.0550
16473TIP3    H170910   0.680   2.031   1.474 -1.4645  0.4312  1.0703
16473TIP3    H270911   0.695   2.065   1.621  1.3692 -0.2887  0.9790
16474TIP3   OH270912   0.164   3.978  14.939 -0.3993  0.0427 -0.1066
16474TIP3    H170913   0.075   3.984  14.904 -0.9377  1.5547  1.4711
16474TIP3    H270914   0.160   4.025  15.022  1.9909  0.5143 -0.2398
16475TIP3   OH270915   5.993   1.880   4.697  0.4872  0.1896  0.0818
16475TIP3    H170916   5.953   1.854   4.780  1.0289 -0.5734  0.1140
16475TIP3    H270917   6.086   1.857   4.707  0.9631  1.9647  0.0250
16476TIP3   OH270918   5.048   2.385  14.597  0.8017  0.3512  0.2024
16476TIP3    H170919   5.081   2.339  14.674  2.0523 -0.3337 -0.7172
16476TIP3    H270920   5.099   2.349  14.524 -2.6408 -1.4491 -1.4250
16477TIP3   OH270921   0.836   4.046  12.526 -0.1392  0.2566  0.1893
16477TIP3    H170922   0.834   4.133  12.566  1.4036 -0.6678  2.3898
16477TIP3    H270923   0.914   4.047  12.470  0.8512 -0.2559  1.5478
16478TIP3   OH270924   6.579   2.461  12.653  0.1717 -0.2867 -0.3541
16478TIP3    H170925   6.585   2.470  12.748  0.9542 -1.5978 -0.2787
16478TIP3    H270926   6.486   2.476  12.634  0.3722  2.1777  0.3590
16479TIP3   OH270927   1.264   0.857   3.530  0.2451 -0.1733 -0.5809
16479TIP3    H170928   1.343   0.879   3.580  0.4536  0.6673 -1.2591
16479TIP3    H270929   1.296   0.798   3.461  0.2694  0.0781 -0.7872
16480TIP3   OH270930   4.418   5.001  14.086  0.6005  0.3676  0.0199
16480TIP3    H170931   4.415   4.911  14.117  0.7283  0.7625  1.2036
16480TIP3    H270932   4.341   5.009  14.029 -0.1648 -0.1062  0.9673
16481TIP3   OH270933   4.571   2.179   0.628 -0.4841  0.3305 -0.0608
16481TIP3    H170934   4.533   2.180   0.716  0.1090 -0.1565  0.2038
16481TIP3    H270935   4.496   2.190   0.570 -1.1470 -1.5280  0.4110
16482TIP3   OH270936   3.198   6.430   3.702 -0.3542 -0.1505 -0.6720
16482TIP3    H170937   3.260   6.374   3.748 -0.3584  0.6011  0.2601
16482TIP3    H270938   3.126   6.372   3.676 -0.0163 -0.7049 -0.3499
16483TIP3   OH270939   5.364   4.457  14.125  0.0012 -0.9918 -0.1537
16483TIP3    H170940   5.459   4.446  14.127  0.0632 -0.5900 -0.6208
16483TIP3    H270941   5.345   4.521  14.194  0.5928  2.4442 -3.0127
16484TIP3   OH270942   3.514   5.648  11.883  0.2373 -0.4203 -0.1807
16484TIP3    H170943   3.476   5.705  11.949  0.3708  0.2170 -0.6503
16484TIP3    H270944   3.439   5.601  11.847 -0.0154  0.2560 -0.5505
16485TIP3   OH270945   6.430   3.129  13.085  0.2494  0.9201 -0.1381
16485TIP3    H170946   6.450   3.089  13.169 -1.8579  2.3101  1.0977
16485TIP3    H270947   6.341   3.164  13.096 -0.3463  0.4993 -3.1851
16486TIP3   OH270948   6.262   6.757   6.027  0.2965  0.3390  0.3223
16486TIP3    H170949   6.217   6.690   6.079  0.0061 -0.0989 -0.4846
16486TIP3    H270950   6.217   6.838   6.050  2.3313  0.6939  3.2752
16487TIP3   OH270951   2.091   4.370   2.879 -0.4824 -0.1615  0.7184
16487TIP3    H170952   2.075   4.462   2.900  2.0553  0.6659 -0.7213
16487TIP3    H270953   2.152   4.373   2.805  0.6341 -3.0267  1.4767
16488TIP3   OH270954   4.889   3.641   3.699  0.3340  0.1687 -0.2050
16488TIP3    H170955   4.859   3.577   3.634 -0.9228  1.0726 -0.5411
16488TIP3    H270956   4.917   3.716   3.647 -2.9370  1.8386  0.3396
16489TIP3   OH270957   6.558   6.817   5.891 -0.2227  0.0522 -0.3390
16489TIP3    H170958   6.512   6.877   5.950 -2.8956 -1.9400 -0.3351
16489TIP3    H270959   6.525   6.839   5.804  1.0298  0.5581 -0.7020
16490TIP3   OH270960   3.591   1.864   4.285 -0.0010  0.0652 -0.6108
16490TIP3    H170961   3.576   1.813   4.364 -0.8252 -0.5436 -1.1499
16490TIP3    H270962   3.679   1.841   4.257  0.6234  0.9342  0.6031
16491TIP3   OH270963   4.321   3.859  11.923  0.2523 -0.1585  0.4545
16491TIP3    H170964   4.229   3.861  11.897 -0.3193 -0.7676  2.3705
16491TIP3    H270965   4.351   3.949  11.912 -0.8684  0.2711  0.8595
16492TIP3   OH270966   6.426   5.984   1.836 -0.2335 -0.0701  0.3926
16492TIP3    H170967   6.424   6.012   1.927  0.6774 -2.1230  1.0699
16492TIP3    H270968   6.490   5.913   1.834 -0.0111  0.1655 -1.9105
16493TIP3   OH270969   0.548   4.414  11.777 -0.4859  0.3286 -0.0692
16493TIP3    H170970   0.485   4.370  11.720  0.5240 -0.9483 -0.2331
16493TIP3    H270971   0.594   4.475  11.719  0.5241 -0.9509 -0.6252
16494TIP3   OH270972   2.459   0.417   3.404 -0.0739  0.0934 -0.8631
16494TIP3    H170973   2.453   0.500   3.356 -1.5728  0.7782  0.4542
16494TIP3    H270974   2.526   0.367   3.358  0.4134  1.8009 -2.0480
16495TIP3   OH270975   5.044   1.404   0.912  0.1532 -0.0370  0.3918
16495TIP3    H170976   4.952   1.397   0.935  0.5068 -0.2775  1.7636
16495TIP3    H270977   5.051   1.358   0.828 -1.2721  1.4317 -0.5839
16496TIP3   OH270978   2.700   5.412  14.790 -0.0100  0.0968  0.0706
16496TIP3    H170979   2.787   5.386  14.819  0.5954 -0.2876 -2.0126
16496TIP3    H270980   2.640   5.368  14.851  1.1820 -1.5806  0.0432
16497TIP3   OH270981   4.076   1.513   5.470 -0.0677  0.3543 -0.4517
16497TIP3    H170982   4.125   1.551   5.543  0.2980 -0.0701 -0.4758
16497TIP3    H270983   3.994   1.484   5.509 -0.2860  1.0190 -0.4002
16498TIP3   OH270984   5.919   0.033  10.812 -0.3061 -0.5900 -0.2306
16498TIP3    H170985   5.986   0.025  10.744 -0.2717 -0.2398 -0.2377
16498TIP3    H270986   5.855   0.094  10.775 -0.0347 -0.0070  0.2548
16499TIP3   OH270987   3.401   6.264   3.794  0.3415  1.1625 -0.1503
16499TIP3    H170988   3.491   6.232   3.793 -0.9005 -2.6441  0.7998
16499TIP3    H270989   3.386   6.288   3.886  0.0358  0.5572 -0.0336
16500TIP3   OH270990   1.446   4.142   0.761 -0.0059  0.3527 -0.3297
16500TIP3    H170991   1.478   4.052   0.768 -1.7960 -0.2445  0.5404
16500TIP3    H270992   1.394   4.143   0.680 -3.1700 -0.4758  1.5943
16501TIP3   OH270993   1.644   6.363   1.464 -0.3194 -0.0384  0.0889
16501TIP3    H170994   1.583   6.330   1.398  1.3347 -2.0466 -0.4913
16501TIP3    H270995   1.598   6.351   1.547 -1.5018  0.3427 -0.5063
16502TIP3   OH270996   2.163   1.070  12.474  0.4549 -0.0607  0.1610
16502TIP3    H170997   2.209   1.124  12.410  0.5687  0.6707  0.8478
16502TIP3    H270998   2.217   1.074  12.553 -0.5153  0.4150  0.8211
16503TIP3   OH270999   3.574   4.599   3.092 -0.0526 -0.6386 -0.0086
16503TIP3    H171000   3.565   4.653   3.014  0.3933 -0.8223 -0.1893
16503TIP3    H271001   3.637   4.646   3.147  0.2806 -0.9280 -0.1347
16504TIP3   OH271002   5.664   4.803  11.440 -0.2026 -0.8355  0.1690
16504TIP3    H171003   5.642   4.826  11.530 -1.5433 -1.4785  0.0160
16504TIP3    H271004   5.759   4.792  11.440 -0.2702 -1.4672  1.6516
16505TIP3   OH271005   3.231   1.299   2.825  0.3810  0.0354  0.3474
16505TIP3    H171006   3.146   1.334   2.797  0.8874 -0.6389 -2.1120
16505TIP3    H271007   3.210   1.215   2.866 -0.0632 -0.5762 -1.1189
16506TIP3   OH271008   4.473   5.479   3.653 -0.3865 -0.3403  0.4350
16506TIP3    H171009   4.552   5.514   3.612 -0.6869  0.8288  0.8124
16506TIP3    H271010   4.410   5.470   3.581 -0.5413  0.6103  0.4439
16507TIP3   OH271011   3.501   2.719  15.515  0.3435 -0.0588 -0.2112
16507TIP3    H171012   3.596   2.721  15.504  0.1356  3.1605 -1.8885
16507TIP3    H271013   3.483   2.791  15.576 -0.8902 -1.8293  1.5808
16508TIP3   OH271014   6.607   3.591   4.989 -0.0655  0.1865  0.3989
16508TIP3    H171015   6.629   3.681   5.014  2.5774 -1.0218  2.7735
16508TIP3    H271016   6.681   3.539   5.021 -2.0838 -2.9858  0.1038
16509TIP3   OH271017   5.616   3.949  14.157 -0.1013 -0.1125  0.9378
16509TIP3    H171018   5.539   4.004  14.168 -0.8974 -1.2394  1.0680
16509TIP3    H271019   5.591   3.884  14.092  0.4727 -0.9528  1.5380
16510TIP3   OH271020   2.333   0.510   4.344 -0.3019  1.0916  0.0789
16510TIP3    H171021   2.412   0.460   4.360 -0.5893  1.0705  1.5257
16510TIP3    H271022   2.361   0.583   4.288  0.3450  0.0107 -1.0205
16511TIP3   OH271023   6.375   4.769   3.163  0.1519  0.2369  0.4510
16511TIP3    H171024   6.365   4.792   3.255 -0.8571 -1.6236  0.8275
16511TIP3    H271025   6.470   4.759   3.150  0.2582 -0.0768  1.4459
16512TIP3   OH271026   1.931   1.324   1.402  0.0482 -0.2231  0.5400
16512TIP3    H171027   1.911   1.389   1.470 -3.0315  2.0088 -2.3352
16512TIP3    H271028   1.915   1.240   1.445 -1.9889  1.1360  2.5847
16513TIP3   OH271029   2.938   1.056   3.218  0.1935  0.1324 -0.4331
16513TIP3    H171030   2.867   1.120   3.221 -0.0564 -0.0741 -1.8634
16513TIP3    H271031   3.002   1.089   3.282 -1.1769  0.3063  0.8932
16514TIP3   OH271032   2.138   2.330   2.928  0.0521 -0.2360 -0.3486
16514TIP3    H171033   2.100   2.292   3.007 -0.3855  1.1778  0.1329
16514TIP3    H271034   2.130   2.261   2.862 -0.0258 -1.2437  0.7040
16515TIP3   OH271035   0.553   1.224  10.726 -0.6150 -0.3763  0.6334
16515TIP3    H171036   0.507   1.307  10.730 -0.3475 -0.2692  1.7965
16515TIP3    H271037   0.499   1.164  10.777 -0.8706 -0.9415 -0.3074
16516TIP3   OH271038   1.391   0.996  12.479  0.0765 -0.0016 -0.1015
16516TIP3    H171039   1.389   0.961  12.568 -1.5262 -1.2111 -0.5931
16516TIP3    H271040   1.480   0.977  12.448  0.2389 -0.7227  0.7718
16517TIP3   OH271041   5.226   2.928   6.382  0.0040  0.4935  0.2673
16517TIP3    H171042   5.191   3.016   6.367  0.6305  1.2819  3.0366
16517TIP3    H271043   5.281   2.937   6.460 -0.0430 -2.3780  0.6944
16518TIP3   OH271044   2.691   3.604  12.294  0.0640  0.2185  0.2458
16518TIP3    H171045   2.598   3.619  12.305  0.0379  0.4086 -0.2375
16518TIP3    H271046   2.733   3.674  12.344 -0.0556  1.1565 -0.9541
16519TIP3   OH271047   2.171   2.118   0.763 -0.3830  0.1065 -0.4270
16519TIP3    H171048   2.243   2.180   0.760 -1.3757  1.2405 -1.6068
16519TIP3    H271049   2.176   2.072   0.679 -0.7791 -0.0861 -0.3473
16520TIP3   OH271050   5.793   4.885   5.880 -0.1027 -0.9917  0.2267
16520TIP3    H171051   5.742   4.837   5.944  0.9928 -0.4897  1.4917
16520TIP3    H271052   5.884   4.866   5.902  0.3448  1.3717  0.5321
16521TIP3   OH271053   6.779   1.467  12.150  0.1330 -0.5414 -1.3505
16521TIP3    H171054   6.735   1.548  12.177  0.6888  0.6343 -3.8348
16521TIP3    H271055   6.715   1.398  12.167 -1.6594  0.8220 -2.4115
16522TIP3   OH271056   4.013   2.702  11.679  0.2767 -0.3542 -0.6473
16522TIP3    H171057   4.058   2.648  11.613  1.0370  0.0627 -0.4701
16522TIP3    H271058   4.047   2.671  11.763  0.7009  0.3847 -0.5419
16523TIP3   OH271059   6.341   0.892  15.176  0.0137  0.4568  0.3803
16523TIP3    H171060   6.245   0.897  15.178  0.0535  1.0227  0.9568
16523TIP3    H271061   6.370   0.972  15.220  0.7790  1.3291 -1.6349
16524TIP3   OH271062   2.077   5.098  11.521 -0.3048  0.0125  0.3101
16524TIP3    H171063   2.167   5.130  11.526  0.1445 -1.2229  0.4818
16524TIP3    H271064   2.047   5.125  11.434  0.1157  0.7253  0.3811
16525TIP3   OH271065   6.541   3.151   5.931  0.0576 -0.5983 -0.1443
16525TIP3    H171066   6.599   3.108   5.994  2.0633  0.9020 -0.9070
16525TIP3    H271067   6.498   3.220   5.982  0.7046 -0.2148 -0.1145
16526TIP3   OH271068   4.631   4.354  17.081 -0.9133  0.1889  0.5002
16526TIP3    H171069   4.674   4.417  17.140 -0.6471  0.3072  0.1801
16526TIP3    H271070   4.575   4.302  17.139 -1.4623  0.9940  0.7044
16527TIP3   OH271071   3.149   0.025   2.621  0.3422  0.0376  0.5816
16527TIP3    H171072   3.205  -0.043   2.584 -2.5856 -1.6541 -0.9475
16527TIP3    H271073   3.100  -0.020   2.691 -0.2962  1.0278  0.7792
16528TIP3   OH271074   0.659   3.021  12.010 -0.5134 -0.2301  0.4356
16528TIP3    H171075   0.601   3.071  12.067 -0.4861  0.7288 -0.3625
16528TIP3    H271076   0.624   2.932  12.012 -2.0410  0.3558 -0.0774
16529TIP3   OH271077   2.225   4.039  14.935 -0.1445 -0.0700 -0.4540
16529TIP3    H171078   2.191   3.950  14.926  0.5834 -0.5732  1.4846
16529TIP3    H271079   2.148   4.095  14.934 -0.8604 -0.9912  1.4339
16530TIP3   OH271080   0.691   2.003  12.556  0.4610  0.3545  0.0499
16530TIP3    H171081   0.612   2.053  12.574 -0.0523 -1.1864  2.2654
16530TIP3    H271082   0.733   2.050  12.483 -1.3899  2.3743  0.2304
16531TIP3   OH271083   3.809   6.129  12.083  0.3549 -0.0236  0.1008
16531TIP3    H171084   3.828   6.214  12.123 -1.1821  0.1221  0.5213
16531TIP3    H271085   3.862   6.128  12.003 -0.7149  1.9115 -0.6396
16532TIP3   OH271086   6.774   2.820   0.189  0.0312 -0.2575 -0.9830
16532TIP3    H171087   6.683   2.820   0.217  0.3174  0.9122 -0.0015
16532TIP3    H271088   6.780   2.894   0.128  0.6703  0.7012  0.2070
16533TIP3   OH271089   0.078   0.432  16.769  0.1630  0.0481 -0.4140
16533TIP3    H171090   0.011   0.490  16.806 -0.2750  0.0402 -1.1826
16533TIP3    H271091   0.102   0.473  16.686  0.0392 -0.7314 -0.8363
16534TIP3   OH271092   5.141   4.000  11.190  0.1029 -0.1088  0.7249
16534TIP3    H171093   5.117   4.042  11.108 -0.9832 -0.7213  0.7210
16534TIP3    H271094   5.236   4.011  11.196 -0.0113  1.3066  0.1601
16535TIP3   OH271095   5.213   5.745   4.266  0.3630 -0.1210  0.3418
16535TIP3    H171096   5.193   5.766   4.357 -0.0056 -0.3925  0.3245
16535TIP3    H271097   5.274   5.671   4.271  3.7710  2.5667  0.4738
16536TIP3   OH271098   1.298   2.560  16.897  0.0324  0.4080  0.2570
16536TIP3    H171099   1.321   2.467  16.894  1.8478  0.8382  0.5146
16536TIP3    H271100   1.272   2.581  16.807  0.6933 -0.0826 -0.0545
16537TIP3   OH271101   3.351   6.796   5.750  0.2660  0.1792 -0.8237
16537TIP3    H171102   3.316   6.722   5.700  0.3204 -0.9109  0.7288
16537TIP3    H271103   3.297   6.870   5.723  0.5916 -0.2699 -2.8470
16538TIP3   OH271104   6.309   3.574   5.606  0.5173  0.0423 -0.5799
16538TIP3    H171105   6.344   3.494   5.566  1.5619  0.1745  0.0434
16538TIP3    H271106   6.385   3.632   5.613 -0.2127  1.0438 -0.9051
16539TIP3   OH271107   0.530   3.722   0.850 -0.4782  0.5089  0.1566
16539TIP3    H171108   0.510   3.807   0.891 -0.3368  0.2399  0.7832
16539TIP3    H271109   0.620   3.731   0.819 -0.7930  0.9293 -0.6502
16540TIP3   OH271110   1.286   1.157   3.763 -0.1402  0.2742 -0.1110
16540TIP3    H171111   1.346   1.083   3.770 -2.2458 -1.2830  2.2103
16540TIP3    H271112   1.225   1.133   3.693  0.3293  0.7014 -0.6768
16541TIP3   OH271113   4.651   1.034  13.396 -0.6533  0.5266  0.0951
16541TIP3    H171114   4.678   1.023  13.487  4.6499  1.6721 -1.1814
16541TIP3    H271115   4.703   0.970  13.348 -1.6511  1.5408 -2.4008
16542TIP3   OH271116   2.590   1.214  11.653  0.4232 -0.4784 -0.2224
16542TIP3    H171117   2.637   1.158  11.592 -2.2514  2.5418 -5.5343
16542TIP3    H271118   2.519   1.159  11.687  2.5080 -2.4871  0.9756
16543TIP3   OH271119   1.624   3.181  10.761 -0.5113 -0.4618  0.3961
16543TIP3    H171120   1.696   3.159  10.821 -0.3760  0.8269  0.7191
16543TIP3    H271121   1.643   3.130  10.682  0.5594 -0.4029  0.6076
16544TIP3   OH271122   6.407   5.635  15.277 -0.1846 -0.3512  0.6446
16544TIP3    H171123   6.431   5.542  15.270 -0.1441 -0.3771  1.0687
16544TIP3    H271124   6.345   5.638  15.350 -0.8424 -0.1617  0.0829
16545TIP3   OH271125   4.800   0.046   4.398 -0.4565  0.6383 -0.1603
16545TIP3    H171126   4.830  -0.041   4.426  0.7955  0.2833 -2.4357
16545TIP3    H271127   4.727   0.028   4.339 -2.0853  1.3039  1.5962
16546TIP3   OH271128   3.390   0.489  16.764  0.3954 -0.2513  0.3938
16546TIP3    H171129   3.323   0.469  16.829 -0.8051  0.6320 -0.5663
16546TIP3    H271130   3.345   0.482  16.680  1.6103 -0.0531 -0.2834
16547TIP3   OH271131   2.557   2.580  11.140 -0.4175 -0.4520  0.3261
16547TIP3    H171132   2.556   2.565  11.045 -1.6705  0.4331  0.1898
16547TIP3    H271133   2.614   2.655  11.152  0.9031 -1.4597  0.4192
16548TIP3   OH271134   5.547   0.159   6.251 -0.3171  0.1694 -0.1676
16548TIP3    H171135   5.568   0.202   6.168  0.5321 -0.7445 -0.4360
16548TIP3    H271136   5.567   0.224   6.318  1.8751 -0.1268 -0.5133
16549TIP3   OH271137   6.421   0.927  13.938  0.0314  1.0420  0.2004
16549TIP3    H171138   6.345   0.871  13.924 -0.7141  2.2654 -0.7924
16549TIP3    H271139   6.492   0.867  13.962 -0.0229 -0.6718 -3.5788
16550TIP3   OH271140   3.528   4.367   2.478 -0.4456  0.1252 -0.3402
16550TIP3    H171141   3.436   4.345   2.462 -0.8054  1.1236  0.2762
16550TIP3    H271142   3.526   4.424   2.556  0.6582  0.4282 -0.5212
16551TIP3   OH271143   3.158   2.408  14.883 -0.4285 -0.0152 -0.0059
16551TIP3    H171144   3.209   2.482  14.852  0.1837 -0.1293  0.7070
16551TIP3    H271145   3.223   2.345  14.913 -0.8813 -1.5116 -2.0559
16552TIP3   OH271146   2.445   3.537  17.257 -0.2431 -0.4119 -0.1672
16552TIP3    H171147   2.537   3.563  17.266 -0.0489 -0.7803 -1.1038
16552TIP3    H271148   2.410   3.544  17.346  0.2141  1.4977 -0.1100
16553TIP3   OH271149   1.548   4.169  13.670  0.3660  0.0732  0.0803
16553TIP3    H171150   1.634   4.131  13.685 -0.6176 -1.7843  1.2382
16553TIP3    H271151   1.518   4.199  13.756  0.6555  2.5408 -0.6323
16554TIP3   OH271152   3.686   2.343  12.181  0.1130 -0.5913  0.3533
16554TIP3    H171153   3.674   2.263  12.131 -0.6064  0.5029 -1.2812
16554TIP3    H271154   3.723   2.314  12.265  1.4082 -2.4532 -0.8188
16555TIP3   OH271155   1.161   1.598  15.439 -0.7284  0.6398  0.1097
16555TIP3    H171156   1.099   1.671  15.431 -0.7492  0.6094 -0.0031
16555TIP3    H271157   1.201   1.610  15.525  1.4068  2.4604 -1.1127
16556TIP3   OH271158   0.519   2.194  12.613 -0.5142  0.4390 -0.5538
16556TIP3    H171159   0.513   2.285  12.584  2.6591  0.7900 -0.2422
16556TIP3    H271160   0.483   2.194  12.701  1.3374  1.8163  0.2272
16557TIP3   OH271161   6.338   3.407   0.447 -0.0940 -0.0278 -0.1004
16557TIP3    H171162   6.418   3.458   0.451 -0.2051  0.0441  1.7308
16557TIP3    H271163   6.299   3.430   0.362  0.1691  2.4588  0.4127
16558TIP3   OH271164   4.297   1.838  16.479 -0.0600 -0.2604  0.5478
16558TIP3    H171165   4.205   1.838  16.451  0.3490 -3.0561 -1.0267
16558TIP3    H271166   4.295   1.873  16.568 -2.7505 -0.9069  0.7996
16559TIP3   OH271167   0.346   1.034  14.221  0.0672  0.3074 -0.1657
16559TIP3    H171168   0.357   1.109  14.163  1.0794 -1.4216 -2.2886
16559TIP3    H271169   0.377   0.959  14.169  0.0489 -1.4291  2.2585
16560TIP3   OH271170   5.360   2.871   0.330  0.3242  0.5077  0.0841
16560TIP3    H171171   5.322   2.904   0.411  2.4821 -1.0064  1.7921
16560TIP3    H271172   5.453   2.893   0.336  0.9714 -1.8241 -0.8114
16561TIP3   OH271173   0.754   1.224   6.433 -0.0711  0.3194 -1.0514
16561TIP3    H171174   0.795   1.308   6.451  1.4920 -0.7204  0.2957
16561TIP3    H271175   0.690   1.212   6.503 -0.3277  0.3873 -1.2697
16562TIP3   OH271176   0.924   1.139   0.405  0.5520 -0.4026  0.7393
16562TIP3    H171177   0.884   1.199   0.342 -1.7547 -2.9810 -0.3374
16562TIP3    H271178   0.874   1.153   0.486  0.6634 -0.1810  0.7710
16563TIP3   OH271179   3.941   0.468   2.721 -0.8168  0.0894  0.3034
16563TIP3    H171180   4.011   0.521   2.758 -0.8727 -0.0626  0.6241
16563TIP3    H271181   3.970   0.377   2.733 -0.9941  0.0303  0.2947
16564TIP3   OH271182   2.440   3.415   4.288 -0.1348  0.2054 -0.3284
16564TIP3    H171183   2.514   3.457   4.244 -1.7003  1.5286 -1.7472
16564TIP3    H271184   2.397   3.486   4.336 -0.1063 -0.6773  1.0116
16565TIP3   OH271185   0.427   6.196   1.046 -0.1332 -0.2570 -0.2757
16565TIP3    H171186   0.511   6.169   1.084  0.2704  1.6813  0.2789
16565TIP3    H271187   0.407   6.279   1.090 -1.7347 -0.0913 -1.2942
16566TIP3   OH271188   3.300   3.395  12.431 -0.2525  1.0659  0.9161
16566TIP3    H171189   3.291   3.386  12.336  2.0894  0.5004  0.7252
16566TIP3    H271190   3.317   3.488  12.445  1.1795  0.8691  0.5959
16567TIP3   OH271191   5.980   0.926   3.977  0.1163 -0.4107  0.4501
16567TIP3    H171192   5.968   0.866   3.904  0.1769  1.3065 -1.0163
16567TIP3    H271193   5.903   0.913   4.032 -0.1879 -1.3400 -0.1849
16568TIP3   OH271194   3.925   4.286  13.467 -0.1543 -0.6249 -0.2821
16568TIP3    H171195   3.843   4.247  13.437 -0.9920 -0.1953  1.3708
16568TIP3    H271196   3.971   4.309  13.387 -1.8018 -0.5561 -1.2488
16569TIP3   OH271197   0.343   2.822  16.090 -0.2160 -0.0510 -0.1210
16569TIP3    H171198   0.381   2.909  16.101  3.4130 -1.3274 -1.9425
16569TIP3    H271199   0.399   2.764  16.141 -1.0777 -1.7135 -1.0220
16570TIP3   OH271200   5.776   2.237   0.056 -0.2276  0.6869 -0.4748
16570TIP3    H171201   5.825   2.156   0.068  0.0245  0.9707  0.4351
16570TIP3    H271202   5.774   2.250  -0.039  1.6007  0.7789 -0.5018
16571TIP3   OH271203   6.083   5.813  11.149 -0.4778 -0.4509 -0.3397
16571TIP3    H171204   6.097   5.770  11.065 -1.3716  0.6371 -1.0485
16571TIP3    H271205   6.161   5.866  11.163 -0.1117 -1.0089 -0.2385
16572TIP3   OH271206   3.487   0.077  12.335  0.1782  0.1728 -0.1832
16572TIP3    H171207   3.431   0.026  12.277  0.7997 -0.5581 -0.1589
16572TIP3    H271208   3.498   0.161  12.291  0.4571 -0.2946 -1.0108
16573TIP3   OH271209   2.975   6.616   2.373  0.5841  0.0330  0.4364
16573TIP3    H171210   3.049   6.606   2.432  0.8427  0.5188  0.2019
16573TIP3    H271211   2.905   6.563   2.412  0.6112  0.7089  1.4096
16574TIP3   OH271212   4.484   5.154   3.656 -0.5406 -0.2428 -0.1367
16574TIP3    H171213   4.411   5.195   3.702 -0.3110  0.2201 -0.1841
16574TIP3    H271214   4.454   5.064   3.639 -0.5716 -0.4468  1.0097
16575TIP3   OH271215   2.261   5.077  15.536 -0.7022  0.1616 -0.0183
16575TIP3    H171216   2.282   5.046  15.448 -0.6200 -1.7544  0.6526
16575TIP3    H271217   2.344   5.073  15.584 -1.5040 -2.5805  1.2248
16576TIP3   OH271218   0.219   0.293  16.400  0.4853  0.6084 -0.1488
16576TIP3    H171219   0.253   0.250  16.479 -1.9486 -0.8274  0.1865
16576TIP3    H271220   0.196   0.381  16.429  2.6574  1.1595 -0.0670
16577TIP3   OH271221   3.279   1.448  16.956 -0.2644  0.1466 -0.1036
16577TIP3    H171222   3.346   1.492  16.904  0.9565 -2.5157 -0.8429
16577TIP3    H271223   3.199   1.455  16.904  0.1482  0.5560 -0.6773
16578TIP3   OH271224   5.659   0.040  16.522  0.4370 -0.0106  0.6157
16578TIP3    H171225   5.612  -0.026  16.471  0.1341 -0.9241  2.0360
16578TIP3    H271226   5.609   0.121  16.509 -0.5716 -0.6027  0.7730
16579TIP3   OH271227   3.399   1.722  15.428  0.1818  0.4113  0.4301
16579TIP3    H171228   3.432   1.778  15.358 -0.3534 -0.3425 -0.4252
16579TIP3    H271229   3.458   1.647  15.428 -3.5848 -2.7912 -3.5995
16580TIP3   OH271230   1.785   2.432  14.264 -0.3161 -0.1584 -0.4575
16580TIP3    H171231   1.784   2.355  14.321 -2.6065 -0.0627 -0.3272
16580TIP3    H271232   1.800   2.396  14.177  0.0869 -0.6073 -0.2088
16581TIP3   OH271233   5.459   0.422   5.366  0.3424  0.3935 -0.6382
16581TIP3    H171234   5.464   0.364   5.290  3.3003  1.5157 -1.3630
16581TIP3    H271235   5.493   0.369   5.438  0.0246  0.1933 -0.6336
16582TIP3   OH271236   3.102   0.741   4.086  0.5499 -0.4868  0.0388
16582TIP3    H171237   3.143   0.766   4.004 -1.7270 -1.3129 -1.4160
16582TIP3    H271238   3.077   0.823   4.127  0.6604 -0.0991 -0.6638
16583TIP3   OH271239   4.610   5.467  13.131  0.3220  0.6486 -0.3487
16583TIP3    H171240   4.666   5.477  13.208 -0.4594  0.7607  0.2029
16583TIP3    H271241   4.661   5.506  13.060  0.0775  2.6510  0.5476
16584TIP3   OH271242   5.818   4.938   0.005  0.0910 -0.1925 -0.1033
16584TIP3    H171243   5.800   4.972  -0.083 -1.1450  1.0821  0.6300
16584TIP3    H271244   5.749   4.875   0.021  0.6096 -0.8036 -0.2303
16585TIP3   OH271245   2.341   4.447   2.166  0.2668  0.8144  0.1766
16585TIP3    H171246   2.336   4.534   2.206  0.4526  1.9579 -2.1797
16585TIP3    H271247   2.308   4.460   2.076 -0.4904 -1.7202  0.0430
16586TIP3   OH271248   1.953   0.699  16.959 -0.7364  0.4922  0.2376
16586TIP3    H171249   1.940   0.610  16.994 -0.5128  0.0970 -0.6777
16586TIP3    H271250   1.911   0.697  16.873 -1.7034  1.6105  0.6742
16587TIP3   OH271251   3.100   1.575  13.021 -0.2929  0.1631  0.2172
16587TIP3    H171252   3.036   1.531  12.965  1.8328 -1.0601 -1.3104
16587TIP3    H271253   3.094   1.667  12.996 -0.4617 -0.1508 -0.9635
16588TIP3   OH271254   6.780   4.570   0.342  0.4369  0.5589  0.1695
16588TIP3    H171255   6.753   4.606   0.426  0.1955  0.2583  0.2240
16588TIP3    H271256   6.797   4.477   0.360 -1.5681  0.0231 -0.5171
16589TIP3   OH271257   2.940   0.456   2.990  0.7881  0.2934 -0.0531
16589TIP3    H171258   2.911   0.547   2.992  0.8713  0.3361 -0.6305
16589TIP3    H271259   2.899   0.420   2.911  0.2913 -0.3261  0.4902
16590TIP3   OH271260   3.145   3.853  16.518  0.7713  0.2204 -0.4923
16590TIP3    H171261   3.105   3.891  16.439 -1.1663  0.3673  0.5417
16590TIP3    H271262   3.230   3.895  16.524  0.4422  1.1146 -1.8219
16591TIP3   OH271263   6.059   0.553  14.429  0.0206  0.0882 -0.5074
16591TIP3    H171264   6.120   0.619  14.395  0.9187 -0.7349 -0.4971
16591TIP3    H271265   5.974   0.576  14.390  0.4894  0.7841 -1.1191
16592TIP3   OH271266   0.185   1.829   3.675 -0.0939  0.0583 -0.2241
16592TIP3    H171267   0.223   1.741   3.682  1.5551  0.6556 -1.2481
16592TIP3    H271268   0.129   1.825   3.598 -0.3565 -0.2107 -0.0212
16593TIP3   OH271269   1.667   1.977  14.323 -0.0025 -0.0647  0.4934
16593TIP3    H171270   1.658   2.066  14.358  1.9486  0.8449 -1.2235
16593TIP3    H271271   1.682   1.922  14.401 -1.8133  0.9789  1.6194
16594TIP3   OH271272   3.188   4.528  13.904 -0.7980  0.0659  0.3533
16594TIP3    H171273   3.121   4.461  13.892 -2.1070  1.3179  0.4108
16594TIP3    H271274   3.163   4.572  13.986 -0.3156  0.9969  0.0123
16595TIP3   OH271275   1.839   1.865  10.980  0.0589 -0.4977  0.1005
16595TIP3    H171276   1.855   1.874  10.886  0.3588 -1.0209  0.0975
16595TIP3    H271277   1.880   1.782  11.003 -2.5448 -1.8078  0.1271
16596TIP3   OH271278   4.511   0.974  12.631 -0.1181  0.7200  0.0942
16596TIP3    H171279   4.533   1.048  12.573  0.7949 -1.0941 -1.9363
16596TIP3    H271280   4.493   1.015  12.715  0.7073  3.2542 -0.9023
16597TIP3   OH271281   2.277   1.412  14.499 -0.0509 -0.3030  0.1099
16597TIP3    H171282   2.293   1.341  14.561  1.5346  0.4770  0.6285
16597TIP3    H271283   2.276   1.491  14.554 -1.8719  0.0812 -0.4507
16598TIP3   OH271284   5.500   6.383  11.579  0.0613  0.2221 -0.6622
16598TIP3    H171285   5.500   6.333  11.660 -0.4260 -1.2175 -1.5325
16598TIP3    H271286   5.592   6.384  11.552  0.1288  0.1326 -0.4360
16599TIP3   OH271287   6.102   5.176   1.153  0.5684  0.6039 -0.7072
16599TIP3    H171288   6.032   5.202   1.213 -1.4245 -2.8485 -1.3792
16599TIP3    H271289   6.169   5.138   1.210 -0.1505 -0.2217 -0.3920
16600TIP3   OH271290   1.915   1.231  12.592 -0.3526  0.4255 -0.3191
16600TIP3    H171291   1.878   1.209  12.678  2.2759  4.5127  2.0855
16600TIP3    H271292   1.989   1.172  12.582 -1.3070 -0.7951 -0.3092
16601TIP3   OH271293   0.524   1.877  13.267  0.3710  0.5161 -0.7943
16601TIP3    H171294   0.615   1.889  13.241  0.1389 -1.2617 -2.4749
16601TIP3    H271295   0.478   1.951  13.227  1.1175  1.6150  0.3531
16602TIP3   OH271296   3.603   1.596  16.189  0.1231  0.3453 -0.1898
16602TIP3    H171297   3.637   1.548  16.113  0.8629  0.5147  0.0349
16602TIP3    H271298   3.516   1.559  16.203 -0.0919  0.4332 -1.2341
16603TIP3   OH271299   2.669   4.171   5.235  0.3481 -0.2148 -0.1931
16603TIP3    H171300   2.715   4.146   5.154  0.2889 -1.2988  0.0934
16603TIP3    H271301   2.577   4.168   5.212  0.3593  0.3988 -0.3341
16604TIP3   OH271302   0.164   2.821  13.905  0.4231 -0.5313 -0.0658
16604TIP3    H171303   0.121   2.819  13.990 -2.0890 -0.3289 -1.3045
16604TIP3    H271304   0.190   2.730  13.889  2.1549 -0.3521  1.4854
16605TIP3   OH271305   0.247   6.602  17.197 -0.2812  0.4239  0.0720
16605TIP3    H171306   0.289   6.587  17.112 -1.0712 -0.4368 -0.1760
16605TIP3    H271307   0.283   6.535  17.254  1.0142  1.6308  0.7127
16606TIP3   OH271308   3.120   5.309  11.503 -0.1598 -0.1953 -0.2884
16606TIP3    H171309   3.213   5.324  11.520 -0.3569  1.2028 -0.3495
16606TIP3    H271310   3.086   5.272  11.584  0.7805 -2.3396 -0.8347
16607TIP3   OH271311   0.479   3.307   3.417 -0.8651  0.2188  0.4256
16607TIP3    H171312   0.518   3.394   3.405 -0.3193 -0.3496 -2.2217
16607TIP3    H271313   0.548   3.255   3.457 -0.8445  0.7279  1.0575
16608TIP3   OH271314   1.992   4.900  13.854  0.2748  0.1592 -0.4823
16608TIP3    H171315   1.924   4.896  13.787  0.3345 -2.5015 -0.4091
16608TIP3    H271316   2.056   4.834  13.829  1.0645  0.1585  1.3909
16609TIP3   OH271317   3.790   5.478  16.653  0.6672 -0.2497 -0.1923
16609TIP3    H171318   3.702   5.460  16.620  0.2834 -0.9514  1.1674
16609TIP3    H271319   3.842   5.496  16.574 -0.7746  0.5916 -0.9690
16610TIP3   OH271320   5.548   6.229   2.796  0.6630  0.0782 -0.2191
16610TIP3    H171321   5.634   6.266   2.813 -0.3553  3.9477 -2.7284
16610TIP3    H271322   5.549   6.206   2.703 -0.2878 -1.9405  0.2421
16611TIP3   OH271323   0.866   0.102   4.096 -0.6674 -0.4886 -0.2007
16611TIP3    H171324   0.823   0.186   4.078  1.1368  0.6377  0.5092
16611TIP3    H271325   0.938   0.098   4.033  1.3484  0.1475  1.9684
16612TIP3   OH271326   2.303   4.622   3.951  0.3208  0.6877  0.3861
16612TIP3    H171327   2.342   4.708   3.967  1.2961  0.0313  1.6320
16612TIP3    H271328   2.210   4.634   3.967  0.4077  1.5856  0.2229
16613TIP3   OH271329   6.538   0.243  11.866 -0.2198 -0.5534  0.1775
16613TIP3    H171330   6.617   0.204  11.904  0.2018 -0.6138 -0.7613
16613TIP3    H271331   6.484   0.265  11.942  0.9466  0.0206  0.8657
16614TIP3   OH271332   1.484   6.493   4.752  0.0456 -0.0903 -0.6781
16614TIP3    H171333   1.540   6.425   4.791 -0.9227 -0.9492 -0.7606
16614TIP3    H271334   1.476   6.559   4.821 -0.4836 -0.9171  0.0736
16615TIP3   OH271335   0.388   0.098  15.109  0.3178  0.0159  0.1298
16615TIP3    H171336   0.484   0.107  15.107  0.5570 -2.2961  0.1098
16615TIP3    H271337   0.357   0.184  15.139  2.4553  0.3710  1.4483
16616TIP3   OH271338   5.672   4.472  11.597  0.1087 -0.2569  0.3173
16616TIP3    H171339   5.620   4.403  11.638 -0.9901  1.1216  1.2912
16616TIP3    H271340   5.611   4.517  11.539 -0.1801  2.1199  2.3389
16617TIP3   OH271341   2.290   3.895  16.332  0.5027 -0.6646  0.5341
16617TIP3    H171342   2.229   3.848  16.389  0.0349 -0.3450  0.2945
16617TIP3    H271343   2.324   3.966  16.387  0.1002 -0.3950  0.4338
16618TIP3   OH271344   1.997   3.506   1.731  0.1497  0.0763 -0.0785
16618TIP3    H171345   1.985   3.419   1.770  1.6260 -0.7443 -1.3970
16618TIP3    H271346   1.914   3.551   1.746 -0.0731 -0.9895  2.0467
16619TIP3   OH271347   3.011   2.060   0.291 -0.2145  0.2705  0.1284
16619TIP3    H171348   2.946   2.028   0.228  0.1198  1.0949 -0.6483
16619TIP3    H271349   3.009   1.996   0.362 -0.9752 -0.3899 -0.4740
16620TIP3   OH271350   2.128   2.334   0.440  0.2848  0.4412  0.4614
16620TIP3    H171351   2.214   2.297   0.458  0.6449  0.6430 -0.7731
16620TIP3    H271352   2.088   2.273   0.378  0.3125  1.3416 -0.4556
16621TIP3   OH271353   4.868   6.407   3.952 -0.0313  0.2785  0.3176
16621TIP3    H171354   4.809   6.457   3.896 -0.1386  0.5510  0.6736
16621TIP3    H271355   4.857   6.316   3.923 -0.8362  0.2903  0.5618
16622TIP3   OH271356   6.459   5.958   4.579 -0.6008  0.2930  0.1949
16622TIP3    H171357   6.384   5.902   4.560 -0.9055  0.9625 -0.5856
16622TIP3    H271358   6.530   5.921   4.528 -0.3554 -0.4159  1.0287
16623TIP3   OH271359   5.175   3.153   2.737 -0.0982  0.3041  0.1332
16623TIP3    H171360   5.170   3.188   2.826 -0.7746 -0.6488  0.4806
16623TIP3    H271361   5.227   3.073   2.746  1.0052  0.9265 -0.5648
16624TIP3   OH271362   5.498   6.751   5.641  0.4643 -0.1774 -0.2895
16624TIP3    H171363   5.570   6.810   5.617 -0.0888 -0.4050 -2.5722
16624TIP3    H271364   5.471   6.711   5.559 -0.9762 -1.5905  0.8474
16625TIP3   OH271365   0.449   2.329   3.736 -0.0860 -0.0345 -0.4419
16625TIP3    H171366   0.400   2.399   3.778  0.3344  0.6825 -1.1349
16625TIP3    H271367   0.447   2.351   3.642  1.1334 -0.2574 -0.5273
16626TIP3   OH271368   6.121   6.102   2.739  0.1961 -0.1008  0.6437
16626TIP3    H171369   6.202   6.073   2.697  0.4305  0.7088  0.5421
16626TIP3    H271370   6.098   6.183   2.694 -1.9286 -1.5094 -0.9319
16627TIP3   OH271371   5.564   4.084  15.805 -0.1294 -0.3372  0.0611
16627TIP3    H171372   5.588   3.997  15.834 -1.1584 -0.6129  0.0852
16627TIP3    H271373   5.481   4.073  15.759 -0.6755  0.7428  0.7567
16628TIP3   OH271374   0.582   3.396  17.273  0.4524 -0.7049 -0.0833
16628TIP3    H171375   0.504   3.436  17.235  0.7374 -0.1424 -0.0685
16628TIP3    H271376   0.548   3.339  17.343 -0.0636 -1.6897 -1.1174
16629TIP3   OH271377   3.353   2.532  10.543 -0.3413 -0.0146 -0.1249
16629TIP3    H171378   3.381   2.442  10.532 -0.0472 -0.0045  0.5109
16629TIP3    H271379   3.304   2.532  10.626 -1.8124  0.0623 -0.9733
16630TIP3   OH271380   0.880   2.158   6.675 -0.1477 -0.2216  0.2401
16630TIP3    H171381   0.854   2.207   6.753  0.2355  0.6342 -0.1687
16630TIP3    H271382   0.925   2.081   6.710  0.2876  0.3106  0.8655
16631TIP3   OH271383   4.684   5.455   2.333  0.3063  0.3682 -0.5581
16631TIP3    H171384   4.601   5.487   2.297 -0.0955 -1.1413 -0.9962
16631TIP3    H271385   4.716   5.528   2.386 -0.3977  1.6507 -1.8467
16632TIP3   OH271386   2.928   6.526   4.296 -0.0166  1.0425 -0.2251
16632TIP3    H171387   2.965   6.510   4.383  0.2510  1.1851 -0.3118
16632TIP3    H271388   2.839   6.491   4.301  1.0624 -2.0181 -0.8997
16633TIP3   OH271389   0.467   4.376   4.099  0.1194  0.1322  0.0650
16633TIP3    H171390   0.386   4.425   4.112  1.3380  2.0304  0.6680
16633TIP3    H271391   0.447   4.315   4.028 -1.5569  1.2137 -0.4153
16634TIP3   OH271392   5.327   1.324   5.002  0.1819 -0.5259  0.0146
16634TIP3    H171393   5.421   1.315   4.993  0.2025 -0.5569  0.2598
16634TIP3    H271394   5.315   1.410   5.043 -0.0130  0.6829 -2.4571
16635TIP3   OH271395   5.771   6.719   3.909  0.3124 -0.0032  0.1619
16635TIP3    H171396   5.717   6.657   3.859  0.0839  0.9368 -0.7734
16635TIP3    H271397   5.813   6.774   3.842  1.7913 -0.1893  0.9168
16636TIP3   OH271398   0.267   2.251  12.413 -0.4288 -0.0871 -0.2782
16636TIP3    H171399   0.276   2.333  12.365  1.4386  1.4657  2.5738
16636TIP3    H271400   0.332   2.193  12.374  0.2854  0.7812 -0.3871
16637TIP3   OH271401   5.672   1.381  16.423 -0.1834  0.7317 -0.0860
16637TIP3    H171402   5.723   1.429  16.489  0.5964 -0.1051 -0.0817
16637TIP3    H271403   5.734   1.320  16.384 -1.4453 -1.0772  0.6997
16638TIP3   OH271404   3.379   2.110  15.823 -0.5405 -0.4983  0.4533
16638TIP3    H171405   3.393   2.034  15.880 -1.2655 -1.2713 -0.3664
16638TIP3    H271406   3.284   2.117  15.816 -0.4715 -0.6462 -0.9273
16639TIP3   OH271407   2.355   3.730   3.420  0.4442 -0.1608  0.3899
16639TIP3    H171408   2.283   3.713   3.359 -1.0919 -1.9928  2.6459
16639TIP3    H271409   2.430   3.686   3.379  0.2086  1.3794 -1.7508
16640TIP3   OH271410   0.431   4.809  15.180  0.0928  0.3298 -0.5681
16640TIP3    H171411   0.476   4.876  15.128  0.6447 -0.8624 -1.6585
16640TIP3    H271412   0.395   4.857  15.254  1.1935  1.7028 -0.8911
16641TIP3   OH271413   6.649   1.146   1.825  0.2631 -0.0732 -0.2637
16641TIP3    H171414   6.598   1.071   1.854 -0.9381  1.0869  0.6930
16641TIP3    H271415   6.737   1.130   1.861 -0.9349  0.8264  3.2977
16642TIP3   OH271416   2.432   4.051   1.268 -0.2022  0.2540 -0.5401
16642TIP3    H171417   2.434   3.968   1.220 -1.1975  0.3834 -0.8254
16642TIP3    H271418   2.354   4.045   1.324 -1.4460  1.7907 -2.0466
16643TIP3   OH271419   5.704   6.284   0.564 -0.0721  0.0123 -0.6553
16643TIP3    H171420   5.794   6.278   0.595 -0.2739 -0.6955 -0.1936
16643TIP3    H271421   5.661   6.343   0.625 -0.2932 -0.8238  0.0011
16644TIP3   OH271422   5.027   1.547  16.165  0.7992 -0.1767 -0.4106
16644TIP3    H171423   5.007   1.530  16.073 -1.4433  1.9248 -0.3586
16644TIP3    H271424   4.960   1.499  16.214 -0.6445  2.1298 -0.0475
16645TIP3   OH271425   1.661   1.365  14.323  0.2527  0.1440  0.1102
16645TIP3    H171426   1.709   1.282  14.325 -0.1627 -0.1402 -1.3879
16645TIP3    H271427   1.678   1.404  14.409 -0.0045 -1.7562  1.0563
16646TIP3   OH271428   0.083   4.042   5.651 -0.3190 -0.3200 -0.2092
16646TIP3    H171429   0.055   4.113   5.710 -1.2604 -0.3797 -0.5846
16646TIP3    H271430   0.163   4.075   5.611  0.7095 -0.5442  1.6080
16647TIP3   OH271431   3.254   2.944   4.945 -0.5123 -0.1393  0.6207
16647TIP3    H171432   3.249   2.938   5.041  0.9925  1.2267  0.8044
16647TIP3    H271433   3.308   2.869   4.920 -0.1962 -0.0163  0.9223
16648TIP3   OH271434   0.259   5.576   1.231 -0.6371  0.1758  0.0186
16648TIP3    H171435   0.280   5.589   1.139  0.3933  2.4914  0.5684
16648TIP3    H271436   0.184   5.633   1.248 -1.5061 -1.0370  0.3744
16649TIP3   OH271437   3.639   4.333   0.213 -0.2125  0.2200 -0.3294
16649TIP3    H171438   3.642   4.264   0.278  0.3443  0.1800 -0.3980
16649TIP3    H271439   3.599   4.408   0.259  0.8667  0.4268  0.2744
16650TIP3   OH271440   6.179   5.515   1.666 -0.4732 -0.6228  0.2244
16650TIP3    H171441   6.120   5.524   1.741 -0.5879 -1.4444  0.2357
16650TIP3    H271442   6.266   5.509   1.705 -0.2718  1.5281  0.1659
16651TIP3   OH271443   6.372   0.680  15.360  0.3628  0.0153 -0.0904
16651TIP3    H171444   6.299   0.704  15.303  0.6569  0.1082 -0.4306
16651TIP3    H271445   6.387   0.758  15.414  1.4020  0.6645 -1.2840
16652TIP3   OH271446   5.449   2.723  13.846 -0.6445  0.3951 -0.5822
16652TIP3    H171447   5.382   2.765  13.899 -0.4773 -0.5188  0.3606
16652TIP3    H271448   5.417   2.634  13.833  0.0142  0.1840 -0.7851
16653TIP3   OH271449   5.821   2.937  12.427 -0.1127  0.0106  0.2039
16653TIP3    H171450   5.829   2.846  12.399  0.6791  0.0413  0.3099
16653TIP3    H271451   5.909   2.974  12.414 -0.2623  0.5776  0.7810
16654TIP3   OH271452   0.386   3.397  13.456 -0.3757 -0.2526 -0.1977
16654TIP3    H171453   0.477   3.370  13.446 -0.6034 -1.5565  1.1114
16654TIP3    H271454   0.390   3.492  13.466  0.7422 -0.1722 -1.2302
16655TIP3   OH271455   2.514   5.729   1.967  0.1347  0.1368 -0.1990
16655TIP3    H171456   2.553   5.797   2.023  0.8088 -0.1099 -0.3585
16655TIP3    H271457   2.489   5.659   2.028  0.0298  0.2571 -0.1042
16656TIP3   OH271458   1.614   5.012  16.809  0.8862 -0.0388  0.5187
16656TIP3    H171459   1.707   5.003  16.834  0.7663 -0.2758  0.8943
16656TIP3    H271460   1.572   4.936  16.850  0.7386 -0.6291 -0.7167
16657TIP3   OH271461   4.082   6.008   2.241 -0.4193 -0.4403 -0.2951
16657TIP3    H171462   4.115   5.923   2.213 -1.0302 -0.5568 -0.6621
16657TIP3    H271463   4.141   6.035   2.311 -0.0382 -1.0224 -0.3930
16658TIP3   OH271464   0.361   0.857  15.383  1.5410  0.1073  0.1987
16658TIP3    H171465   0.291   0.799  15.412  1.4441 -0.5268 -1.2470
16658TIP3    H271466   0.333   0.944  15.411  0.6534 -0.2720  0.5077
16659TIP3   OH271467   2.295   3.560   3.082  0.4044 -0.0316 -0.0370
16659TIP3    H171468   2.364   3.497   3.062 -0.7221 -1.1710 -0.4642
16659TIP3    H271469   2.264   3.536   3.169 -1.1910 -1.2094 -0.8868
16660TIP3   OH271470   5.976   4.070   1.526 -0.3704 -0.0442 -0.7314
16660TIP3    H171471   5.911   4.116   1.579 -0.7919 -1.5981  0.1343
16660TIP3    H271472   5.940   3.982   1.515  1.4101 -0.8169 -0.5639
16661TIP3   OH271473   4.150   5.213   5.067 -0.1314  0.1776 -0.2811
16661TIP3    H171474   4.110   5.295   5.037 -0.6514 -0.3974 -1.1911
16661TIP3    H271475   4.075   5.159   5.095  0.3904  0.9608  2.7337
16662TIP3   OH271476   4.813   5.687  14.223 -0.1236 -0.2854 -0.2538
16662TIP3    H171477   4.848   5.609  14.266  0.0033 -0.0952 -0.0066
16662TIP3    H271478   4.718   5.680  14.234 -0.0837 -0.1774  0.1650
16663TIP3   OH271479   4.032   5.853   3.883  0.0204  0.2463  0.0370
16663TIP3    H171480   4.059   5.929   3.934 -0.8743 -0.3356  1.4176
16663TIP3    H271481   4.113   5.806   3.865  0.5594  1.4118 -0.6651
16664TIP3   OH271482   6.266   2.999   3.883 -0.3850  0.2695  0.0233
16664TIP3    H171483   6.212   3.066   3.926  1.3998 -1.1397  4.8604
16664TIP3    H271484   6.346   3.045   3.858  0.1017  0.3765  1.7087
16665TIP3   OH271485   5.032   0.611   0.573  0.5532 -0.4900  0.7997
16665TIP3    H171486   5.063   0.691   0.530 -0.2301 -0.3667  0.4616
16665TIP3    H271487   5.022   0.547   0.503 -3.7455  0.6257  0.2571
16666TIP3   OH271488   1.701   0.852  16.794  0.5113  0.5295  0.1776
16666TIP3    H171489   1.687   0.905  16.872  0.4836 -0.3870  0.8092
16666TIP3    H271490   1.670   0.765  16.819  1.6230 -0.0606 -0.4535
16667TIP3   OH271491   1.671   6.478   3.898 -0.3485 -0.1193  0.0387
16667TIP3    H171492   1.734   6.529   3.950  1.2308  0.7500 -2.5845
16667TIP3    H271493   1.637   6.412   3.959  0.6460  1.4856  2.4157
16668TIP3   OH271494   3.967   2.708   3.751  0.0249  0.4485  0.0802
16668TIP3    H171495   4.022   2.631   3.767 -0.1978  0.2277 -0.1915
16668TIP3    H271496   3.957   2.709   3.655 -0.1284  0.7072  0.1012
16669TIP3   OH271497   1.668   5.834   1.517 -0.5592  0.4779  0.0447
16669TIP3    H171498   1.756   5.804   1.538 -0.3650 -0.0179 -1.3981
16669TIP3    H271499   1.638   5.773   1.449 -1.2775  1.8055 -0.8373
16670TIP3   OH271500   5.839   5.033   3.393 -0.2496  0.5285  0.4162
16670TIP3    H171501   5.768   4.973   3.374 -3.1284  3.8770  0.0681
16670TIP3    H271502   5.859   5.019   3.485  1.1668 -2.9257 -0.3460
16671TIP3   OH271503   1.223   1.544  15.908  0.8676  0.4875  0.0347
16671TIP3    H171504   1.220   1.586  15.994  1.9955 -0.0662  0.3540
16671TIP3    H271505   1.141   1.495  15.902 -0.2589  2.3404 -0.1549
16672TIP3   OH271506   4.292   4.512   2.348  0.4716 -0.4620 -0.1640
16672TIP3    H171507   4.286   4.439   2.287  0.3320  1.1086 -2.0760
16672TIP3    H271508   4.319   4.587   2.294  1.4121  0.7300  1.8779
16673TIP3   OH271509   4.247   5.346   4.208 -0.4564 -0.0881  0.0641
16673TIP3    H171510   4.205   5.339   4.294 -1.1725 -0.2519 -0.2972
16673TIP3    H271511   4.332   5.304   4.220 -0.1303  0.8059  0.9716
16674TIP3   OH271512   4.966   3.796  15.314  0.1352  0.1422  0.1870
16674TIP3    H171513   5.008   3.785  15.229 -0.2181  0.0626  0.0221
16674TIP3    H271514   4.879   3.758  15.303 -0.0528  0.4921  0.4657
16675TIP3   OH271515   4.259   2.850   5.179  0.1895  0.5584  0.5501
16675TIP3    H171516   4.194   2.845   5.109 -0.1626 -0.7050  0.9398
16675TIP3    H271517   4.343   2.834   5.136  0.0444  0.4592  0.3048
16676TIP3   OH271518   4.451   5.450  13.466 -0.1395 -0.1508  0.1607
16676TIP3    H171519   4.376   5.508  13.457  0.5897  0.9594  1.0993
16676TIP3    H271520   4.527   5.509  13.465  0.6527 -1.1600  0.2801
16677TIP3   OH271521   6.435   4.977   5.992  0.2650  0.4436 -0.4036
16677TIP3    H171522   6.524   5.011   6.005  0.1620  0.5813 -0.0298
16677TIP3    H271523   6.380   5.035   6.046  0.0198  0.0167 -0.1932
16678TIP3   OH271524   5.890   4.111  11.426 -0.7469  0.3532 -0.3669
16678TIP3    H171525   5.916   4.048  11.494 -1.2643 -0.6210 -1.0570
16678TIP3    H271526   5.797   4.094  11.412 -0.5146  0.1689 -1.7169
16679TIP3   OH271527   3.511   2.553  13.343 -0.0632  0.4562 -0.3902
16679TIP3    H171528   3.440   2.530  13.403  0.5654  1.7430  0.8769
16679TIP3    H271529   3.546   2.469  13.315  1.7469 -0.2307  3.5987
16680TIP3   OH271530   2.275   5.350  10.984  0.2452 -0.0245  0.4523
16680TIP3    H171531   2.275   5.341  10.889  0.4015 -0.5401  0.5048
16680TIP3    H271532   2.198   5.404  11.003  0.7030  0.8038 -0.0363
16681TIP3   OH271533   1.402   6.218  16.446  0.4668  0.0402 -0.4588
16681TIP3    H171534   1.371   6.301  16.481 -0.0058 -0.4400  0.2969
16681TIP3    H271535   1.356   6.152  16.499  1.4844 -0.6906 -0.4735
16682TIP3   OH271536   0.281   1.527  13.829  0.6698 -0.6589 -0.2779
16682TIP3    H171537   0.369   1.530  13.791  0.9571 -1.2894  0.3226
16682TIP3    H271538   0.227   1.489  13.760  0.6926  0.5157 -0.9608
16683TIP3   OH271539   1.535   6.273   1.756 -0.1266  0.1984  0.2048
16683TIP3    H171540   1.534   6.179   1.736 -1.2303  0.5698 -1.5412
16683TIP3    H271541   1.485   6.280   1.838 -0.8854 -0.6226 -0.1809
16684TIP3   OH271542   4.617   1.705   0.901 -0.0128  0.3583  0.5421
16684TIP3    H171543   4.548   1.656   0.947 -1.8622  0.0800 -2.3770
16684TIP3    H271544   4.667   1.638   0.855  0.8190  0.7649  0.8565
16685TIP3   OH271545   1.474   6.379  14.103  0.4052 -0.6806  0.2257
16685TIP3    H171546   1.486   6.450  14.166  0.9945  0.4807 -1.1556
16685TIP3    H271547   1.487   6.299  14.154 -0.5175  0.1905  1.8550
16686TIP3   OH271548   4.190   2.133  11.191 -0.0035  0.4598 -0.0961
16686TIP3    H171549   4.144   2.062  11.146 -2.0379  2.0676 -0.6192
16686TIP3    H271550   4.159   2.128  11.281  1.3932 -0.5672  0.3321
16687TIP3   OH271551   0.492   2.080  15.835 -0.0196 -0.5042 -0.0403
16687TIP3    H171552   0.523   1.999  15.795 -0.5846 -0.6769 -0.1430
16687TIP3    H271553   0.402   2.060  15.861  0.4720 -0.5106  1.6737
16688TIP3   OH271554   2.737   6.398  12.200 -0.7236 -0.1395  0.1984
16688TIP3    H171555   2.808   6.368  12.257 -0.8997 -1.5101 -0.2737
16688TIP3    H271556   2.659   6.392  12.255 -1.1831 -3.2367 -0.6679
16689TIP3   OH271557   5.179   2.516  11.773  0.4012 -0.9536  0.0532
16689TIP3    H171558   5.171   2.605  11.741  0.4073 -1.2650 -0.8355
16689TIP3    H271559   5.229   2.524  11.854 -0.9697  0.0033  0.8176
16690TIP3   OH271560   1.856   4.743   5.993  0.6461 -0.0635  0.0713
16690TIP3    H171561   1.871   4.679   5.923 -1.3105 -1.8596  1.2210
16690TIP3    H271562   1.864   4.691   6.074 -0.8953  1.1634  1.0286
16691TIP3   OH271563   4.257   2.109   3.007 -0.0542  0.0050 -0.2618
16691TIP3    H171564   4.307   2.190   3.019  1.2490 -0.8254  0.0457
16691TIP3    H271565   4.234   2.082   3.095  0.3537 -0.4791 -0.3044
16692TIP3   OH271566   1.584   6.178   3.633  0.1628  0.0967  0.0078
16692TIP3    H171567   1.597   6.272   3.619  0.2420 -0.0570 -0.9534
16692TIP3    H271568   1.565   6.143   3.546 -3.5833 -0.1842  0.8545
16693TIP3   OH271569   5.923   1.327  12.463 -0.0881 -0.7679  0.0575
16693TIP3    H171570   5.882   1.277  12.393  0.5420 -1.8461  0.4590
16693TIP3    H271571   5.862   1.400  12.478 -0.0098 -0.2725 -1.8939
16694TIP3   OH271572   6.794   1.142   4.970  0.4622 -0.0342  0.1156
16694TIP3    H171573   6.843   1.075   4.923  1.9995  1.1398 -0.0071
16694TIP3    H271574   6.859   1.184   5.027 -0.8553  0.1628  1.5089
16695TIP3   OH271575   4.775   2.706  12.677  0.7118 -0.2065 -0.1770
16695TIP3    H171576   4.725   2.773  12.629 -1.5435 -2.3546 -0.9293
16695TIP3    H271577   4.839   2.674  12.613  0.1256 -0.4993 -0.6282
16696TIP3   OH271578   2.567   3.584  15.682 -0.3791  0.1242 -0.0697
16696TIP3    H171579   2.524   3.654  15.731  0.2189 -0.8669  1.9391
16696TIP3    H271580   2.496   3.524  15.659 -0.5857  0.3076  0.0872
16697TIP3   OH271581   6.537   1.070   5.981  0.4997  0.1602 -0.1987
16697TIP3    H171582   6.494   0.996   5.937  2.6102 -1.0339 -0.3228
16697TIP3    H271583   6.560   1.130   5.911  2.0204 -0.7754 -0.5089
16698TIP3   OH271584   4.905   2.526   3.718  0.1347  0.3819  0.0567
16698TIP3    H171585   4.858   2.564   3.792  0.7355 -2.2862  1.9017
16698TIP3    H271586   4.968   2.593   3.692  0.5098  1.0365  2.5401
16699TIP3   OH271587   6.595   3.474  11.770  0.3055 -0.9208  0.2508
16699TIP3    H171588   6.548   3.447  11.691  1.1994 -1.0671 -0.2351
16699TIP3    H271589   6.554   3.424  11.840 -0.8676 -0.3824 -0.0201
16700TIP3   OH271590   1.751   4.541   5.203  0.2737 -0.2938 -0.4070
16700TIP3    H171591   1.725   4.503   5.288  0.5118 -0.9460 -0.6239
16700TIP3    H271592   1.838   4.577   5.219  0.2087 -0.1827 -0.3016
16701TIP3   OH271593   4.361   5.319  13.725 -0.1645 -0.0605  0.5516
16701TIP3    H171594   4.339   5.231  13.693  2.1898 -1.2201  1.9563
16701TIP3    H271595   4.389   5.367  13.647  0.1459 -1.0719  0.0352
16702TIP3   OH271596   3.671   0.011  15.425  0.3957 -0.5527 -0.2734
16702TIP3    H171597   3.662   0.019  15.330 -0.9210 -1.1373 -0.2175
16702TIP3    H271598   3.582  -0.006  15.456  0.4776  1.5875  1.2777
16703TIP3   OH271599   3.632   4.299   1.154 -0.7543  0.5426  0.5374
16703TIP3    H171600   3.547   4.339   1.173 -0.3601  1.0216  1.2807
16703TIP3    H271601   3.687   4.322   1.228  0.0604  0.3098  0.0089
16704TIP3   OH271602   5.039   3.538   3.074 -0.3327 -0.1656  0.2090
16704TIP3    H171603   5.018   3.631   3.070  2.0904  0.4093  0.1042
16704TIP3    H271604   5.108   3.526   3.009  0.1691 -1.8077  1.0158
16705TIP3   OH271605   2.663   2.756   5.863  0.2994 -0.2579  0.2369
16705TIP3    H171606   2.629   2.681   5.815  0.3926  0.3472 -0.7993
16705TIP3    H271607   2.732   2.720   5.919  2.0872 -0.6057 -2.0974
16706TIP3   OH271608   6.101   3.063   0.010 -0.5146 -0.2885  0.2344
16706TIP3    H171609   6.067   3.027   0.092 -1.8248  1.3315  0.4327
16706TIP3    H271610   6.042   3.031  -0.058 -0.1221 -0.6661  0.0665
16707TIP3   OH271611   2.394   2.978   3.016  0.1298  0.6498  0.4413
16707TIP3    H171612   2.422   2.975   2.925 -1.4645 -0.1757 -0.0329
16707TIP3    H271613   2.301   3.004   3.012 -0.5320 -1.4447  1.6953
16708TIP3   OH271614   1.030   1.328  17.014 -0.1883  0.5958  0.2232
16708TIP3    H171615   1.011   1.246  17.061  0.6074  0.7585  0.8323
16708TIP3    H271616   1.001   1.397  17.073  1.2046  0.8156  0.6790
16709TIP3   OH271617   1.679   4.317  14.136  0.2775  0.8333 -0.1696
16709TIP3    H171618   1.649   4.356  14.218  1.0953  0.4825  0.2973
16709TIP3    H271619   1.602   4.319  14.079  0.2918  3.0828 -0.1546
16710TIP3   OH271620   3.687   0.913  16.653  0.4000 -0.1045  0.1097
16710TIP3    H171621   3.680   0.821  16.679  0.7339 -0.3259 -0.5747
16710TIP3    H271622   3.730   0.955  16.727 -1.9625 -0.0229  1.4858
16711TIP3   OH271623   5.792   6.047   6.322 -0.4604 -0.5072  0.0741
16711TIP3    H171624   5.738   6.060   6.400 -0.2451 -2.3327  0.5463
16711TIP3    H271625   5.802   6.135   6.285 -2.2204  0.1084  0.9941
16712TIP3   OH271626   6.817   5.950  14.351  0.2147 -0.1029  0.7609
16712TIP3    H171627   6.830   5.923  14.260 -1.0005  0.9293  0.2621
16712TIP3    H271628   6.879   6.022  14.364 -2.4111  2.5618 -0.5835
16713TIP3   OH271629   2.050   4.923   1.218 -0.0109  0.3773 -0.1671
16713TIP3    H171630   1.991   4.859   1.177  1.6443 -1.0023 -0.4221
16713TIP3    H271631   2.010   4.941   1.304 -0.2944 -1.2808  0.0541
16714TIP3   OH271632   6.087   2.109  16.318  0.5826  0.0952 -0.0911
16714TIP3    H171633   6.089   2.045  16.246 -0.3939 -0.3659  0.2861
16714TIP3    H271634   6.006   2.089  16.366  0.3033  1.5575  0.0796
16715TIP3   OH271635   4.197   4.681  11.908 -0.7834  0.2613 -0.4393
16715TIP3    H171636   4.212   4.774  11.893  2.2069  0.1712  1.5616
16715TIP3    H271637   4.278   4.639  11.881 -0.6743 -1.3298  2.1910
16716TIP3   OH271638   3.113   0.210   2.059 -0.1081  0.6603  0.5154
16716TIP3    H171639   3.061   0.130   2.055 -0.7013  1.0487  0.4187
16716TIP3    H271640   3.186   0.188   2.118  0.6674 -0.4833 -0.8405
16717TIP3   OH271641   5.195   1.476  14.899 -0.7121  0.8166  0.6586
16717TIP3    H171642   5.201   1.478  14.803  3.2426  0.6171  0.8389
16717TIP3    H271643   5.181   1.568  14.924 -0.2532  1.0802 -0.0411
16718TIP3   OH271644   5.597   2.496  13.551 -0.4963  0.8876 -0.3856
16718TIP3    H171645   5.601   2.522  13.643  1.4294  0.3540 -0.3038
16718TIP3    H271646   5.540   2.562  13.511  0.0897  2.1847  0.8334
16719TIP3   OH271647   2.310   6.196  12.224  0.0686 -0.0608  0.4455
16719TIP3    H171648   2.370   6.180  12.151  1.2413  0.8907  1.1824
16719TIP3    H271649   2.223   6.202  12.183  0.8797  1.9659 -1.0692
16720TIP3   OH271650   5.838   4.609   4.106  0.1881  0.8776 -0.2126
16720TIP3    H171651   5.789   4.628   4.186 -1.1900  0.4632 -0.9489
16720TIP3    H271652   5.835   4.691   4.057 -0.8419  0.4812 -0.8169
16721TIP3   OH271653   3.146   1.899  16.812 -0.0376  0.1735 -0.2486
16721TIP3    H171654   3.128   1.824  16.868 -0.2798  0.2985 -0.1587
16721TIP3    H271655   3.242   1.902  16.806  0.0191  0.7267  0.9172
16722TIP3   OH271656   3.469   6.347  14.150  0.5012  0.2957  0.2970
16722TIP3    H171657   3.391   6.300  14.179  0.0315  0.7077 -0.2880
16722TIP3    H271658   3.539   6.314  14.206 -0.0662 -0.1763  0.7326
16723TIP3   OH271659   4.212   6.704  13.919  0.0231 -0.3683 -0.2436
16723TIP3    H171660   4.127   6.665  13.939 -0.5965  1.3041  0.4714
16723TIP3    H271661   4.208   6.791  13.959  1.4275  0.3674 -1.6760
16724TIP3   OH271662   1.489   2.666   4.608  0.7461 -0.1383  0.6958
16724TIP3    H171663   1.566   2.636   4.656  0.1033 -1.4475  0.9394
16724TIP3    H271664   1.415   2.643   4.664  0.1561  0.9563  0.3894
16725TIP3   OH271665   0.075   2.323   4.369 -0.2797  0.4351  0.7773
16725TIP3    H171666  -0.000   2.267   4.349  0.0289  0.7916 -1.5903
16725TIP3    H271667   0.140   2.299   4.303  0.5411  2.2470  0.9122
16726TIP3   OH271668   1.807   6.453  14.144  0.0150 -0.2441  0.2803
16726TIP3    H171669   1.723   6.497  14.133  1.2643  2.4523  0.9418
16726TIP3    H271670   1.848   6.456  14.058 -0.2860 -0.9885  0.1071
16727TIP3   OH271671   0.765   5.883   0.024  0.0207 -0.1466 -0.0993
16727TIP3    H171672   0.701   5.897   0.093  0.7194 -0.3566  0.5984
16727TIP3    H271673   0.736   5.939  -0.048 -0.9154 -0.2110  0.2273
16728TIP3   OH271674   5.836   1.069  15.044 -0.3320  0.4445  0.3625
16728TIP3    H171675   5.931   1.054  15.050 -0.5385 -1.1148 -0.0845
16728TIP3    H271676   5.814   1.114  15.126  0.5991 -0.2564  1.0160
16729TIP3   OH271677   1.594   0.788  15.853  0.2618 -0.1717  0.0138
16729TIP3    H171678   1.503   0.768  15.832 -0.4689 -0.7355  3.5385
16729TIP3    H271679   1.644   0.718  15.810 -0.9376 -0.0563 -1.6415
16730TIP3   OH271680   1.581   5.989   0.349 -0.3358 -0.1466 -0.4138
16730TIP3    H171681   1.581   6.083   0.328  2.5632  0.1579  0.6278
16730TIP3    H271682   1.530   5.983   0.430  0.8060  0.7979  0.3995
16731TIP3   OH271683   5.458   2.716  15.432 -0.8859  0.6367 -0.2575
16731TIP3    H171684   5.391   2.691  15.369 -1.0796  1.0458 -0.2127
16731TIP3    H271685   5.410   2.743  15.509 -0.6654  0.8031 -0.1784
16732TIP3   OH271686   2.197   1.153   5.667 -0.2005 -0.2833 -0.1758
16732TIP3    H171687   2.140   1.198   5.605  0.4453 -0.5039 -0.9419
16732TIP3    H271688   2.200   1.062   5.637  0.6034 -0.2609 -0.1938
16733TIP3   OH271689   6.410   6.469  16.321 -0.4434 -0.0216 -1.0630
16733TIP3    H171690   6.340   6.454  16.384  1.1096 -1.8808  0.2534
16733TIP3    H271691   6.436   6.382  16.291  2.5275  0.4775 -0.1481
16734TIP3   OH271692   2.483   2.666   4.220 -0.6561  0.0783  0.2246
16734TIP3    H171693   2.502   2.755   4.188 -0.1144  0.1291  0.6583
16734TIP3    H271694   2.453   2.680   4.310 -1.8845 -0.0790 -0.1641
16735TIP3   OH271695   5.509   3.039   1.267  0.2981  0.1568  0.0266
16735TIP3    H171696   5.471   2.956   1.238  0.4670 -0.1277  0.6157
16735TIP3    H271697   5.469   3.104   1.210  1.0966 -0.4686 -1.2657
16736TIP3   OH271698   4.931   3.689  14.583  0.4323 -0.4206  0.0093
16736TIP3    H171699   4.962   3.599  14.576 -0.1059 -0.5666 -0.6369
16736TIP3    H271700   4.846   3.681  14.628 -0.3748 -0.4149 -1.4789
16737TIP3   OH271701   6.078   1.771  12.086 -0.3061 -0.1887 -0.2516
16737TIP3    H171702   6.114   1.706  12.026  2.9093  1.0678  0.1929
16737TIP3    H271703   6.148   1.835  12.097 -1.4169  0.5275  3.5150
16738TIP3   OH271704   3.937   3.434   1.288  0.1427  0.1155 -0.0869
16738TIP3    H171705   3.886   3.419   1.208 -0.1672 -2.0087  0.4790
16738TIP3    H271706   3.872   3.466   1.351 -0.0846 -0.5832  0.0324
16739TIP3   OH271707   3.498   4.102   2.401  0.5263 -0.2213 -0.1090
16739TIP3    H171708   3.542   4.183   2.427  1.4777 -1.2853  1.6424
16739TIP3    H271709   3.524   4.038   2.466 -3.4464 -0.9787  0.9095
16740TIP3   OH271710   4.963   2.144   1.615 -0.2039  0.3133  0.3497
16740TIP3    H171711   4.873   2.147   1.646 -0.9176 -0.3303 -1.5799
16740TIP3    H271712   4.988   2.052   1.624 -1.7057 -0.6812 -4.3446
16741TIP3   OH271713   6.481   0.519   5.917 -0.1167  0.0744 -0.0882
16741TIP3    H171714   6.500   0.488   5.829  0.2634 -3.1600  1.0568
16741TIP3    H271715   6.387   0.503   5.928 -0.2187  0.7358 -0.0237
16742TIP3   OH271716   3.159   0.827   2.732  0.5175 -0.4422 -0.7495
16742TIP3    H171717   3.090   0.847   2.669 -0.0817 -0.4431 -0.1023
16742TIP3    H271718   3.115   0.829   2.817  1.2438 -0.7776 -0.3602
16743TIP3   OH271719   1.778   3.827   4.345  0.1516 -0.2121  0.1309
16743TIP3    H171720   1.718   3.887   4.390  1.0878  0.4926  0.4351
16743TIP3    H271721   1.861   3.837   4.390  0.7979 -0.3529 -1.0148
16744TIP3   OH271722   5.348   6.101  11.592  0.5348 -0.0462 -0.0608
16744TIP3    H171723   5.354   6.141  11.678 -1.0969  1.4642 -0.6255
16744TIP3    H271724   5.308   6.015  11.608 -1.2078  0.8432  0.5519
16745TIP3   OH271725   3.805   1.488   3.886  0.1728 -0.6652 -1.1299
16745TIP3    H171726   3.868   1.422   3.916 -1.3953 -2.7005 -2.2054
16745TIP3    H271727   3.785   1.540   3.964  3.7264  0.5377 -0.9116
16746TIP3   OH271728   2.951   2.838   0.484 -0.1838  0.1313  0.2297
16746TIP3    H171729   2.896   2.879   0.417  0.6417 -0.7562 -1.0090
16746TIP3    H271730   3.039   2.872   0.467  0.2094 -0.8644  0.2303
16747TIP3   OH271731   2.552   1.697   2.563  0.3596  0.3721 -0.3068
16747TIP3    H171732   2.571   1.649   2.643  0.1034  1.3797  0.3616
16747TIP3    H271733   2.613   1.771   2.564 -0.5823  1.1541 -0.3603
16748TIP3   OH271734   0.683   0.469  10.497 -0.2393  0.6067  0.0348
16748TIP3    H171735   0.644   0.511  10.420  0.9736 -0.9684 -1.4716
16748TIP3    H271736   0.756   0.526  10.521 -1.3887  1.7761  0.8107
16749TIP3   OH271737   5.692   2.847  11.802 -0.1493  0.2020  0.3945
16749TIP3    H171738   5.603   2.880  11.789  0.1744  0.5377 -1.0190
16749TIP3    H271739   5.695   2.824  11.895 -0.9188  2.6004  1.0629
16750TIP3   OH271740   3.128   5.717  13.025 -0.1417  0.0854 -0.2140
16750TIP3    H171741   3.062   5.787  13.027  1.8239  1.9754  0.9087
16750TIP3    H271742   3.150   5.707  12.932 -0.0334  1.3723 -0.3351
16751TIP3   OH271743   2.284   5.581  16.349 -0.1567  0.0505 -0.0134
16751TIP3    H171744   2.288   5.509  16.413  1.4091  1.7021  1.7946
16751TIP3    H271745   2.361   5.569  16.294 -0.2976 -0.0640 -0.1898
16752TIP3   OH271746   1.782   2.838   0.811 -0.1718  0.0223  0.2402
16752TIP3    H171747   1.730   2.917   0.799 -1.2358 -0.4946  1.4116
16752TIP3    H271748   1.813   2.842   0.901 -0.0079 -0.7599  0.2292
16753TIP3   OH271749   4.854   0.378  16.340  0.4067 -0.3861 -0.1275
16753TIP3    H171750   4.883   0.461  16.376  0.8473 -0.4562 -0.3233
16753TIP3    H271751   4.847   0.320  16.415 -2.9997  0.7057  0.4696
16754TIP3   OH271752   1.808   2.836   1.389  0.4290 -0.3335 -0.2672
16754TIP3    H171753   1.825   2.850   1.482 -0.8543  3.3624 -0.4922
16754TIP3    H271754   1.755   2.756   1.386 -1.0111  0.4614  2.3525
16755TIP3   OH271755   2.531   6.319  15.448 -0.2974 -0.2360 -0.2336
16755TIP3    H171756   2.438   6.334  15.462 -1.1651 -3.6234 -1.9821
16755TIP3    H271757   2.546   6.343  15.356  0.3440 -0.6055 -0.2323
16756TIP3   OH271758   0.842   3.913  14.704  0.0996  0.0195 -0.0723
16756TIP3    H171759   0.911   3.977  14.687 -0.9034  0.9529 -0.7237
16756TIP3    H271760   0.851   3.849  14.633  0.3696  0.0628 -0.0779
16757TIP3   OH271761   0.333   3.213   1.570 -0.0055 -0.0797 -0.4857
16757TIP3    H171762   0.384   3.170   1.638  2.0000 -0.9558 -2.5182
16757TIP3    H271763   0.253   3.160   1.563 -0.0305 -0.2324  0.8747
16758TIP3   OH271764   3.419   4.747   5.839 -0.3769 -0.0956  0.7146
16758TIP3    H171765   3.404   4.728   5.931 -2.5464  0.2152  0.4569
16758TIP3    H271766   3.483   4.681   5.811 -1.5147 -1.7423  1.8664
16759TIP3   OH271767   2.342   1.755  15.166 -0.0117  0.3008 -0.1235
16759TIP3    H171768   2.354   1.681  15.225  0.1625  1.1532  0.9161
16759TIP3    H271769   2.367   1.721  15.080  3.0503  0.0194  0.8440
16760TIP3   OH271770   6.047   6.576  11.625  0.0110 -0.4719 -0.1436
16760TIP3    H171771   6.007   6.608  11.544  1.7787  0.5755 -0.6149
16760TIP3    H271772   5.998   6.620  11.694  1.0565  1.6817 -0.7406
16761TIP3   OH271773   5.922   1.580  16.104 -0.0511 -0.5327  0.1526
16761TIP3    H171774   5.896   1.614  16.189  0.8510  0.6884 -0.0489
16761TIP3    H271775   6.016   1.566  16.111 -0.0224 -0.7177 -0.5522
16762TIP3   OH271776   6.001   1.294   6.297  0.2372 -0.1804 -0.6223
16762TIP3    H171777   5.920   1.326   6.259 -0.3691  0.1145  0.8888
16762TIP3    H271778   5.974   1.228   6.361  1.2412 -0.7643 -0.7786
16763TIP3   OH271779   1.585   3.579  16.377  1.0125 -0.1800 -0.0709
16763TIP3    H171780   1.506   3.557  16.427  1.1144 -0.3742  0.0068
16763TIP3    H271781   1.651   3.517  16.408  0.8933 -0.7421 -0.9192
16764TIP3   OH271782   4.728   6.257  11.798 -0.1298  0.0472 -0.1928
16764TIP3    H171783   4.810   6.302  11.821 -0.2066  0.4557 -0.7222
16764TIP3    H271784   4.682   6.318  11.742 -0.5298 -0.4347 -0.3916
16765TIP3   OH271785   1.614   1.490   2.663  0.0919 -0.0500  0.1137
16765TIP3    H171786   1.589   1.563   2.606  2.1884  0.4024 -0.3035
16765TIP3    H271787   1.658   1.428   2.605 -2.0635 -1.8876  0.3876
16766TIP3   OH271788   3.800   0.301   0.817  0.6450 -0.5495  0.5721
16766TIP3    H171789   3.831   0.292   0.727 -0.2255  0.2634  0.1882
16766TIP3    H271790   3.717   0.348   0.810 -0.6736 -2.6709  1.5994
16767TIP3   OH271791   5.411   3.192   1.061 -0.3208  0.4792  0.3998
16767TIP3    H171792   5.357   3.116   1.040 -0.1637  0.8755 -1.5647
16767TIP3    H271793   5.354   3.267   1.045 -0.0987  0.8105  1.1532
16768TIP3   OH271794   5.795   2.452   3.524 -0.2022  0.2028 -0.3608
16768TIP3    H171795   5.707   2.417   3.537  0.1193 -0.2557  0.6491
16768TIP3    H271796   5.783   2.526   3.465 -1.2746  0.2020 -0.1567
16769TIP3   OH271797   4.885   6.811  11.267 -0.2529  0.4978  0.2964
16769TIP3    H171798   4.875   6.906  11.263 -0.8794  0.3661 -1.6300
16769TIP3    H271799   4.818   6.777  11.208  0.5039 -1.1112  0.3241
16770TIP3   OH271800   4.130   2.234  16.290 -0.3281  0.3137  0.4239
16770TIP3    H171801   4.056   2.215  16.347 -1.2855 -1.2182 -1.2654
16770TIP3    H271802   4.090   2.267  16.209  0.7210 -1.7572 -0.9911
16771TIP3   OH271803   0.405   5.228   2.666 -0.0092 -0.2254  0.6984
16771TIP3    H171804   0.384   5.321   2.657  3.2904  0.6497  1.0167
16771TIP3    H271805   0.384   5.207   2.757  1.5514  0.9049  1.3384
16772TIP3   OH271806   2.572   6.812   4.152  0.1605  0.9496 -0.1923
16772TIP3    H171807   2.575   6.778   4.242  0.0637  0.6607 -0.2983
16772TIP3    H271808   2.494   6.868   4.151  1.8452  3.3676  0.7550
16773TIP3   OH271809   0.687   1.887  16.601 -0.4888 -0.5325 -0.2701
16773TIP3    H171810   0.621   1.903  16.534  0.3759 -0.5568 -1.1322
16773TIP3    H271811   0.692   1.792  16.608 -0.6050 -0.5302 -0.1280
16774TIP3   OH271812   3.833   4.454  11.335  0.0412  0.4943  0.5313
16774TIP3    H171813   3.782   4.517  11.284  0.5571  0.1180 -0.4707
16774TIP3    H271814   3.813   4.475  11.426 -1.7008  0.5237  0.1735
16775TIP3   OH271815   1.417   5.276   6.748 -0.4635  0.4794 -0.2834
16775TIP3    H171816   1.387   5.261   6.837  0.5840 -1.8585 -0.2779
16775TIP3    H271817   1.352   5.335   6.709 -1.3754  0.8253  1.7415
16776TIP3   OH271818   2.170   4.434  14.823 -0.0313 -0.3586 -0.1847
16776TIP3    H171819   2.152   4.479  14.741 -1.0023 -0.9238 -0.2873
16776TIP3    H271820   2.221   4.357  14.797 -1.4251 -1.2217 -0.4116
16777TIP3   OH271821   5.499   5.980   5.395  0.0937 -0.3619  0.7512
16777TIP3    H171822   5.494   5.974   5.490  2.6019  1.2114  1.0267
16777TIP3    H271823   5.593   5.988   5.376 -0.4689  0.9809 -1.7378
16778TIP3   OH271824   4.259   2.380  15.379  0.3499  0.2573 -0.1020
16778TIP3    H171825   4.170   2.353  15.401  0.4325 -0.7231 -0.9608
16778TIP3    H271826   4.305   2.381  15.463  0.1519 -1.5635  0.0476
16779TIP3   OH271827   4.412   0.210  17.147  0.3793  0.1976 -0.7969
16779TIP3    H171828   4.441   0.127  17.109  1.3928  0.4123 -0.4977
16779TIP3    H271829   4.485   0.270  17.133  0.2074  0.6605  0.2288
16780TIP3   OH271830   4.391   5.801  14.883  0.0971  0.0550  0.0289
16780TIP3    H171831   4.328   5.737  14.850  1.9062 -0.5063 -2.4580
16780TIP3    H271832   4.416   5.767  14.969 -1.5141 -0.7295  0.2188
16781TIP3   OH271833   4.672   3.831   1.632  0.3316  0.2529 -0.2894
16781TIP3    H171834   4.763   3.842   1.602  0.8603 -1.2449  0.7440
16781TIP3    H271835   4.658   3.737   1.632 -0.7055  0.3951  1.1260
16782TIP3   OH271836   1.978   0.561  17.234 -0.5795 -0.5011 -0.0420
16782TIP3    H171837   1.985   0.531  17.325 -3.0070  0.7052  0.6004
16782TIP3    H271838   1.967   0.481  17.183  1.2421 -1.2219  0.6640
16783TIP3   OH271839   3.871   3.635  14.113  0.5183 -0.0889 -0.4746
16783TIP3    H171840   3.961   3.660  14.092 -0.3099  2.6712 -0.9697
16783TIP3    H271841   3.847   3.692  14.186 -0.4145 -1.7326  0.5303
16784TIP3   OH271842   2.227   1.815  13.093  0.2026  0.7504  0.1000
16784TIP3    H171843   2.202   1.724  13.110  0.3472  0.7100  0.0927
16784TIP3    H271844   2.159   1.848  13.033 -1.5335  1.5368  2.4236
16785TIP3   OH271845   1.692   4.738   3.312 -0.1069  0.3063 -0.1373
16785TIP3    H171846   1.759   4.695   3.365  0.3215 -0.5561 -1.3275
16785TIP3    H271847   1.714   4.831   3.316  1.9174 -0.0682 -1.4617
16786TIP3   OH271848   5.325   1.386   4.385 -0.1807 -0.3820 -0.1986
16786TIP3    H171849   5.247   1.442   4.380 -0.9476 -1.4594 -0.5555
16786TIP3    H271850   5.370   1.401   4.302 -0.6266 -0.6394 -0.4887
16787TIP3   OH271851   4.780   1.593   4.096 -0.8566  0.3405  0.4338
16787TIP3    H171852   4.867   1.559   4.077 -1.7287 -3.0750  2.2521
16787TIP3    H271853   4.794   1.661   4.161  0.5513  0.8099 -0.3361
16788TIP3   OH271854   2.393   6.804   0.353 -0.0752  0.2185 -0.2822
16788TIP3    H171855   2.330   6.872   0.331 -1.1714 -0.6563  0.0795
16788TIP3    H271856   2.404   6.811   0.447  1.8284  1.5966 -0.5922
16789TIP3   OH271857   6.604   5.402  13.066 -0.2546  0.0526 -0.5746
16789TIP3    H171858   6.642   5.489  13.055  0.6363 -0.4550 -1.6591
16789TIP3    H271859   6.627   5.355  12.986 -0.4010 -1.3024  0.1519
16790TIP3   OH271860   2.314   5.527   5.080  0.2665 -0.3710  0.1061
16790TIP3    H171861   2.230   5.508   5.120  0.0700 -1.7007 -0.9006
16790TIP3    H271862   2.318   5.469   5.004  1.6349  0.4269 -0.4511
16791TIP3   OH271863   2.600   4.465   3.651  0.4201  0.2945  0.1109
16791TIP3    H171864   2.572   4.399   3.714 -2.1542  0.7872 -0.4560
16791TIP3    H271865   2.527   4.473   3.590  1.2297  2.7020 -0.6137
16792TIP3   OH271866   6.085   6.532   5.660  0.0824  0.5909 -0.5192
16792TIP3    H171867   5.994   6.543   5.688  0.1701  0.6949 -0.2760
16792TIP3    H271868   6.080   6.523   5.565 -0.2309  0.1114 -0.4628
16793TIP3   OH271869   1.362   5.103   2.355  0.0501 -0.2350 -0.3032
16793TIP3    H171870   1.317   5.020   2.369  1.4824 -1.1047 -0.7426
16793TIP3    H271871   1.444   5.094   2.404  0.0420  1.0635 -0.0488
16794TIP3   OH271872   6.436   2.937  12.628 -0.1168 -0.0392  0.0634
16794TIP3    H171873   6.507   2.972  12.683 -0.0119  1.7130 -1.1205
16794TIP3    H271874   6.472   2.857  12.590  0.2742 -0.5635  1.5145
16795TIP3   OH271875   6.124   2.470  15.209  0.2015  0.0568 -0.2706
16795TIP3    H171876   6.203   2.417  15.208 -0.2206 -0.5756 -1.5599
16795TIP3    H271877   6.057   2.413  15.245 -0.3061 -0.4034 -1.8731
16796TIP3   OH271878   4.222   0.774   6.042 -0.0000  0.2864  0.6606
16796TIP3    H171879   4.284   0.753   6.111  0.1022  3.0649  1.4678
16796TIP3    H271880   4.232   0.868   6.028 -2.7426  0.4542 -0.4681
16797TIP3   OH271881   2.834   3.059  11.526  0.1735  0.2415  0.0542
16797TIP3    H171882   2.857   3.151  11.528  0.3884  0.1905 -0.0145
16797TIP3    H271883   2.765   3.049  11.592  0.6624  0.3119  0.5768
16798TIP3   OH271884   3.026   3.384   1.787  0.1644 -1.1495 -0.3319
16798TIP3    H171885   3.024   3.390   1.883  0.4328 -0.1914 -0.3783
16798TIP3    H271886   3.063   3.468   1.759 -1.3409 -0.7960 -1.3428
16799TIP3   OH271887   3.991   5.094  14.289  0.0747 -0.5489 -0.0198
16799TIP3    H171888   3.921   5.102  14.224 -0.6250  0.4072  0.8250
16799TIP3    H271889   4.031   5.010  14.271  0.9407  0.3995 -2.7201
16800TIP3   OH271890   4.238   3.560  13.975 -0.2962 -0.1664 -0.7008
16800TIP3    H171891   4.224   3.480  13.923 -2.0074 -0.0002 -0.5340
16800TIP3    H271892   4.177   3.623  13.938  0.8089  0.9755 -0.6015
16801TIP3   OH271893   2.663   4.286  16.668 -0.3389  0.1319  0.1542
16801TIP3    H171894   2.736   4.245  16.621 -0.2423 -0.2972  0.6775
16801TIP3    H271895   2.591   4.286  16.605  0.5498  2.0187 -0.9387
16802TIP3   OH271896   5.465   5.107   4.720 -0.4176  0.1556  0.2853
16802TIP3    H171897   5.469   5.191   4.766 -0.9543  0.1601  0.3245
16802TIP3    H271898   5.557   5.082   4.708 -0.1851  1.7866 -1.5949
16803TIP3   OH271899   6.354   4.435   4.082  0.0241  0.1916  0.0848
16803TIP3    H171900   6.283   4.474   4.031  2.5271  2.3751 -1.8541
16803TIP3    H271901   6.365   4.494   4.157 -1.1919 -1.0157  1.2562
16804TIP3   OH271902   1.513   3.028   0.525  0.1666  0.1223  0.3803
16804TIP3    H171903   1.572   3.035   0.600  0.3482  1.2643  0.1404
16804TIP3    H271904   1.519   2.936   0.499  2.4062  0.3699 -0.0738
16805TIP3   OH271905   6.467   6.455  15.856 -0.1833  0.7027 -0.0242
16805TIP3    H171906   6.542   6.411  15.894  0.1609  1.0709 -0.2746
16805TIP3    H271907   6.391   6.409  15.892  0.1769 -0.4140 -0.6796
16806TIP3   OH271908   0.240   4.122  13.967 -0.1306 -0.4296  1.0655
16806TIP3    H171909   0.267   4.083  14.050 -3.6081 -0.4798  2.2591
16806TIP3    H271910   0.275   4.211  13.970  3.4159 -1.7083  0.6052
16807TIP3   OH271911   3.076   4.770   0.993  0.2713  0.3078  0.3132
16807TIP3    H171912   3.026   4.838   1.037  0.7374  1.2101 -0.5478
16807TIP3    H271913   3.020   4.692   1.000 -1.0647  1.1868 -0.2516
16808TIP3   OH271914   5.481   6.547   2.905  0.2199 -0.1904 -0.0433
16808TIP3    H171915   5.542   6.582   2.840  1.5954  1.4236  2.0318
16808TIP3    H271916   5.496   6.453   2.905  3.1594  0.2263  0.8004
16809TIP3   OH271917   0.623   4.999   0.530  0.3302  0.0555  0.4602
16809TIP3    H171918   0.551   4.995   0.466 -0.2440  0.8725  1.0410
16809TIP3    H271919   0.676   5.073   0.501 -0.5866  1.1672  1.6011
16810TIP3   OH271920   1.364   3.895  17.146  0.1467 -0.2623 -0.0684
16810TIP3    H171921   1.379   3.951  17.070 -0.8904 -0.3534 -0.3489
16810TIP3    H271922   1.392   3.947  17.221  2.4678 -0.6707 -0.6097
16811TIP3   OH271923   3.012   0.663  14.190  0.3684  0.2004 -0.0939
16811TIP3    H171924   3.042   0.754  14.186 -0.8990  0.6422  0.1463
16811TIP3    H271925   2.936   0.665  14.247  0.1345 -0.9664 -0.3435
16812TIP3   OH271926   3.520   2.536  13.908  0.2872  0.3687  0.5118
16812TIP3    H171927   3.532   2.543  13.814  1.8923  2.0361  0.7988
16812TIP3    H271928   3.535   2.444  13.928  1.6182  0.3250 -0.6472
16813TIP3   OH271929   6.764   1.910   4.560 -0.0867  0.1129 -0.0114
16813TIP3    H171930   6.730   1.964   4.632 -0.6466 -0.6690  0.3246
16813TIP3    H271931   6.858   1.925   4.560 -0.2561  1.1950 -0.0108
16814TIP3   OH271932   4.611   3.539   4.288  0.4245 -0.1912 -0.7518
16814TIP3    H171933   4.623   3.445   4.278  0.5344 -0.4166  1.3061
16814TIP3    H271934   4.693   3.570   4.328  0.1550  0.6831 -0.8580
16815TIP3   OH271935   5.284   4.254  17.004  0.3743 -0.0181  0.1071
16815TIP3    H171936   5.266   4.225  17.094  1.5022  1.7804  0.9282
16815TIP3    H271937   5.363   4.307  17.011  0.5690  0.0169 -1.9914
16816TIP3   OH271938   0.946   6.697  14.705  0.3847 -0.1641 -0.5081
16816TIP3    H171939   0.965   6.647  14.784 -0.0485  0.0309 -0.2814
16816TIP3    H271940   1.032   6.720  14.670  0.5773 -0.2280 -0.0801
16817TIP3   OH271941   4.056   3.863   0.722  0.3997  0.5305  0.0263
16817TIP3    H171942   4.080   3.774   0.747 -0.5492  1.1966  3.5924
16817TIP3    H271943   4.139   3.910   0.718  0.6296  0.2742  1.5792
16818TIP3   OH271944   5.308   2.035  13.264  0.0917  0.1944 -0.1258
16818TIP3    H171945   5.379   2.005  13.320 -0.5671 -1.0113  0.0667
16818TIP3    H271946   5.350   2.094  13.201  1.1429  0.0266  0.4193
16819TIP3   OH271947   6.422   4.491   6.283  0.0601 -0.2813  0.2889
16819TIP3    H171948   6.470   4.463   6.361 -1.1500 -2.4085  0.3249
16819TIP3    H271949   6.471   4.565   6.250  0.6177  0.6695  3.0650
16820TIP3   OH271950   4.709   3.741  15.157  0.4661  0.2292 -0.4531
16820TIP3    H171951   4.681   3.652  15.179 -0.0095 -0.1533 -2.5279
16820TIP3    H271952   4.751   3.732  15.071  3.2285  1.4894  0.6893
16821TIP3   OH271953   2.279   1.341   0.064 -0.1906 -0.1694  0.3919
16821TIP3    H171954   2.208   1.280   0.046 -0.6039  1.0462 -2.3800
16821TIP3    H271955   2.242   1.405   0.124 -1.7535  0.8936 -1.6277
16822TIP3   OH271956   0.637   6.813  11.033 -0.4682  0.1660  0.0897
16822TIP3    H171957   0.553   6.804  10.987  0.2737  0.5484 -1.3841
16822TIP3    H271958   0.691   6.866  10.973  1.6484 -2.1464 -0.0971
16823TIP3   OH271959   4.828   5.615  12.850  0.8392  0.0247 -0.4906
16823TIP3    H171960   4.774   5.567  12.787  0.8381 -1.0641  0.3219
16823TIP3    H271961   4.768   5.678  12.889  0.6887  0.2893 -1.1464
16824TIP3   OH271962   5.901   0.602   0.744  0.1109  0.1677 -0.3152
16824TIP3    H171963   5.843   0.556   0.804  0.5618 -0.1681 -0.1319
16824TIP3    H271964   5.900   0.550   0.663 -0.7472  0.7958 -0.7108
16825TIP3   OH271965   5.406   6.497   3.976  0.3805  0.5807  0.0316
16825TIP3    H171966   5.442   6.546   3.902  2.3677 -0.5425  0.2478
16825TIP3    H271967   5.315   6.481   3.951  0.9904  0.2953 -2.1316
16826TIP3   OH271968   5.924   5.364   2.550  0.0271  0.5519 -0.1872
16826TIP3    H171969   5.833   5.362   2.578 -0.0799  1.1526 -0.4640
16826TIP3    H271970   5.955   5.274   2.559 -0.7305  0.2506 -0.5278
16827TIP3   OH271971   2.417   3.686  16.126 -0.2356  0.5347  0.2928
16827TIP3    H171972   2.380   3.746  16.190 -0.2530  1.3707 -0.4861
16827TIP3    H271973   2.492   3.733  16.089  0.6141 -0.4806  0.6754
16828TIP3   OH271974   6.759   4.252  12.900 -0.1292  0.2637 -0.4474
16828TIP3    H171975   6.808   4.198  12.837  0.7475  1.2787 -0.6490
16828TIP3    H271976   6.672   4.212  12.902  0.4117 -0.9811 -0.8122
16829TIP3   OH271977   1.593   1.386   2.323  0.1881 -0.2936  0.3372
16829TIP3    H171978   1.525   1.323   2.347 -0.4013  0.1569 -0.1146
16829TIP3    H271979   1.668   1.364   2.379 -0.0934 -1.2312  0.3527
16830TIP3   OH271980   1.946   0.704  14.379  0.1080 -0.3593  0.6135
16830TIP3    H171981   1.882   0.770  14.353 -0.2100 -1.3718 -1.2788
16830TIP3    H271982   1.897   0.644  14.434 -0.2821 -0.4867  0.1318
16831TIP3   OH271983   6.142   2.648   1.215 -0.4454  0.3551 -0.4985
16831TIP3    H171984   6.206   2.582   1.186 -0.0130  1.2378 -1.5627
16831TIP3    H271985   6.120   2.697   1.135  0.1282  2.2726  0.5028
16832TIP3   OH271986   3.956   0.165  12.401 -0.2147 -0.2809  0.2980
16832TIP3    H171987   4.016   0.172  12.327 -0.3036  0.0696  0.2536
16832TIP3    H271988   3.935   0.072  12.407  0.1343 -0.3681  0.1558
16833TIP3   OH271989   5.207   3.038   6.789  0.4037  0.2019 -0.0977
16833TIP3    H171990   5.262   3.002   6.719  0.3274  1.5464 -0.8773
16833TIP3    H271991   5.122   3.055   6.747 -0.1804 -0.5716  0.7506
16834TIP3   OH271992   2.909   3.257  15.154  0.4412  0.7863  0.5300
16834TIP3    H171993   2.958   3.293  15.080  1.6270 -0.1368  0.8560
16834TIP3    H271994   2.819   3.287  15.140  0.9625  1.9417 -0.4328
16835TIP3   OH271995   0.998   6.419   1.866  0.1063  0.1900 -0.1857
16835TIP3    H171996   0.968   6.461   1.946 -0.0621  0.0358 -0.1673
16835TIP3    H271997   1.019   6.492   1.807 -1.2287  0.3074 -0.5370
16836TIP3   OH271998   2.945   5.065   0.983 -0.2272 -0.2869  0.1335
16836TIP3    H171999   2.956   5.159   0.998 -0.4583 -0.0317 -1.1646
16836TIP3    H272000   2.852   5.049   0.998 -0.6911  0.1869 -2.0060
16837TIP3   OH272001   5.420   4.232  10.895 -0.0376  0.3455  0.5766
16837TIP3    H172002   5.363   4.161  10.926 -0.7306  0.7619  0.2601
16837TIP3    H272003   5.399   4.241  10.802  0.3225  0.7126  0.5320
16838TIP3   OH272004   6.029   5.753   4.200  0.2507  0.1325 -0.2608
16838TIP3    H172005   6.008   5.714   4.285  1.0228  0.2318 -0.0164
16838TIP3    H272006   5.944   5.764   4.157 -0.0079 -1.6148 -0.2447
16839TIP3   OH272007   3.886   6.414   2.291  0.3511 -0.2831  0.4753
16839TIP3    H172008   3.864   6.403   2.198  0.5709 -1.3832  0.5566
16839TIP3    H272009   3.900   6.325   2.324  1.4979  0.1826  1.2687
16840TIP3   OH272010   6.050   4.704   5.409 -0.0993 -0.9671 -0.0666
16840TIP3    H172011   5.977   4.696   5.348 -1.3785 -0.5298  1.3630
16840TIP3    H272012   6.106   4.772   5.372 -2.1410  1.0782  0.4777
16841TIP3   OH272013   5.264   2.521  12.780 -0.0376 -0.2009  0.3582
16841TIP3    H172014   5.194   2.466  12.743 -0.9208  1.3871 -0.3882
16841TIP3    H272015   5.280   2.587  12.712  1.2867  0.2286  1.0798
16842TIP3   OH272016   0.312   0.006   3.663 -0.5887 -0.1730 -0.6848
16842TIP3    H172017   0.315  -0.062   3.731  0.5331  0.4988 -0.0360
16842TIP3    H272018   0.281   0.084   3.709  1.9278  0.7645 -0.4831
16843TIP3   OH272019   6.770   5.864   4.019  0.0409  0.3167 -0.7154
16843TIP3    H172020   6.778   5.780   4.064  1.4991  0.0380 -1.4760
16843TIP3    H272021   6.717   5.918   4.078  1.4719 -0.2052  1.0848
16844TIP3   OH272022   5.461   5.549   1.764 -0.2670 -0.4689 -0.2913
16844TIP3    H172023   5.436   5.620   1.823 -2.1678 -1.0719 -0.3264
16844TIP3    H272024   5.401   5.478   1.786  0.9300 -1.7025 -0.9664
16845TIP3   OH272025   6.762   2.856   1.874  0.3101  0.3185 -0.5297
16845TIP3    H172026   6.724   2.920   1.934  0.5220 -0.0928  0.0389
16845TIP3    H272027   6.821   2.804   1.928  0.8121  0.2136 -1.1725
16846TIP3   OH272028   3.476   1.490  11.756 -0.0023  0.2378  0.7104
16846TIP3    H172029   3.408   1.422  11.746 -0.0548  0.4978 -0.7769
16846TIP3    H272030   3.499   1.486  11.849 -0.0486 -1.7831  0.6707
16847TIP3   OH272031   1.295   0.399  10.595 -0.2059  0.0616  0.6898
16847TIP3    H172032   1.247   0.474  10.558 -1.4020 -0.5052  1.0582
16847TIP3    H272033   1.387   0.420  10.580 -0.5009  1.8215  1.1713
16848TIP3   OH272034   4.357   3.736   5.152  0.3893 -0.0182 -0.6684
16848TIP3    H172035   4.302   3.809   5.123  1.2738  1.2054  0.6595
16848TIP3    H272036   4.308   3.697   5.224  0.2906 -0.2363 -0.8532
16849TIP3   OH272037   1.670   0.173  12.470  0.3134  0.5928 -0.4557
16849TIP3    H172038   1.618   0.147  12.394 -0.5396  2.1708 -0.4247
16849TIP3    H272039   1.740   0.228  12.433 -0.9811  2.6233  0.0255
16850TIP3   OH272040   3.881   6.427   4.617  0.4031 -0.0112 -0.3223
16850TIP3    H172041   3.948   6.361   4.634  0.5560 -0.0848 -1.2147
16850TIP3    H272042   3.930   6.508   4.603  0.2325  0.2275  0.4049
16851TIP3   OH272043   6.175   2.986   6.066  0.2410 -0.3993 -0.9751
16851TIP3    H172044   6.197   3.077   6.046  1.3146 -0.5132 -0.3762
16851TIP3    H272045   6.091   2.991   6.112  0.8105  0.3921  0.0117
16852TIP3   OH272046   0.336   1.812   4.194  0.8532  0.3737  0.3985
16852TIP3    H172047   0.424   1.835   4.164  1.0954  0.5632  1.2359
16852TIP3    H272048   0.277   1.858   4.134  1.3258  1.3780  0.6958
16853TIP3   OH272049   3.335   5.229  15.309 -0.5031 -0.1473  0.3251
16853TIP3    H172050   3.276   5.193  15.243  1.7827 -1.5368 -1.0452
16853TIP3    H272051   3.322   5.174  15.386  0.3251 -1.6449 -0.5858
16854TIP3   OH272052   0.418   0.927  11.559  0.2948  0.3675  0.0741
16854TIP3    H172053   0.374   0.847  11.587 -0.3183  0.7879  0.3267
16854TIP3    H272054   0.474   0.899  11.487 -0.1775 -0.2259 -0.0721
16855TIP3   OH272055   1.693   5.549  17.097  0.5713 -0.5340 -0.3181
16855TIP3    H172056   1.756   5.478  17.087 -1.1581 -1.9977 -1.0173
16855TIP3    H272057   1.634   5.539  17.023  1.3737  2.7803 -1.4867
16856TIP3   OH272058   6.522   1.804  14.102  0.4125 -0.3685  0.0380
16856TIP3    H172059   6.436   1.836  14.131  0.4273  0.0280 -0.3564
16856TIP3    H272060   6.524   1.822  14.008  0.2255 -1.9950 -0.2889
16857TIP3   OH272061   3.647   1.926  15.458 -0.1600 -0.3160 -0.0075
16857TIP3    H172062   3.638   1.843  15.411 -0.8235  0.0143 -0.4701
16857TIP3    H272063   3.740   1.950  15.448  0.0745 -1.0968  0.3032
16858TIP3   OH272064   0.256   6.802   0.999  0.1843 -0.4360  0.0830
16858TIP3    H172065   0.232   6.758   0.917  0.1392 -0.0735 -0.0977
16858TIP3    H272066   0.294   6.885   0.972 -0.0211 -0.2240  0.4386
16859TIP3   OH272067   3.403   0.397   1.723 -0.0031  0.1244 -0.6240
16859TIP3    H172068   3.359   0.481   1.739  0.6560  0.3047  0.2808
16859TIP3    H272069   3.331   0.333   1.719 -0.7261  1.0182 -3.6358
16860TIP3   OH272070   1.189   0.789  13.442  0.3097 -0.6077  0.4537
16860TIP3    H172071   1.197   0.884  13.435  0.7419 -0.7519 -1.4246
16860TIP3    H272072   1.200   0.758  13.352  0.4322 -2.4520  1.0866
16861TIP3   OH272073   5.771   6.586  14.667  0.3245  0.2728 -0.6292
16861TIP3    H172074   5.823   6.645  14.613  0.5529 -0.6438 -1.4018
16861TIP3    H272075   5.726   6.529  14.605 -0.8395  0.4030  0.0651
16862TIP3   OH272076   2.667   3.112  14.188 -0.0949 -0.0881 -0.2957
16862TIP3    H172077   2.686   3.051  14.117  0.4220  0.4185 -0.5922
16862TIP3    H272078   2.679   3.198  14.149  1.4556  0.1885  0.7585
16863TIP3   OH272079   5.878   6.195   4.881 -0.1588  0.3271  0.5520
16863TIP3    H172080   5.816   6.238   4.941  0.3708  1.9132 -0.0121
16863TIP3    H272081   5.822   6.157   4.813 -0.6472 -0.0646  1.1544
16864TIP3   OH272082   0.795   5.817   0.345  0.0347  0.1603 -0.0062
16864TIP3    H172083   0.717   5.834   0.293  1.3526  2.5333 -1.2538
16864TIP3    H272084   0.768   5.834   0.435 -1.6699 -1.9443 -0.0626
16865TIP3   OH272085   0.954   2.950   2.031  0.2945  0.7134 -0.0009
16865TIP3    H172086   1.047   2.938   2.010 -0.0549 -1.2329 -0.5218
16865TIP3    H272087   0.942   2.904   2.114 -0.5767 -0.5390 -0.8101
16866TIP3   OH272088   1.611   4.408  13.853  0.5406 -0.1391 -0.0188
16866TIP3    H172089   1.629   4.429  13.762  2.0340 -0.1649  0.2492
16866TIP3    H272090   1.671   4.464  13.903 -2.3329  2.0888  1.0904
16867TIP3   OH272091   5.447   0.324   3.544 -0.2794  0.4732 -0.2743
16867TIP3    H172092   5.472   0.371   3.465 -2.9276  2.3883 -0.0547
16867TIP3    H272093   5.513   0.255   3.553  0.9837  1.2052 -3.2400
16868TIP3   OH272094   4.215   3.272  14.116  0.3653 -0.1947 -0.0494
16868TIP3    H172095   4.136   3.318  14.088  1.1794  0.6498 -1.0255
16868TIP3    H272096   4.207   3.264  14.211 -0.2364  1.1268  0.0144
16869TIP3   OH272097   3.579   6.173  10.555 -0.0079  0.1444  0.5599
16869TIP3    H172098   3.629   6.150  10.477  2.4131 -0.4578  2.2178
16869TIP3    H272099   3.542   6.091  10.586  1.0382 -0.0419  1.3599
16870TIP3   OH272100   2.265   6.682  11.379 -0.4372 -0.3161  0.2578
16870TIP3    H172101   2.259   6.661  11.472 -0.4819  1.2865  0.6186
16870TIP3    H272102   2.178   6.661  11.344 -0.1977 -1.6310  0.4063
16871TIP3   OH272103   2.054   2.929   2.244  0.0104  0.2512 -0.2923
16871TIP3    H172104   2.016   2.923   2.156  1.1350  0.4959 -0.8043
16871TIP3    H272105   2.146   2.905   2.232  0.9581  3.3689  0.2398
16872TIP3   OH272106   1.206   0.417   6.651  0.1765  0.3626  0.2902
16872TIP3    H172107   1.147   0.386   6.582  0.8140  0.4083 -0.2937
16872TIP3    H272108   1.225   0.339   6.703 -0.1496  0.2809  0.2885
16873TIP3   OH272109   6.396   5.061  16.038  0.3966  0.3580  0.5529
16873TIP3    H172110   6.432   4.975  16.015  0.1160  0.4460 -0.2601
16873TIP3    H272111   6.385   5.058  16.133  2.9828  0.5071  0.8983
16874TIP3   OH272112   2.798   4.481  12.092  0.2656 -0.3395 -0.2175
16874TIP3    H172113   2.861   4.456  12.025 -0.1798  2.7954 -1.9453
16874TIP3    H272114   2.851   4.521  12.162  0.5487 -1.6594  0.3261
16875TIP3   OH272115   0.327   2.697   6.516  0.1083  0.0423 -0.0398
16875TIP3    H172116   0.376   2.757   6.572 -2.1242  1.6326  0.2815
16875TIP3    H272117   0.371   2.613   6.527  2.2339  1.2223  0.8642
16876TIP3   OH272118   2.654   4.819   5.955  0.0924 -0.5087  0.0028
16876TIP3    H172119   2.586   4.752   5.946 -0.8456  0.3307  0.6543
16876TIP3    H272120   2.640   4.855   6.043  2.0600 -1.0545  0.5748
16877TIP3   OH272121   2.409   0.660  11.981 -0.2047 -0.0870  0.8314
16877TIP3    H172122   2.373   0.594  11.922 -0.1021  1.1458 -0.6476
16877TIP3    H272123   2.347   0.733  11.976  0.8062  0.7799  0.7481
16878TIP3   OH272124   1.364   5.928  13.019  0.2798  0.1492 -0.2230
16878TIP3    H172125   1.447   5.974  13.007  0.1405  0.2992 -0.6099
16878TIP3    H272126   1.382   5.864  13.088 -0.1495  2.3556  2.0022
16879TIP3   OH272127   6.351   1.491   5.363 -0.4971  0.1202 -0.3724
16879TIP3    H172128   6.330   1.448   5.280  0.3005 -0.3941 -0.3071
16879TIP3    H272129   6.267   1.496   5.409 -0.4884 -1.9433 -0.1079
16880TIP3   OH272130   5.363   1.931   4.773 -0.4428 -0.0033 -0.4144
16880TIP3    H172131   5.439   1.985   4.796 -0.3586  0.9852 -2.9008
16880TIP3    H272132   5.301   1.993   4.734 -1.9548 -1.0593  0.2523
16881TIP3   OH272133   0.070   4.922  15.741 -0.0664 -0.1085 -0.1229
16881TIP3    H172134   0.103   4.872  15.816  1.2217  2.4112  1.0448
16881TIP3    H272135   0.051   4.856  15.675  0.7836 -2.2161  1.6765
16882TIP3   OH272136   5.727   4.235   1.538  0.6289 -0.2797 -0.0829
16882TIP3    H172137   5.759   4.254   1.626  0.9473 -1.7516  0.1369
16882TIP3    H272138   5.636   4.267   1.538 -0.0423 -2.0686  1.4369
16883TIP3   OH272139   4.041   3.796  11.907  0.0072  0.0671  0.1406
16883TIP3    H172140   3.955   3.769  11.940 -0.1368 -0.3663 -0.5657
16883TIP3    H272141   4.024   3.824  11.817  0.8835 -1.7693 -0.6234
16884TIP3   OH272142   3.346   3.487  12.174 -0.4146 -0.1941 -0.5294
16884TIP3    H172143   3.422   3.537  12.204 -1.1604  0.3633  0.4751
16884TIP3    H272144   3.382   3.424  12.112  0.7774  0.4901 -0.5565
16885TIP3   OH272145   3.233   2.999   1.203  0.3043 -0.0383  0.2123
16885TIP3    H172146   3.282   3.063   1.254 -1.5152  0.5395  1.3067
16885TIP3    H272147   3.142   3.030   1.207 -0.5524 -2.4947  0.4815
16886TIP3   OH272148   3.021   1.922  14.074  0.3517 -0.2542  0.5539
16886TIP3    H172149   2.993   1.937  14.164  2.2819  0.1841  1.1067
16886TIP3    H272150   3.100   1.975  14.064 -1.3549  1.8997 -2.2691
16887TIP3   OH272151   4.914   4.910   5.113  0.0047  0.2093  0.2630
16887TIP3    H172152   4.952   4.935   5.197  2.7894  1.2017 -1.1934
16887TIP3    H272153   4.940   4.981   5.054 -0.5472 -1.2411 -1.7617
16888TIP3   OH272154   6.174   5.849   6.138 -0.4869 -0.0865  0.9061
16888TIP3    H172155   6.096   5.840   6.193 -1.1856 -1.7477 -0.3272
16888TIP3    H272156   6.163   5.934   6.096 -0.9617  0.2867  1.7572
16889TIP3   OH272157   5.237   5.892   5.716 -0.2675 -0.4289  0.4586
16889TIP3    H172158   5.146   5.884   5.744 -0.5809 -0.7346 -0.6028
16889TIP3    H272159   5.276   5.806   5.736  0.3590  0.3664  2.8210
16890TIP3   OH272160   0.931   3.325  17.200 -0.6267 -0.5263 -0.3685
16890TIP3    H172161   0.914   3.301  17.109 -1.1081 -0.8462 -0.1981
16890TIP3    H272162   1.019   3.364  17.199 -1.0743  0.4826 -1.1459
16891TIP3   OH272163   1.521   0.627  15.489  0.5281 -0.4240  0.0959
16891TIP3    H172164   1.501   0.557  15.426 -1.8200  0.3308 -0.0440
16891TIP3    H272165   1.437   0.648  15.530  1.4639  1.2845  1.2145
16892TIP3   OH272166   1.434   3.128   3.930 -0.2014  0.2046 -0.1821
16892TIP3    H172167   1.517   3.161   3.965 -1.5313  2.4915  0.9288
16892TIP3    H272168   1.402   3.198   3.874 -0.5789 -1.3737 -1.9899
16893TIP3   OH272169   6.537   0.190   1.337 -0.5290  0.6248 -0.0579
16893TIP3    H172170   6.563   0.220   1.424 -0.5353  1.1391 -0.2319
16893TIP3    H272171   6.476   0.257   1.305  0.3764  1.0454 -0.9316
16894TIP3   OH272172   0.273   5.280   1.205  0.8891  0.2560 -0.3457
16894TIP3    H172173   0.252   5.368   1.236  2.1696  0.1233  0.8907
16894TIP3    H272174   0.339   5.294   1.137  1.5952  0.2052  0.3272
16895TIP3   OH272175   4.227   1.453  12.939 -0.2114 -0.1959  0.1462
16895TIP3    H172176   4.316   1.440  12.906 -0.2666 -1.2297  0.4005
16895TIP3    H272177   4.219   1.548  12.947  1.0174 -0.1065  0.5238
16896TIP3   OH272178   0.836   3.286  13.924 -0.2394 -0.3996 -0.4127
16896TIP3    H172179   0.752   3.330  13.911 -0.1128  0.7241  2.2515
16896TIP3    H272180   0.813   3.203  13.965 -0.2556 -1.5668 -2.7141
16897TIP3   OH272181   5.255   2.271   3.222 -0.7499 -0.1953 -0.6898
16897TIP3    H172182   5.239   2.257   3.316 -1.5247 -0.3131 -0.8369
16897TIP3    H272183   5.309   2.350   3.219  3.7597 -3.0902  0.1743
16898TIP3   OH272184   6.703   5.180   1.761  0.2051  0.2204  0.3953
16898TIP3    H172185   6.749   5.097   1.750 -0.2180  0.0202  0.1043
16898TIP3    H272186   6.643   5.184   1.686  0.6150  1.0501  0.0973
16899TIP3   OH272187   5.747   2.453   0.227  0.0304  0.0749 -0.1548
16899TIP3    H172188   5.758   2.365   0.189 -1.2973  0.2526 -0.9837
16899TIP3    H272189   5.834   2.476   0.260  0.5452 -1.2808 -0.5304
16900TIP3   OH272190   4.393   4.479  15.604 -0.2049 -0.0303  0.0005
16900TIP3    H172191   4.464   4.483  15.540 -0.5540 -1.7306 -0.5233
16900TIP3    H272192   4.330   4.544  15.573  0.4123  0.3849 -0.4092
16901TIP3   OH272193   5.786   6.043   5.326 -0.5083 -0.0879  0.2350
16901TIP3    H172194   5.798   6.131   5.361  0.4563  0.2809 -0.9728
16901TIP3    H272195   5.864   6.028   5.272 -0.1396 -2.1131  1.3036
16902TIP3   OH272196   3.961   6.180   1.676  0.2822  0.4508 -0.4186
16902TIP3    H172197   4.010   6.258   1.703 -2.6198  1.8360  1.0987
16902TIP3    H272198   3.983   6.113   1.740  0.8253  0.8072 -0.2367
16903TIP3   OH272199   5.357   1.856   6.138  0.0162 -0.4278 -0.4460
16903TIP3    H172200   5.293   1.915   6.179 -0.3705 -1.4924  0.5116
16903TIP3    H272201   5.386   1.903   6.060 -1.1635  0.5215 -0.3301
16904TIP3   OH272202   1.487   5.429  16.290  0.5476  0.0843 -0.0701
16904TIP3    H172203   1.456   5.503  16.239 -2.6971 -1.0154  0.2381
16904TIP3    H272204   1.482   5.460  16.381 -0.3959 -0.3667  0.0285
16905TIP3   OH272205   6.231   4.009   0.910  0.0123 -0.9543  0.5738
16905TIP3    H172206   6.322   4.025   0.883 -0.4470 -0.3653 -0.6510
16905TIP3    H272207   6.232   4.022   1.005  1.0997 -0.4192  0.5022
16906TIP3   OH272208   2.275   0.199  11.601  0.2305  0.3385 -0.2419
16906TIP3    H172209   2.288   0.260  11.674 -0.0536  1.4485 -1.0987
16906TIP3    H272210   2.307   0.115  11.634  1.7135  1.1969  0.5626
16907TIP3   OH272211   0.111   4.430   5.424 -0.0425  0.2620  0.1339
16907TIP3    H172212   0.053   4.499   5.457  0.0017  0.2724  0.1880
16907TIP3    H272213   0.062   4.393   5.350 -1.3724 -1.6010  1.8965
16908TIP3   OH272214   0.467   5.826  14.417 -0.2156  0.3687 -0.3695
16908TIP3    H172215   0.442   5.912  14.382  0.3417  0.7896  0.2450
16908TIP3    H272216   0.522   5.787  14.349  1.2934  1.3982  0.2367
16909TIP3   OH272217   1.341   5.341   4.888 -0.1377 -0.1180 -0.1218
16909TIP3    H172218   1.353   5.257   4.844 -1.2398  0.5742 -1.7712
16909TIP3    H272219   1.363   5.323   4.980  0.7143 -1.9257 -0.6609
16910TIP3   OH272220   4.687   2.386  15.356  0.4592 -0.2525  0.0085
16910TIP3    H172221   4.661   2.330  15.429 -0.8213 -0.7183 -0.8095
16910TIP3    H272222   4.693   2.328  15.281 -1.2918  0.7683 -0.9448
16911TIP3   OH272223   4.088   4.914  14.798 -0.1510  0.3525  0.3046
16911TIP3    H172224   4.011   4.860  14.782 -0.4964  1.2590 -1.2805
16911TIP3    H272225   4.106   4.955  14.713  0.6522  1.9934  1.2359
16912TIP3   OH272226   2.503   4.977   2.145  0.3873 -0.0903 -0.0694
16912TIP3    H172227   2.523   4.885   2.161  0.2482 -0.0491  0.3375
16912TIP3    H272228   2.544   5.024   2.217  0.9959  0.2279 -0.6148
16913TIP3   OH272229   1.642   3.410  11.075 -0.1179  0.0324 -0.4139
16913TIP3    H172230   1.550   3.390  11.061  0.2114 -0.6218 -1.6527
16913TIP3    H272231   1.648   3.505  11.068 -0.8728  0.1778  0.7622
16914TIP3   OH272232   2.362   4.883  11.381 -0.0079 -0.4455 -0.0116
16914TIP3    H172233   2.343   4.842  11.296 -1.7808  0.2435  0.0308
16914TIP3    H272234   2.442   4.932  11.366  0.8387 -1.9787 -0.7177
16915TIP3   OH272235   3.832   1.508   0.678  0.1057  0.5118  0.5923
16915TIP3    H172236   3.845   1.424   0.636  2.4210 -0.5791  3.3243
16915TIP3    H272237   3.737   1.515   0.689 -0.0599 -2.2725  1.3272
16916TIP3   OH272238   5.971   6.105  14.096  0.1201 -0.8021 -0.0813
16916TIP3    H172239   5.976   6.187  14.045 -0.0935 -0.3039  0.6899
16916TIP3    H272240   5.931   6.042  14.036  0.3828 -0.3663 -0.7187
16917TIP3   OH272241   2.837   4.254   4.846 -0.0525 -0.1866  0.3500
16917TIP3    H172242   2.790   4.185   4.893 -1.9365  1.6356  1.2645
16917TIP3    H272243   2.788   4.334   4.867  3.1105  1.7302  0.8215
16918TIP3   OH272244   6.802   0.796   1.590  0.2130  1.0630 -0.2708
16918TIP3    H172245   6.788   0.810   1.684  0.3931 -1.7551  0.2264
16918TIP3    H272246   6.727   0.838   1.548  0.4334  2.8742  1.0799
16919TIP3   OH272247   6.291   5.316   6.530  0.9615 -0.1177  0.2366
16919TIP3    H172248   6.259   5.319   6.440 -0.6971 -0.5135  0.7998
16919TIP3    H272249   6.288   5.406   6.560 -0.4207 -0.2692  0.5569
16920TIP3   OH272250   6.636   2.069   5.889 -0.2172  0.3987 -0.3442
16920TIP3    H172251   6.640   2.116   5.805  0.1393  1.9774  0.5488
16920TIP3    H272252   6.721   2.084   5.929 -0.5100 -0.0735  0.4683
16921TIP3   OH272253   0.378   0.863   1.413  0.5300  0.4040  0.2475
16921TIP3    H172254   0.317   0.829   1.348  1.1189 -1.2160  0.5223
16921TIP3    H272255   0.375   0.800   1.484  2.3039  0.4458  0.3924
16922TIP3   OH272256   3.162   2.242   3.125  0.1406  0.0563 -0.0289
16922TIP3    H172257   3.183   2.275   3.212  0.3107  0.4681 -0.2253
16922TIP3    H272258   3.068   2.223   3.128  0.0831  0.3735  0.1425
16923TIP3   OH272259   1.919   0.120   3.596  0.0922  0.0168 -0.1691
16923TIP3    H172260   1.938   0.113   3.689  0.8943  2.0182 -0.1466
16923TIP3    H272261   2.005   0.128   3.555 -0.3078  0.5103 -0.9312
16924TIP3   OH272262   4.810   2.958  12.964  0.5706 -0.4409 -0.3051
16924TIP3    H172263   4.832   2.868  12.943 -1.0041 -1.0750  0.6109
16924TIP3    H272264   4.841   2.970  13.054 -1.6458 -0.9816  0.5780
16925TIP3   OH272265   3.507   0.137   5.902  0.6618 -0.4088 -0.1948
16925TIP3    H172266   3.475   0.225   5.883  1.0613 -0.7683 -2.7231
16925TIP3    H272267   3.444   0.079   5.859  0.0238 -1.4057  2.0311
16926TIP3   OH272268   1.533   1.248  15.238 -0.2846  0.1978  0.0079
16926TIP3    H172269   1.519   1.185  15.310 -2.4504 -1.9495 -2.2032
16926TIP3    H272270   1.448   1.291  15.228 -0.4942 -0.7186 -2.3341
16927TIP3   OH272271   2.865   4.884  14.556 -0.6410  0.2593  0.2804
16927TIP3    H172272   2.787   4.906  14.505 -0.4786  1.2120  0.4403
16927TIP3    H272273   2.837   4.810  14.610 -0.9365 -0.4895 -0.8646
16928TIP3   OH272274   3.321   3.181   6.163  0.4191  0.2543  0.0810
16928TIP3    H172275   3.363   3.136   6.237  1.6030  0.1020 -0.6646
16928TIP3    H272276   3.248   3.229   6.202  1.7455  1.1398  1.5332
16929TIP3   OH272277   3.394   6.811   3.606 -0.4450 -0.0994 -0.7577
16929TIP3    H172278   3.314   6.762   3.587 -1.3119  1.4356 -1.1662
16929TIP3    H272279   3.411   6.795   3.699 -0.8429 -0.9712 -0.8316
16930TIP3   OH272280   4.683   1.172  14.164 -0.1868 -0.3432 -0.1806
16930TIP3    H172281   4.693   1.234  14.236  2.5281 -0.0029 -0.7994
16930TIP3    H272282   4.625   1.217  14.102  1.0899  1.2567 -0.2518
16931TIP3   OH272283   1.083   2.289   4.459  0.1416 -0.1802  0.0076
16931TIP3    H172284   1.153   2.299   4.394 -0.0194 -1.0318 -0.2994
16931TIP3    H272285   1.006   2.326   4.417 -0.1729 -1.5713 -0.6482
16932TIP3   OH272286   4.618   3.428   2.791 -0.2575  0.1767 -0.5765
16932TIP3    H172287   4.547   3.364   2.790 -0.4072  0.3463 -0.9192
16932TIP3    H272288   4.639   3.441   2.698  0.5489 -0.2376 -0.4513
16933TIP3   OH272289   2.907   0.502  17.016 -0.2181 -0.3004  0.2732
16933TIP3    H172290   2.872   0.519  17.104 -2.2750 -0.9878 -0.3809
16933TIP3    H272291   2.943   0.414  17.022  0.5276  0.0249  0.6808
16934TIP3   OH272292   2.514   1.780   5.775 -0.0447 -0.0405  0.0722
16934TIP3    H172293   2.545   1.796   5.686  0.4723 -1.5521 -0.0445
16934TIP3    H272294   2.578   1.824   5.831 -0.2823  0.7785 -0.2925
16935TIP3   OH272295   1.716   5.916  10.429 -0.4828  0.3671  0.6377
16935TIP3    H172296   1.626   5.918  10.461 -0.9629 -2.6024 -0.3256
16935TIP3    H272297   1.710   5.945  10.338 -0.5670 -0.3450  0.4122
16936TIP3   OH272298   3.425   2.931  12.149 -0.6929 -0.7057  0.2433
16936TIP3    H172299   3.518   2.913  12.137 -0.3245  1.3051 -0.0921
16936TIP3    H272300   3.390   2.935  12.060 -1.0346 -1.1054  0.3595
16937TIP3   OH272301   2.682   0.970  13.325 -0.4021  0.4391 -0.3031
16937TIP3    H172302   2.608   0.937  13.374  0.1204  2.9582  2.3266
16937TIP3    H272303   2.674   0.929  13.239 -2.8435 -2.0210  1.0080
16938TIP3   OH272304   2.964   3.572   0.964 -0.1340  0.5683  0.2886
16938TIP3    H172305   2.907   3.603   0.894  0.0118 -0.5132 -0.3213
16938TIP3    H272306   2.965   3.477   0.954  0.6778  0.4774  1.1435
16939TIP3   OH272307   1.596   0.212  14.590 -0.1250  0.1010 -0.2140
16939TIP3    H172308   1.552   0.295  14.574  0.8698  1.0334  1.7358
16939TIP3    H272309   1.685   0.236  14.616  0.6365 -1.6367 -1.1656
16940TIP3   OH272310   0.511   1.688   5.920 -0.2728  0.0109 -0.1311
16940TIP3    H172311   0.419   1.706   5.938 -0.0712 -0.6311  1.6366
16940TIP3    H272312   0.559   1.751   5.974  0.3384 -0.4904 -0.0798
16941TIP3   OH272313   1.790   0.065   4.639  0.0124  0.5011 -0.5544
16941TIP3    H172314   1.766   0.153   4.670 -2.4359 -0.1992 -0.3265
16941TIP3    H272315   1.867   0.042   4.691 -1.5446  1.0173  2.1100
16942TIP3   OH272316   4.452   4.942   1.308 -0.0134  0.3742 -0.3308
16942TIP3    H172317   4.530   4.977   1.265  0.3867  1.2971  1.1178
16942TIP3    H272318   4.438   4.999   1.383 -0.4293 -1.4735  1.0354
16943TIP3   OH272319   6.539   4.447   0.466  0.4088 -0.1228  0.6417
16943TIP3    H172320   6.577   4.527   0.504  0.8058 -0.0425  0.0895
16943TIP3    H272321   6.525   4.468   0.374 -1.2570 -0.0678  0.9019
16944TIP3   OH272322   0.522   2.369   2.669 -0.3572  0.2221 -0.2596
16944TIP3    H172323   0.459   2.302   2.641  0.1297 -0.9058  1.3152
16944TIP3    H272324   0.545   2.415   2.588 -2.7847  0.3085 -0.9440
16945TIP3   OH272325   2.374   6.719   4.856  0.1904 -0.0444 -0.0271
16945TIP3    H172326   2.305   6.739   4.793 -1.3853  0.0788  1.7289
16945TIP3    H272327   2.336   6.652   4.913  0.9186  1.2410  1.9899
16946TIP3   OH272328   0.513   3.938  16.603 -0.5560  0.3082 -0.2528
16946TIP3    H172329   0.584   3.967  16.660 -0.8969  0.7281 -0.0422
16946TIP3    H272330   0.491   3.851  16.636  0.5853 -0.2661 -1.0023
16947TIP3   OH272331   0.797   5.246   1.546 -0.1578 -0.5055 -0.5438
16947TIP3    H172332   0.780   5.295   1.626  1.1866  0.2867 -0.7132
16947TIP3    H272333   0.771   5.305   1.476 -1.3089 -1.1877 -0.7023
16948TIP3   OH272334   2.888   4.352  15.055 -0.0996 -0.2570 -0.7592
16948TIP3    H172335   2.851   4.395  14.978  0.9654 -1.5723 -2.0305
16948TIP3    H272336   2.979   4.380  15.056 -0.2232  0.1436  0.3337
16949TIP3   OH272337   1.867   5.649   5.416  0.6200 -0.4449 -0.1646
16949TIP3    H172338   1.925   5.719   5.445 -0.6157  0.7365 -0.5047
16949TIP3    H272339   1.792   5.653   5.476 -0.0613 -0.6181 -0.9939
16950TIP3   OH272340   2.675   5.025   1.611  0.0373 -0.1460 -0.2949
16950TIP3    H172341   2.760   4.994   1.642  1.2700  1.4137 -2.0342
16950TIP3    H272342   2.646   4.956   1.551  0.3869 -0.3510 -0.2350
16951TIP3   OH272343   4.030   0.153  16.452 -0.2890 -0.3082 -0.6610
16951TIP3    H172344   4.084   0.200  16.388 -0.4860  1.7961  0.6720
16951TIP3    H272345   3.943   0.151  16.413 -0.4340  1.0626 -0.4406
16952TIP3   OH272346   1.772   4.547   2.858  0.1831  0.1376  0.1084
16952TIP3    H172347   1.680   4.524   2.847  0.2617  0.3576 -1.0380
16952TIP3    H272348   1.793   4.519   2.947 -0.9751  0.0391  0.3593
16953TIP3   OH272349   5.353   2.791  17.154  0.1664 -0.2367  0.1036
16953TIP3    H172350   5.352   2.855  17.225 -1.5889 -1.2425  1.0189
16953TIP3    H272351   5.274   2.738  17.168  1.0816 -1.9943 -1.1716
16954TIP3   OH272352   2.141   6.556  15.833 -0.0113 -0.0765  0.1410
16954TIP3    H172353   2.171   6.465  15.838  1.5135  0.3681 -0.5195
16954TIP3    H272354   2.198   6.596  15.767 -0.7071  1.3427  0.3825
16955TIP3   OH272355   5.235   5.098   4.118 -0.0230 -0.2104 -0.2738
16955TIP3    H172356   5.181   5.042   4.174  2.6414 -1.7344  0.8411
16955TIP3    H272357   5.231   5.184   4.161  1.3735 -1.1832  1.9212
16956TIP3   OH272358   2.314   4.579   1.653 -0.2168 -0.8095 -0.1360
16956TIP3    H172359   2.351   4.665   1.671 -1.4089 -1.1671  4.8623
16956TIP3    H272360   2.222   4.596   1.632 -0.2438 -0.7596  0.0173
16957TIP3   OH272361   6.444   1.933   4.270  0.0650 -0.5937  0.1597
16957TIP3    H172362   6.478   1.855   4.313  0.2652 -2.2260 -2.8367
16957TIP3    H272363   6.353   1.911   4.250  0.5052 -0.6019 -1.8939
16958TIP3   OH272364   3.674   2.334  13.771  0.2326  0.5256 -0.4111
16958TIP3    H172365   3.648   2.406  13.713 -0.1300 -0.5383 -1.5733
16958TIP3    H272366   3.659   2.255  13.720 -1.0878 -0.5000  1.5227
16959TIP3   OH272367   3.485   2.766  16.580  0.3664 -0.4237 -0.1041
16959TIP3    H172368   3.554   2.767  16.514 -0.1776  1.1441 -0.6604
16959TIP3    H272369   3.477   2.857  16.608 -0.3330 -0.8622  1.1569
16960TIP3   OH272370   5.020   0.343  15.833  0.4364 -0.1492  0.5888
16960TIP3    H172371   5.000   0.369  15.923  2.1634  2.2839  0.3201
16960TIP3    H272372   4.992   0.417  15.780 -0.6881 -1.6243 -0.9232
16961TIP3   OH272373   2.943   4.462   2.494 -0.6509 -0.8250  0.3176
16961TIP3    H172374   2.892   4.437   2.570 -1.9875  1.2025  0.1308
16961TIP3    H272375   2.998   4.534   2.525 -0.1940 -0.9118 -0.2826
16962TIP3   OH272376   5.186   0.627   5.968  0.1688  0.2577 -0.0073
16962TIP3    H172377   5.122   0.683   5.924 -1.3949 -0.3385  1.4482
16962TIP3    H272378   5.184   0.655   6.060 -0.8903 -2.3191  0.8258
16963TIP3   OH272379   5.057   2.224   2.582  0.2510 -0.0068  0.4208
16963TIP3    H172380   5.061   2.277   2.662  2.1875  1.6430 -0.7156
16963TIP3    H272381   5.110   2.147   2.602 -1.6208 -1.0210  1.6767
16964TIP3   OH272382   0.285   0.287  15.467  0.5135 -0.4835  0.1879
16964TIP3    H172383   0.330   0.203  15.471 -0.0309 -0.8407 -0.8984
16964TIP3    H272384   0.322   0.339  15.538  1.0719 -1.5374  0.6583
16965TIP3   OH272385   6.429   3.873  11.336  0.3365  0.0959  0.5961
16965TIP3    H172386   6.412   3.801  11.397 -0.4457 -0.3022 -0.0723
16965TIP3    H272387   6.354   3.870  11.276  2.7001 -1.6020 -2.3910
16966TIP3   OH272388   1.552   5.710  13.355  0.0790 -0.0374 -0.4821
16966TIP3    H172389   1.585   5.726  13.267 -0.4863  0.2344 -0.6423
16966TIP3    H272390   1.628   5.727  13.412  0.4239 -0.1489 -0.9047
16967TIP3   OH272391   4.321   5.814   0.330  0.3136 -0.7608 -0.3760
16967TIP3    H172392   4.275   5.738   0.366  0.4725 -0.5973  0.1759
16967TIP3    H272393   4.406   5.813   0.372 -0.3507  0.7919  1.0583
16968TIP3   OH272394   2.635   0.100   0.803  0.2534  0.1805  0.4455
16968TIP3    H172395   2.629   0.036   0.874  1.4400  1.3969  1.6766
16968TIP3    H272396   2.585   0.175   0.835  1.5425  1.0774  0.4068
16969TIP3   OH272397   0.441   6.788  13.485  0.1360  0.5147  0.9376
16969TIP3    H172398   0.499   6.839  13.428  0.8243 -1.6364 -0.3427
16969TIP3    H272399   0.384   6.853  13.525  0.9600  2.2877 -0.6812
16970TIP3   OH272400   4.359   2.185   3.889 -0.3422  0.0501  0.3008
16970TIP3    H172401   4.405   2.191   3.805  0.3226  0.4895  0.6950
16970TIP3    H272402   4.402   2.249   3.945  0.8656 -1.9731  1.7467
16971TIP3   OH272403   6.367   1.486  14.400  0.2821 -0.3129  0.2373
16971TIP3    H172404   6.373   1.394  14.374 -1.6457 -0.4124  0.0377
16971TIP3    H272405   6.329   1.530  14.324  0.2029  0.4691  0.7188
16972TIP3   OH272406   4.459   4.223  16.876  0.2792  0.0127 -0.3965
16972TIP3    H172407   4.439   4.162  16.947 -1.5210  1.5274  0.4236
16972TIP3    H272408   4.404   4.195  16.803 -1.0592  1.0407  0.2027
16973TIP3   OH272409   2.203   0.862  11.932  0.2726 -0.3351 -0.1682
16973TIP3    H172410   2.192   0.947  11.975 -1.7391 -0.0282 -1.2124
16973TIP3    H272411   2.153   0.801  11.987 -1.7283 -0.0641 -1.6226
16974TIP3   OH272412   6.761   5.728   1.394  0.0143 -0.1836 -0.5823
16974TIP3    H172413   6.693   5.781   1.353 -0.6711  0.1702  0.9680
16974TIP3    H272414   6.724   5.639   1.395  0.1738 -0.2584 -1.0185
16975TIP3   OH272415   5.983   6.410  15.869  0.1082 -0.5801  0.1158
16975TIP3    H172416   6.017   6.418  15.780 -1.6366  1.1411 -0.4235
16975TIP3    H272417   5.930   6.330  15.867 -0.8685  0.0821 -0.7151
16976TIP3   OH272418   0.850   5.850   1.664 -0.0517  0.3340  0.0231
16976TIP3    H172419   0.872   5.940   1.642 -0.7498  0.5649  0.2793
16976TIP3    H272420   0.832   5.808   1.580  0.5458  0.3598 -0.1200
16977TIP3   OH272421   5.825   1.627   6.142  0.4714 -0.1953  0.0174
16977TIP3    H172422   5.830   1.589   6.229 -0.7999 -0.0641  0.1481
16977TIP3    H272423   5.736   1.610   6.112  1.0954 -0.8317 -1.5324
16978TIP3   OH272424   2.701   5.834  11.090  0.2558 -0.6892  0.0107
16978TIP3    H172425   2.796   5.838  11.099  0.1279 -0.2359  1.1640
16978TIP3    H272426   2.680   5.901  11.024  0.8725 -1.8575 -1.4094
16979TIP3   OH272427   5.180   4.455   2.479 -0.2279 -0.2325  0.2310
16979TIP3    H172428   5.258   4.503   2.507  0.7856 -1.2733 -0.7462
16979TIP3    H272429   5.139   4.513   2.414  0.5961 -0.3627 -0.4181
16980TIP3   OH272430   6.419   4.081   4.269 -0.6686 -0.2558  0.3178
16980TIP3    H172431   6.352   4.141   4.303  1.9876  2.7982  0.4017
16980TIP3    H272432   6.385   4.053   4.184 -2.4664  0.4643  0.7631
16981TIP3   OH272433   1.903   2.042  15.849  0.0665 -0.5156  0.2087
16981TIP3    H172434   1.936   2.125  15.884  0.9247 -0.7349 -0.0581
16981TIP3    H272435   1.809   2.055  15.840 -0.3020 -0.7578  3.4074
16982TIP3   OH272436   2.612   1.285   3.852  0.1847  0.2745  0.3375
16982TIP3    H172437   2.528   1.285   3.898 -0.3775 -0.0740 -0.6765
16982TIP3    H272438   2.620   1.374   3.817 -0.7269 -0.2688 -1.2885
16983TIP3   OH272439   4.057   4.978  13.650 -0.9342 -0.1987 -0.4261
16983TIP3    H172440   3.970   4.966  13.690 -0.6031 -0.7806  0.1294
16983TIP3    H272441   4.082   4.890  13.621 -0.0462 -0.2230  0.4184
16984TIP3   OH272442   5.177   3.510   5.820 -0.0438  0.0357  0.4530
16984TIP3    H172443   5.119   3.584   5.804  1.8246  1.0623 -1.9346
16984TIP3    H272444   5.255   3.548   5.861  0.5295 -0.7301  0.1016
16985TIP3   OH272445   6.453   5.341   4.972 -0.9455 -0.4431  0.0994
16985TIP3    H172446   6.460   5.282   5.046 -0.1503 -0.8290 -0.2845
16985TIP3    H272447   6.432   5.426   5.011  0.6922 -0.3739  0.8655
16986TIP3   OH272448   6.262   6.362  12.317 -0.1325 -0.4404  0.3809
16986TIP3    H172449   6.244   6.420  12.243  1.7002 -0.3881 -0.0278
16986TIP3    H272450   6.228   6.409  12.393 -1.4926 -0.2388 -0.3219
16987TIP3   OH272451   1.715   3.322   5.068  1.0487  0.4964 -0.4722
16987TIP3    H172452   1.773   3.280   5.132  0.6457 -1.1155 -1.1334
16987TIP3    H272453   1.669   3.389   5.119 -0.9056 -2.2468  1.5140
16988TIP3   OH272454   4.631   2.107   3.087  0.6119 -0.4439  0.2541
16988TIP3    H172455   4.610   2.048   3.014 -0.8182 -1.1251  1.1905
16988TIP3    H272456   4.726   2.115   3.084  0.5835 -0.4477 -1.7007
16989TIP3   OH272457   3.709   2.746   2.231 -0.4032 -0.2054 -0.4345
16989TIP3    H172458   3.709   2.744   2.135  1.2063 -0.8894 -0.4358
16989TIP3    H272459   3.734   2.835   2.253 -0.0548 -0.2463 -0.6560
16990TIP3   OH272460   1.291   2.003   3.585 -0.2415  0.0709 -0.0642
16990TIP3    H172461   1.313   2.083   3.536  0.9176 -0.8270 -1.0438
16990TIP3    H272462   1.211   1.971   3.545  0.4791 -0.4344 -1.1135
16991TIP3   OH272463   1.691   5.364   4.529 -0.0350 -0.2540 -0.0728
16991TIP3    H172464   1.659   5.418   4.457  0.7832 -0.0540 -0.2903
16991TIP3    H272465   1.632   5.384   4.602  1.8541  3.0688  0.6905
16992TIP3   OH272466   0.678   4.433   5.729  0.1339 -0.0943 -0.3363
16992TIP3    H172467   0.735   4.379   5.674  0.3518 -0.9566  0.7274
16992TIP3    H272468   0.671   4.385   5.812  0.1008  1.3531  0.5244
16993TIP3   OH272469   5.539   4.369  11.101  0.3019  0.5771  0.1763
16993TIP3    H172470   5.525   4.320  11.020  0.2059  0.4921  0.2437
16993TIP3    H272471   5.451   4.388  11.134  0.3401 -0.9490  1.2097
16994TIP3   OH272472   1.637   2.463  13.917  0.1210  0.7574 -0.0282
16994TIP3    H172473   1.689   2.477  13.838  1.7951  1.0575  1.0808
16994TIP3    H272474   1.600   2.548  13.937 -1.7761  0.2865 -1.4761
16995TIP3   OH272475   3.291   1.722   0.385 -0.4537  0.3558  0.8500
16995TIP3    H172476   3.307   1.708   0.292  0.0605  1.4434  0.7636
16995TIP3    H272477   3.375   1.753   0.419  0.2531 -2.9526  2.3070
16996TIP3   OH272478   2.674   4.145  15.693  0.4530  0.2324 -0.4993
16996TIP3    H172479   2.761   4.109  15.672  0.2627 -0.6712  0.2265
16996TIP3    H272480   2.693   4.223  15.746  0.7907 -1.7226  2.3519
16997TIP3   OH272481   1.643   1.807   4.445 -0.3400 -0.2027  0.1503
16997TIP3    H172482   1.620   1.899   4.456 -0.8777 -0.3127 -0.0352
16997TIP3    H272483   1.702   1.788   4.518  1.7697  0.9475 -1.2288
16998TIP3   OH272484   0.733   6.366   0.519  0.4714 -0.4984 -0.7722
16998TIP3    H172485   0.760   6.409   0.600  0.5490 -1.5160 -0.2393
16998TIP3    H272486   0.702   6.436   0.462  2.4125  0.4705 -0.6634
16999TIP3   OH272487   6.189   4.633  11.220  0.2960 -0.3680 -0.2841
16999TIP3    H172488   6.235   4.714  11.244 -0.2635 -0.3284  0.6860
16999TIP3    H272489   6.259   4.567  11.213  0.5868 -0.1559  0.5314
17000TIP3   OH272490   2.822   4.145  14.608 -0.4152 -0.4873 -0.0943
17000TIP3    H172491   2.901   4.177  14.650 -1.1871 -0.0817  1.0912
17000TIP3    H272492   2.840   4.149  14.514  0.0498  1.9671  0.0747
17001TIP3   OH272493   1.143   0.996  12.342 -0.2160 -0.1358  0.6030
17001TIP3    H172494   1.147   0.916  12.289  0.4195 -1.1379  2.1502
17001TIP3    H272495   1.227   0.998  12.388  1.0570  2.9968 -1.6541
17002TIP3   OH272496   2.963   1.336  14.623  0.1016 -0.5154 -0.5614
17002TIP3    H172497   2.971   1.430  14.603  0.8229 -0.6554 -0.9501
17002TIP3    H272498   3.053   1.306  14.632 -0.1623 -0.8937  0.9064
17003TIP3   OH272499   3.340   6.399  13.545 -0.4484  0.4524 -0.0346
17003TIP3    H172500   3.269   6.452  13.507 -1.0292 -1.5321 -1.8006
17003TIP3    H272501   3.418   6.425  13.496  0.2618  3.1442  2.3752
17004TIP3   OH272502   0.922   6.235   6.190 -0.2766  0.1420  0.1366
17004TIP3    H172503   0.872   6.296   6.136 -2.1730 -0.8562  0.7193
17004TIP3    H272504   0.916   6.270   6.279  0.1019  0.0317  0.2096
17005TIP3   OH272505   6.541   3.042   4.130 -0.8094  0.0400 -1.1523
17005TIP3    H172506   6.598   3.069   4.202 -0.3695  0.8680 -1.8104
17005TIP3    H272507   6.589   3.067   4.051 -0.6937 -2.0266 -1.7717
17006TIP3   OH272508   5.772   5.183  12.708  0.1442  0.2870  0.2141
17006TIP3    H172509   5.716   5.246  12.662 -0.2482 -0.2563 -0.0626
17006TIP3    H272510   5.820   5.235  12.771 -1.8521  0.5480  1.5632
17007TIP3   OH272511   0.842   0.614  15.038  0.4525  0.4025  0.0543
17007TIP3    H172512   0.852   0.605  14.943 -1.4888 -0.2511 -0.0991
17007TIP3    H272513   0.775   0.681  15.050 -2.1360 -2.2362  0.8631
17008TIP3   OH272514   3.134   1.262   1.419 -0.1825  0.0574  0.2104
17008TIP3    H172515   3.052   1.215   1.437 -0.3463  0.5433  0.7516
17008TIP3    H272516   3.200   1.213   1.467 -0.7808  1.9677  3.1359
17009TIP3   OH272517   4.485   2.770   3.376 -0.2262 -0.2016 -0.3966
17009TIP3    H172518   4.516   2.839   3.318 -0.7341 -0.3949 -0.8930
17009TIP3    H272519   4.563   2.744   3.426  0.6446 -1.3558 -2.3221
17010TIP3   OH272520   4.070   4.486  12.389 -0.3134 -0.2589  0.0256
17010TIP3    H172521   4.022   4.404  12.387 -1.4047  0.3566  0.1792
17010TIP3    H272522   4.087   4.507  12.298  0.3588 -0.8798  0.0096
17011TIP3   OH272523   1.335   2.599  14.798 -0.5914 -0.5203 -0.3606
17011TIP3    H172524   1.364   2.548  14.874  0.1483  0.4704  0.0249
17011TIP3    H272525   1.409   2.656  14.778 -1.4796  0.5251 -0.6830
17012TIP3   OH272526   2.130   2.011   3.588 -0.3260  0.1452 -0.2363
17012TIP3    H172527   2.041   2.039   3.569  0.0500  1.6825  0.1811
17012TIP3    H272528   2.170   2.000   3.502 -1.0366 -1.0074 -0.4346
17013TIP3   OH272529   0.216   3.102  15.960 -0.0710 -0.6438 -0.0491
17013TIP3    H172530   0.196   3.166  15.892 -0.8108 -0.1360  0.6246
17013TIP3    H272531   0.287   3.142  16.010 -1.8114  0.5506  1.5367
17014TIP3   OH272532   2.468   2.317  14.516 -0.1298  0.5363  0.0752
17014TIP3    H172533   2.482   2.394  14.571  1.3968  0.5414 -0.3119
17014TIP3    H272534   2.427   2.253  14.574  0.4281  0.9384  0.9235
17015TIP3   OH272535   1.876   2.138  13.476  0.0773  0.4057 -0.1657
17015TIP3    H172536   1.868   2.045  13.454 -1.2704  0.3241  0.5851
17015TIP3    H272537   1.808   2.181  13.424  0.6471  0.9613 -0.4538
17016TIP3   OH272538   3.304   3.631   3.350  0.1264 -0.0978  0.3676
17016TIP3    H172539   3.354   3.558   3.314 -0.3832  0.0953 -0.7712
17016TIP3    H272540   3.262   3.596   3.429 -1.6164 -1.5950 -1.1711
17017TIP3   OH272541   4.751   1.849  11.613 -0.3475 -0.2324  0.2550
17017TIP3    H172542   4.718   1.775  11.665 -0.5967 -0.6025 -0.4220
17017TIP3    H272543   4.725   1.828  11.524 -0.4768  0.7172  0.0750
17018TIP3   OH272544   4.215   2.320  16.724  0.2350  0.6765  0.2609
17018TIP3    H172545   4.190   2.364  16.805 -2.0754 -1.4339  0.7639
17018TIP3    H272546   4.298   2.275  16.745 -0.8171 -0.6180  1.7775
17019TIP3   OH272547   2.444   1.452  11.557 -0.3143 -0.0637 -0.2834
17019TIP3    H172548   2.494   1.404  11.623  3.0450  2.6467 -0.7347
17019TIP3    H272549   2.457   1.403  11.476  1.8412  0.6663 -0.4249
17020TIP3   OH272550   0.291   5.281  11.077  0.2850  0.0058 -0.3706
17020TIP3    H172551   0.304   5.207  11.136 -0.8840  0.3366  0.3080
17020TIP3    H272552   0.217   5.256  11.022 -1.1637  1.3268  0.9431
17021TIP3   OH272553   2.911   0.929  16.471  0.5332 -0.3628 -0.2520
17021TIP3    H172554   2.966   0.974  16.406  0.2367  2.6412  1.4666
17021TIP3    H272555   2.922   0.980  16.551 -1.2563 -2.3736  1.3413
17022TIP3   OH272556   0.489   4.323   6.271 -0.2089 -0.5424  0.4330
17022TIP3    H172557   0.483   4.253   6.336 -2.1679 -2.1077 -1.3499
17022TIP3    H272558   0.410   4.375   6.285 -0.0130 -0.1614  0.1191
17023TIP3   OH272559   3.042   0.875   0.832 -0.4241  0.1193 -0.4371
17023TIP3    H172560   3.064   0.951   0.886  0.3432  0.8984 -1.8133
17023TIP3    H272561   2.981   0.824   0.886  2.2806 -0.4589  2.2003
17024TIP3   OH272562   0.978   2.662   0.190 -0.3619  0.0400 -0.4407
17024TIP3    H172563   0.971   2.745   0.143  2.8848  0.4903 -0.2928
17024TIP3    H272564   0.995   2.688   0.281 -2.0260 -0.8073  0.1187
17025TIP3   OH272565   0.946   1.483  13.543  0.3392  0.5751 -0.1387
17025TIP3    H172566   0.960   1.557  13.484 -0.7277  0.9583  0.0785
17025TIP3    H272567   1.014   1.492  13.609  0.2203  1.3663 -0.1168
17026TIP3   OH272568   3.725   0.136   5.085  0.5588 -0.3539  0.4150
17026TIP3    H172569   3.821   0.130   5.087  0.5987  0.5100  2.3683
17026TIP3    H272570   3.700   0.132   5.177 -1.4617 -3.0294 -0.1795
17027TIP3   OH272571   2.226   5.639   4.516  0.0891 -0.3906 -0.0644
17027TIP3    H172572   2.179   5.679   4.589  1.0387  0.2522  0.1935
17027TIP3    H272573   2.314   5.624   4.548 -0.3257 -3.1023 -0.0007
17028TIP3   OH272574   2.164   5.381  14.961 -0.0493  0.2049 -0.1366
17028TIP3    H172575   2.210   5.320  14.903  0.7211  2.0349 -1.4939
17028TIP3    H272576   2.181   5.348  15.049  1.5488 -0.7451 -0.7851
17029TIP3   OH272577   1.515   6.562  16.544  0.3340  0.3401 -0.1118
17029TIP3    H172578   1.603   6.584  16.516 -0.7924  3.5685 -1.3060
17029TIP3    H272579   1.474   6.524  16.466  0.8721 -1.9328  0.6750
17030TIP3   OH272580   3.673   2.977  12.926 -0.2861  0.0469  0.0754
17030TIP3    H172581   3.652   2.964  13.018 -1.0150 -0.3044 -0.1364
17030TIP3    H272582   3.588   2.989  12.883  0.1263  1.8653 -0.3054
17031TIP3   OH272583   0.907   4.045   5.144 -0.4679 -0.0223 -0.2860
17031TIP3    H172584   0.934   4.135   5.124  0.9731  0.2116  2.4102
17031TIP3    H272585   0.925   3.996   5.064  1.1959  1.5924 -0.9320
17032TIP3   OH272586   6.547   5.417  11.684  0.4501 -0.7631  0.3525
17032TIP3    H172587   6.633   5.456  11.672 -0.1742  0.6850  0.4625
17032TIP3    H272588   6.508   5.417  11.596 -0.5744  1.3396  0.7854
17033TIP3   OH272589   0.721   1.353   1.554 -0.3621 -1.1658  0.1849
17033TIP3    H172590   0.707   1.440   1.516 -0.9348 -1.5618 -0.5385
17033TIP3    H272591   0.799   1.320   1.511  0.0330 -0.8865  0.6863
17034TIP3   OH272592   3.124   0.230  16.398  0.1811 -0.1954 -0.6300
17034TIP3    H172593   3.079   0.170  16.458  1.6128 -0.3149  0.3566
17034TIP3    H272594   3.097   0.317  16.428  0.8858 -0.2550  0.1839
17035TIP3   OH272595   6.712   2.999  14.158  0.3449 -0.5038  0.0262
17035TIP3    H172596   6.707   3.048  14.076 -0.3106  0.5135  0.6679
17035TIP3    H272597   6.745   3.062  14.222  1.2059 -1.3942  0.4661
17036TIP3   OH272598   5.610   1.550  17.141 -0.0052 -0.4100  0.4354
17036TIP3    H172599   5.621   1.510  17.227  1.8644  1.5851  1.1824
17036TIP3    H272600   5.566   1.633  17.158  0.1196 -0.1332 -0.5604
17037TIP3   OH272601   4.531   0.555   2.252  0.5909  0.1867  0.1081
17037TIP3    H172602   4.545   0.612   2.177 -1.9342  0.0516 -0.4804
17037TIP3    H272603   4.446   0.580   2.287  1.2372 -0.5046  2.2825
17038TIP3   OH272604   2.792   3.789   3.945  0.5233 -0.1295  0.0437
17038TIP3    H172605   2.798   3.767   3.852 -0.1348 -2.3880  0.5010
17038TIP3    H272606   2.704   3.761   3.970  0.0614  2.0507  0.9654
17039TIP3   OH272607   5.318   6.174   2.998 -0.3147  0.0012 -0.0973
17039TIP3    H172608   5.373   6.201   2.925  0.3056 -1.3329 -0.1299
17039TIP3    H272609   5.376   6.174   3.073 -0.0518 -2.1814 -0.2746
17040TIP3   OH272610   5.449   6.238  11.826 -0.0570 -0.1624 -0.2333
17040TIP3    H172611   5.476   6.300  11.893  1.8125 -2.1666  0.8980
17040TIP3    H272612   5.437   6.155  11.872 -1.7672 -0.8576 -1.8554
17041TIP3   OH272613   3.237   3.720   3.090  0.7999 -0.1065  0.2167
17041TIP3    H172614   3.322   3.725   3.044  0.9923 -0.3663  0.5421
17041TIP3    H272615   3.260   3.703   3.181  0.3551 -1.8603  0.0273
17042TIP3   OH272616   0.120   6.431  12.323 -0.2059  0.1273  0.4904
17042TIP3    H172617   0.073   6.390  12.250  1.5373 -1.9287  0.4759
17042TIP3    H272618   0.192   6.371  12.342  1.0034  2.0237  2.0937
17043TIP3   OH272619   0.229   1.222   0.844 -0.0244 -0.1228 -0.2854
17043TIP3    H172620   0.312   1.245   0.885 -0.1354  0.8641 -0.6164
17043TIP3    H272621   0.225   1.274   0.764 -1.1063  0.0749 -0.1178
17044TIP3   OH272622   5.690   5.044   5.364  0.1220  0.3419  0.6227
17044TIP3    H172623   5.710   5.041   5.458  2.5111 -0.3932  0.1219
17044TIP3    H272624   5.597   5.066   5.360  0.2627  1.5472  3.1399
17045TIP3   OH272625   0.336   5.953  12.502  0.1233  0.6122  0.1549
17045TIP3    H172626   0.425   5.978  12.526  0.6061 -0.5112 -0.4323
17045TIP3    H272627   0.299   5.916  12.582  0.6639 -0.2197  0.0243
17046TIP3   OH272628   2.627   2.554   1.265 -0.2007 -0.2054 -0.1991
17046TIP3    H172629   2.671   2.595   1.339  1.1013 -0.9951 -0.5156
17046TIP3    H272630   2.677   2.583   1.188 -2.2046  1.5013 -0.9054
17047TIP3   OH272631   4.079   6.599   0.742  0.1693  0.5274  0.4024
17047TIP3    H172632   4.010   6.546   0.701 -0.2604  0.3851  1.3133
17047TIP3    H272633   4.072   6.580   0.835 -0.4160  2.7264  0.8139
17048TIP3   OH272634   5.624   5.673   5.044  0.2887 -0.3382 -0.3107
17048TIP3    H172635   5.676   5.727   4.985 -1.3377  0.8765 -0.6704
17048TIP3    H272636   5.647   5.704   5.132  0.6304 -0.2375 -0.4339
17049TIP3   OH272637   0.432   1.476   1.453 -0.0770  0.0811  0.5382
17049TIP3    H172638   0.452   1.570   1.450 -2.0806  0.4951 -0.9679
17049TIP3    H272639   0.362   1.469   1.518 -1.1844 -0.0916 -0.6480
17050TIP3   OH272640   1.796   4.195   4.801  0.2359  0.5410  0.1216
17050TIP3    H172641   1.766   4.257   4.867 -0.9947 -0.0095  0.1014
17050TIP3    H272642   1.887   4.177   4.823 -0.5017 -0.5359  2.3714
17051TIP3   OH272643   2.550   1.413  14.323  0.0816  0.1626  1.1864
17051TIP3    H172644   2.501   1.477  14.270 -0.9849 -2.8407 -1.6992
17051TIP3    H272645   2.496   1.401  14.401  0.1188  2.4857  1.5989
17052TIP3   OH272646   5.446   4.742   0.251  0.3893  0.3059 -0.5647
17052TIP3    H172647   5.411   4.668   0.301  1.4173 -0.3176 -0.7627
17052TIP3    H272648   5.495   4.793   0.315 -0.4006  0.8779 -0.4076
17053TIP3   OH272649   4.137   1.034  12.522 -0.0611  0.9090  0.3565
17053TIP3    H172650   4.154   1.005  12.612  0.7947  2.0362  0.5770
17053TIP3    H272651   4.103   0.957  12.477 -0.3071  0.2843  1.6019
17054TIP3   OH272652   0.521   0.637  11.683  0.6790  0.5609  0.1351
17054TIP3    H172653   0.443   0.591  11.714  1.2551 -0.8904 -0.5223
17054TIP3    H272654   0.573   0.569  11.640  1.4838  1.8716 -0.9875
17055TIP3   OH272655   3.062   4.838  12.595 -0.5655  0.1081 -0.1387
17055TIP3    H172656   2.991   4.775  12.586 -0.5110  0.1988 -1.3035
17055TIP3    H272657   3.030   4.917  12.551 -0.6919  0.9613  1.4319
17056TIP3   OH272658   5.138   5.296   4.285  0.2874 -0.3590 -0.4586
17056TIP3    H172659   5.106   5.358   4.350 -0.0798 -0.1494 -0.8366
17056TIP3    H272660   5.084   5.218   4.298 -0.0649 -0.1703 -0.7857
17057TIP3   OH272661   6.235   2.496   0.947  0.1561 -0.1823 -0.1406
17057TIP3    H172662   6.294   2.472   1.019 -0.8693 -0.2786  0.6661
17057TIP3    H272663   6.267   2.581   0.917  0.4678 -0.0538  0.5511
17058TIP3   OH272664   3.892   2.091  15.410 -0.1237  0.5969  0.1955
17058TIP3    H172665   3.974   2.122  15.450  0.2294  2.9198 -2.2174
17058TIP3    H272666   3.826   2.153  15.440 -0.6268 -0.0696  0.4637
17059TIP3   OH272667   2.383   3.913  11.082 -0.4196 -0.2998  0.0269
17059TIP3    H172668   2.443   3.987  11.075 -1.5449  0.6112 -0.2518
17059TIP3    H272669   2.422   3.845  11.028  0.7529  0.0062  0.4850
17060TIP3   OH272670   0.489   1.582   0.011  0.0108 -0.5598  0.2550
17060TIP3    H172671   0.408   1.586   0.062 -0.3386 -0.1515 -0.3135
17060TIP3    H272672   0.511   1.674  -0.005 -1.2458 -0.6739 -2.4179
17061TIP3   OH272673   3.492   5.574  14.532 -0.0600  0.2182  0.6247
17061TIP3    H172674   3.525   5.554  14.445 -0.1764 -2.3102  1.0998
17061TIP3    H272675   3.452   5.492  14.562  0.0820  0.9893  3.0863
17062TIP3   OH272676   4.965   1.217  14.217  0.0173 -0.0468 -0.2555
17062TIP3    H172677   4.904   1.183  14.282 -0.7910  1.7021 -0.0674
17062TIP3    H272678   4.909   1.239  14.142  0.5383  0.6817 -0.4299
17063TIP3   OH272679   6.361   1.010   1.920  0.3872  0.0863  0.2169
17063TIP3    H172680   6.393   1.003   2.010  1.2446 -1.4259 -0.1964
17063TIP3    H272681   6.357   0.920   1.889 -0.2606  0.5798 -1.1434
17064TIP3   OH272682   6.430   6.542   6.004  0.2887 -0.0496 -0.3380
17064TIP3    H172683   6.375   6.618   6.022 -1.5156 -0.8681 -2.1869
17064TIP3    H272684   6.451   6.549   5.911  1.7666 -0.7602 -0.0727
17065TIP3   OH272685   6.233   5.395  16.094  0.6793  0.0659 -0.0762
17065TIP3    H172686   6.319   5.407  16.135  1.3217 -1.5739 -0.9023
17065TIP3    H272687   6.250   5.405  16.000 -0.4774  2.1039 -0.0785
17066TIP3   OH272688   1.465   0.705  13.521  0.1611  0.1235 -0.2819
17066TIP3    H172689   1.374   0.712  13.493  0.8194  1.8796 -2.0919
17066TIP3    H272690   1.476   0.775  13.586  0.1571 -0.2695  0.1468
17067TIP3   OH272691   0.538   5.747  10.815 -0.2647 -0.0278 -0.4451
17067TIP3    H172692   0.534   5.819  10.752  0.4239 -0.9029 -1.5302
17067TIP3    H272693   0.475   5.683  10.782  0.0761 -0.4797 -0.2224
17068TIP3   OH272694   2.551   4.016   2.901 -0.0524 -0.6706 -0.3581
17068TIP3    H172695   2.520   3.926   2.889 -1.5547 -0.0077 -1.6491
17068TIP3    H272696   2.472   4.070   2.889  0.8383  0.8196  0.3455
17069TIP3   OH272697   3.998   3.654  17.016 -0.1845 -0.1695 -0.4371
17069TIP3    H172698   3.996   3.734  17.069 -1.3571 -0.8035  0.4990
17069TIP3    H272699   3.985   3.686  16.926  0.1198  0.7566 -0.1646
17070TIP3   OH272700   1.028   3.271   3.287  0.4341  0.3602 -0.0491
17070TIP3    H172701   1.111   3.272   3.336  0.4714  1.1001 -0.1140
17070TIP3    H272702   1.055   3.264   3.196  0.4262  0.5483 -0.0665
17071TIP3   OH272703   5.848   0.175   6.636  0.4678 -0.0711 -0.3640
17071TIP3    H172704   5.941   0.166   6.614  0.5916  2.0020 -0.8410
17071TIP3    H272705   5.818   0.250   6.584 -0.8776  0.7761  1.5345
17072TIP3   OH272706   4.477   5.846   5.324 -0.1953 -0.2144 -0.2901
17072TIP3    H172707   4.442   5.902   5.255  2.1547  0.4237 -1.0022
17072TIP3    H272708   4.524   5.776   5.278  0.9469 -0.0770  0.6184
17073TIP3   OH272709   3.662   1.725  13.984  0.5276  0.0479  0.2513
17073TIP3    H172710   3.640   1.804  13.934  1.0801 -0.2321 -0.4423
17073TIP3    H272711   3.620   1.737  14.069 -0.9706  0.2402 -0.5108
17074TIP3   OH272712   4.344   6.637   1.458 -0.1584  0.6620  0.2494
17074TIP3    H172713   4.266   6.652   1.404 -1.1228  1.9558  1.9365
17074TIP3    H272714   4.311   6.588   1.534  0.8667  0.3384  0.4889
17075TIP3   OH272715   0.366   5.744   0.897  0.0407 -0.3307  0.4346
17075TIP3    H172716   0.295   5.795   0.859  0.4361  0.3036  0.5344
17075TIP3    H272717   0.433   5.741   0.828  0.9492  1.2140  1.2212
17076TIP3   OH272718   1.328   2.110  14.634  0.0356  0.3627 -0.2102
17076TIP3    H172719   1.354   2.197  14.603  0.6012  1.9017  4.2566
17076TIP3    H272720   1.408   2.073  14.671 -0.4443 -1.6888 -1.1556
17077TIP3   OH272721   0.802   6.789  14.255  0.7913  0.1855 -0.3084
17077TIP3    H172722   0.784   6.769  14.347 -0.4350 -1.3436 -0.8439
17077TIP3    H272723   0.897   6.800  14.251  0.9104 -0.2497  1.0445
17078TIP3   OH272724   1.620   6.301  13.693  0.4656  0.1274  0.4173
17078TIP3    H172725   1.611   6.323  13.600  0.4358 -0.9880  0.1375
17078TIP3    H272726   1.609   6.384  13.739 -2.1372  0.3101 -0.4286
17079TIP3   OH272727   2.085   4.278  12.134 -0.0846  0.7060  0.1218
17079TIP3    H172728   2.046   4.356  12.174  0.1105  0.6597  0.4071
17079TIP3    H272729   2.077   4.211  12.202 -1.3801  0.1444 -0.5725
17080TIP3   OH272730   1.226   0.468  15.579 -0.4126  0.0606  0.0917
17080TIP3    H172731   1.306   0.458  15.527 -0.6403 -2.9295  0.2173
17080TIP3    H272732   1.160   0.496  15.516  0.1753  0.1315 -0.4998
17081TIP3   OH272733   6.729   2.131  12.607  0.0129 -0.4618 -0.2760
17081TIP3    H172734   6.785   2.059  12.579  1.3056  0.2980  0.3166
17081TIP3    H272735   6.775   2.210  12.579  0.1403  0.2232  1.8196
17082TIP3   OH272736   6.592   3.372  14.148 -0.3103  0.5501  0.2360
17082TIP3    H172737   6.662   3.327  14.196  0.4058 -1.8267 -2.8786
17082TIP3    H272738   6.631   3.394  14.064 -2.9782  0.2793 -1.1181
17083TIP3   OH272739   6.551   0.700  11.037  0.0139  0.3608  0.4285
17083TIP3    H172740   6.615   0.729  10.972  0.6691 -0.3977  0.7352
17083TIP3    H272741   6.596   0.633  11.088 -0.2372  1.4880  2.1801
17084TIP3   OH272742   6.801   6.660  12.944 -0.0323  0.0899 -0.0748
17084TIP3    H172743   6.802   6.751  12.974 -0.0990  0.2011 -0.4033
17084TIP3    H272744   6.893   6.639  12.931 -0.0357  0.2059 -0.2834
17085TIP3   OH272745   4.438   1.286  12.044  0.2090  0.4994 -0.0446
17085TIP3    H172746   4.384   1.291  12.123 -1.8277 -0.7435 -1.2749
17085TIP3    H272747   4.522   1.252  12.074 -0.0774  1.3233  1.7638
17086TIP3   OH272748   5.255   2.598   5.180 -0.0609  0.0054  0.6500
17086TIP3    H172749   5.345   2.568   5.193 -0.5281 -1.7988 -0.1808
17086TIP3    H272750   5.245   2.671   5.241  1.4956 -0.7404  1.8333
17087TIP3   OH272751   0.450   2.197  12.880  0.0349 -0.2704  0.1327
17087TIP3    H172752   0.400   2.124  12.915 -1.5419 -0.3360 -2.1523
17087TIP3    H272753   0.391   2.273  12.887  0.7355  0.2759  0.2023
17088TIP3   OH272754   5.560   3.725   3.550  0.5345 -0.0332  0.2052
17088TIP3    H172755   5.465   3.721   3.557  0.6484 -0.0464  1.8393
17088TIP3    H272756   5.588   3.634   3.560  0.8287  0.2003  1.5792
17089TIP3   OH272757   0.113   2.842  14.957 -0.6102  0.5421 -0.1509
17089TIP3    H172758   0.062   2.781  15.010 -1.1557 -0.9865 -2.3381
17089TIP3    H272759   0.049   2.908  14.928  0.0535  2.4713  2.5273
17090TIP3   OH272760   1.526   1.484  10.630 -0.3004  0.5172 -0.7093
17090TIP3    H172761   1.555   1.468  10.540 -0.3180 -1.2228 -0.4318
17090TIP3    H272762   1.453   1.423  10.642 -0.4408  0.8996  0.4216
17091TIP3   OH272763   5.428   4.884   0.841 -0.2576 -0.4367  0.2738
17091TIP3    H172764   5.502   4.823   0.835 -0.1802 -0.3030 -0.1641
17091TIP3    H272765   5.463   4.967   0.807  0.4407  0.5972  3.3848
17092TIP3   OH272766   1.421   5.799  14.106 -0.5812 -0.8588 -0.4859
17092TIP3    H172767   1.480   5.860  14.149 -0.4114 -2.9665  2.4139
17092TIP3    H272768   1.343   5.796  14.162 -1.0434 -2.4091 -1.1647
17093TIP3   OH272769   4.943   6.318  14.092  0.0219  0.0218  0.1816
17093TIP3    H172770   5.037   6.336  14.092 -0.2661  1.7324 -2.1052
17093TIP3    H272771   4.902   6.400  14.119 -0.8517 -0.3953  0.1523
17094TIP3   OH272772   4.846   4.898  16.387  0.4238 -0.4001 -0.6056
17094TIP3    H172773   4.820   4.826  16.330  0.0125 -1.3553  0.7647
17094TIP3    H272774   4.901   4.857  16.454  0.6239  0.6482 -0.1205
17095TIP3   OH272775   1.103   3.935   3.749 -0.5036 -0.6393  0.0625
17095TIP3    H172776   1.044   3.944   3.823  2.0255 -1.1198  2.2258
17095TIP3    H272777   1.116   3.841   3.738  1.1658 -0.5135  0.7398
17096TIP3   OH272778   6.634   4.208   0.203  0.3060  0.1624 -0.2397
17096TIP3    H172779   6.589   4.131   0.237  1.0178 -1.1477 -2.2194
17096TIP3    H272780   6.573   4.245   0.139 -1.1655  2.8070  2.5306
17097TIP3   OH272781   3.017   6.232   6.213 -0.4955 -0.1343 -0.3320
17097TIP3    H172782   3.050   6.320   6.193 -0.5338  0.0588  0.4395
17097TIP3    H272783   3.087   6.173   6.186 -0.2149  0.1702 -0.2683
17098TIP3   OH272784   5.293   3.018   2.368  0.0005  0.1970 -0.3418
17098TIP3    H172785   5.267   2.938   2.322  0.0991 -1.0657  1.7205
17098TIP3    H272786   5.362   2.990   2.428  0.6673  2.0175 -0.2180
17099TIP3   OH272787   6.173   0.650   0.118  0.3201 -0.1465 -0.3041
17099TIP3    H172788   6.183   0.558   0.092  2.4466  0.1417 -0.5803
17099TIP3    H272789   6.103   0.683   0.061 -1.8157 -2.0637  1.1047
17100TIP3   OH272790   3.948   4.527  13.283  0.1789  0.3915 -0.4685
17100TIP3    H172791   4.037   4.499  13.260  0.0555 -0.2470 -0.1747
17100TIP3    H272792   3.892   4.489  13.216 -0.3122 -2.4056  1.4263
17101TIP3   OH272793   6.242   0.976  11.387 -0.0204 -0.0733  0.0246
17101TIP3    H172794   6.197   0.988  11.303  0.7567  0.3312 -0.3467
17101TIP3    H272795   6.230   0.883  11.407  0.2986 -0.3116 -0.8442
17102TIP3   OH272796   1.963   4.322   1.519  0.0393 -0.5129  0.5966
17102TIP3    H172797   1.878   4.279   1.514 -0.0208 -0.6859  2.8014
17102TIP3    H272798   1.947   4.409   1.484 -0.9277 -0.7167  0.5047
17103TIP3   OH272799   4.508   3.704   2.122  0.1474 -0.4946  0.2929
17103TIP3    H172800   4.579   3.682   2.182  1.4120 -1.2462 -1.4378
17103TIP3    H272801   4.542   3.777   2.071  0.0738 -1.5044 -1.2134
17104TIP3   OH272802   5.562   3.702  11.679 -0.1879 -0.3945 -0.1588
17104TIP3    H172803   5.533   3.627  11.732  1.9702 -1.4609 -0.4187
17104TIP3    H272804   5.650   3.678  11.650  0.7962  2.5093  0.2420
17105TIP3   OH272805   2.126   2.302  11.880  0.1624  0.0191  0.3914
17105TIP3    H172806   2.060   2.260  11.825 -0.5278  0.1406  1.1094
17105TIP3    H272807   2.177   2.356  11.820  0.7963 -1.5073 -0.4805
17106TIP3   OH272808   0.546   2.671   3.425  0.6769  0.5548  0.0590
17106TIP3    H172809   0.553   2.587   3.380  1.2505  0.0657  1.0603
17106TIP3    H272810   0.584   2.656   3.511  2.6353  2.3576 -0.4409
17107TIP3   OH272811   0.996   2.955  13.798 -0.5889  0.6242  0.4890
17107TIP3    H172812   1.046   2.973  13.878 -1.2259  1.3238  0.7321
17107TIP3    H272813   0.920   2.904  13.829 -0.0220 -0.4706  0.1170
17108TIP3   OH272814   6.016   4.978  17.031 -0.9996 -0.2472 -0.6211
17108TIP3    H172815   6.013   5.033  17.110  0.7622 -0.2449 -0.5291
17108TIP3    H272816   6.110   4.971  17.011 -1.2271 -2.7565 -0.9714
17109TIP3   OH272817   0.275   2.153  13.476  0.1327 -0.1371 -0.1216
17109TIP3    H172818   0.327   2.223  13.516  0.3793 -0.4424  0.0950
17109TIP3    H272819   0.202   2.139  13.537  0.5822 -0.6966  0.3042
17110TIP3   OH272820   0.896   4.370  16.890  0.3682  0.2298  0.1758
17110TIP3    H172821   0.953   4.320  16.831 -0.0585  0.5986 -0.5472
17110TIP3    H272822   0.814   4.379  16.843 -0.2933 -0.2899  1.2218
17111TIP3   OH272823   2.016   1.061   2.327  0.0330 -0.5527  0.1387
17111TIP3    H172824   2.036   1.028   2.415  1.2941  0.2128  0.1458
17111TIP3    H272825   2.096   1.045   2.277 -0.3413 -0.0825 -0.6044
17112TIP3   OH272826   4.791   0.408   0.933  0.0874 -0.1858 -0.1543
17112TIP3    H172827   4.774   0.444   0.847  3.6934 -0.1532 -0.9490
17112TIP3    H272828   4.766   0.316   0.927 -3.4737  0.7119  0.0575
17113TIP3   OH272829   2.773   0.686  14.333 -0.8247 -0.6039  0.2508
17113TIP3    H172830   2.680   0.703  14.323 -0.6090  1.3484  1.4503
17113TIP3    H272831   2.778   0.609  14.390 -1.6785  0.4621  1.7866
17114TIP3   OH272832   5.072   3.719  15.063 -0.2153  0.5448  0.1911
17114TIP3    H172833   5.030   3.639  15.030 -0.7043  1.1846 -0.7434
17114TIP3    H272834   5.160   3.717  15.025 -0.3360  0.6068 -0.0976
17115TIP3   OH272835   1.908   0.873   4.795 -0.5757 -0.0084  0.8634
17115TIP3    H172836   1.977   0.811   4.769 -0.5568  0.1512  0.5172
17115TIP3    H272837   1.899   0.930   4.718 -1.9244 -0.7593  0.4520
17116TIP3   OH272838   0.236   1.465   1.165 -0.1276 -0.2932  0.1419
17116TIP3    H172839   0.282   1.382   1.175 -0.9343 -0.4841  2.4031
17116TIP3    H272840   0.237   1.481   1.070 -0.9963 -3.4722 -0.4735
17117TIP3   OH272841   5.558   4.955   3.831  0.3657 -0.0625  0.6944
17117TIP3    H172842   5.512   4.899   3.768  0.5683 -0.1587  0.6318
17117TIP3    H272843   5.571   5.037   3.785  1.0375 -0.3316  0.4036
17118TIP3   OH272844   2.625   0.069  15.580  0.2054 -0.2890  0.3042
17118TIP3    H172845   2.665   0.021  15.507 -0.5029 -0.4561  0.0215
17118TIP3    H272846   2.613   0.158  15.546  0.9830 -0.0575  0.6295
17119TIP3   OH272847   0.597   5.909   5.033 -0.1360 -0.1542  0.3240
17119TIP3    H172848   0.627   5.920   5.124 -3.0186 -1.5761  1.5314
17119TIP3    H272849   0.673   5.875   4.986  1.5979  1.2353  2.0672
17120TIP3   OH272850   2.270   2.232   3.289  0.8721 -0.5157  0.1198
17120TIP3    H172851   2.262   2.218   3.384  0.9744  0.6919  0.3138
17120TIP3    H272852   2.180   2.235   3.258  0.8472 -2.2203 -0.0346
17121TIP3   OH272853   4.271   5.429  17.018  0.2597  0.0707 -0.5263
17121TIP3    H172854   4.358   5.416  16.979 -0.1430 -0.0999 -1.3727
17121TIP3    H272855   4.238   5.340  17.031 -0.5163  0.1547 -1.8573
17122TIP3   OH272856   1.482   2.711  14.474  0.1745  0.0553  0.1585
17122TIP3    H172857   1.482   2.680  14.384 -0.0524  0.0907  0.1477
17122TIP3    H272858   1.539   2.650  14.521 -2.2487 -1.8612  0.6747
17123TIP3   OH272859   6.068   1.508  17.151 -0.6531 -0.7612 -0.0876
17123TIP3    H172860   6.040   1.569  17.219 -1.1277  0.7605 -1.6167
17123TIP3    H272861   6.145   1.465  17.187 -0.0649  1.0591  0.8469
17124TIP3   OH272862   2.417   5.757  15.439 -0.0897 -0.3726  0.4448
17124TIP3    H172863   2.331   5.731  15.471 -0.7999  2.0349  0.5562
17124TIP3    H272864   2.419   5.727  15.348 -1.7381  1.1137 -0.0894
17125TIP3   OH272865   0.283   0.861  16.419  0.7410 -0.7480 -0.1342
17125TIP3    H172866   0.295   0.949  16.382  3.1374 -1.6561 -1.6693
17125TIP3    H272867   0.258   0.877  16.510  1.3466  1.5483 -0.3264
17126TIP3   OH272868   1.950   3.831   4.958 -0.2374  0.6040 -0.1024
17126TIP3    H172869   2.009   3.836   5.034  0.7608 -1.9742 -0.6266
17126TIP3    H272870   1.864   3.811   4.996  0.5860 -2.4271  0.3218
17127TIP3   OH272871   0.735   5.955  11.225  1.0631  0.3235 -0.2567
17127TIP3    H172872   0.784   5.892  11.173  0.0091 -2.3832  1.8809
17127TIP3    H272873   0.656   5.974  11.173  0.5948 -1.4269 -0.2212
17128TIP3   OH272874   4.699   0.209  15.572  0.2736 -0.0596  0.5850
17128TIP3    H172875   4.642   0.176  15.503  0.8552  0.1281  0.0093
17128TIP3    H272876   4.706   0.137  15.634 -1.7017  0.3895  1.3731
17129TIP3   OH272877   3.536   1.358   4.229 -0.6394  0.2100 -0.2568
17129TIP3    H172878   3.576   1.274   4.207 -0.2706  0.5105 -0.7510
17129TIP3    H272879   3.483   1.380   4.153 -2.1083 -0.3922  0.5803
17130TIP3   OH272880   0.123   5.897  13.863  0.0648  0.2792 -0.0476
17130TIP3    H172881   0.051   5.934  13.812  0.7122  1.3239 -0.2328
17130TIP3    H272882   0.168   5.839  13.801 -1.6981 -1.8679  0.6072
17131TIP3   OH272883   2.196   3.557  14.076  0.4684 -0.5823  0.1146
17131TIP3    H172884   2.261   3.611  14.030 -0.5916  0.9816  0.4538
17131TIP3    H272885   2.247   3.481  14.107  2.4520  1.2829  1.6045
17132TIP3   OH272886   0.835   5.179  15.302 -0.1054 -0.1649 -0.4498
17132TIP3    H172887   0.788   5.244  15.250  0.1918  0.4014 -0.0304
17132TIP3    H272888   0.784   5.099  15.294 -0.5538  0.1619 -0.8647
17133TIP3   OH272889   2.879   0.258  14.887 -0.3022 -0.1240 -0.0874
17133TIP3    H172890   2.795   0.233  14.849 -1.2302  2.8844 -0.1320
17133TIP3    H272891   2.930   0.291  14.812 -0.1419  0.7196  0.3841
17134TIP3   OH272892   4.899   3.750  15.864 -0.1746 -0.5209  0.1723
17134TIP3    H172893   4.880   3.704  15.782  1.0967 -1.8287  0.5903
17134TIP3    H272894   4.875   3.686  15.932  2.8126 -1.0834  0.7473
17135TIP3   OH272895   3.554   2.015   3.235 -0.4195 -0.0164  0.4066
17135TIP3    H172896   3.623   1.950   3.231  0.5649  0.9861  0.7171
17135TIP3    H272897   3.521   2.011   3.325 -1.0067 -0.7397  0.1589
17136TIP3   OH272898   5.025   6.525  12.840  0.0035 -0.6970  0.2436
17136TIP3    H172899   5.091   6.480  12.892  2.4800  1.2895 -1.0800
17136TIP3    H272900   5.036   6.618  12.862 -0.2375 -0.0326 -2.3372
17137TIP3   OH272901   2.605   3.844  15.955  0.3748  0.4659  0.3329
17137TIP3    H172902   2.564   3.924  15.988  0.0627  0.1435  0.7335
17137TIP3    H272903   2.544   3.813  15.887 -0.2951 -0.2714  1.2597
17138TIP3   OH272904   5.893   5.656   1.913  0.0528 -0.3097  0.7061
17138TIP3    H172905   5.843   5.737   1.919  0.3133  0.1430 -2.4744
17138TIP3    H272906   5.832   5.592   1.876  0.4384 -1.0303  1.3022
17139TIP3   OH272907   2.619   5.562  16.027  0.6031  0.1486  0.3070
17139TIP3    H172908   2.639   5.519  16.110  3.2176  3.0987  1.3363
17139TIP3    H272909   2.528   5.590  16.036  0.5817 -0.3432  1.8460
17140TIP3   OH272910   1.154   5.106  11.608  0.4190  0.2635  0.2335
17140TIP3    H172911   1.137   5.197  11.630 -0.6670  0.6511 -2.1652
17140TIP3    H272912   1.076   5.077  11.561  0.8745 -1.8328  0.6923
17141TIP3   OH272913   6.065   6.050  11.918  0.1827  0.1173  0.4075
17141TIP3    H172914   6.036   5.964  11.887  0.7728  0.1258 -0.1805
17141TIP3    H272915   6.013   6.113  11.867  2.4120  0.1675 -1.9145
17142TIP3   OH272916   2.258   5.284  10.457 -0.0616 -0.2006 -0.1375
17142TIP3    H172917   2.213   5.368  10.447 -1.1686 -0.5880  1.3213
17142TIP3    H272918   2.316   5.278  10.382 -0.7258  1.4099 -0.7934
17143TIP3   OH272919   5.732   5.255   5.893  0.0745 -0.1243 -0.3108
17143TIP3    H172920   5.782   5.299   5.824 -3.4211  0.4191 -2.6339
17143TIP3    H272921   5.744   5.162   5.876  1.2351 -0.0253 -0.0981
17144TIP3   OH272922   4.846   5.451   4.730 -0.0923 -0.3513 -0.3476
17144TIP3    H172923   4.781   5.388   4.761 -0.7305 -0.7214 -2.3915
17144TIP3    H272924   4.927   5.402   4.725  0.6121  0.2983  2.9678
17145TIP3   OH272925   1.109   2.287   3.663 -0.2460 -0.4611  0.0692
17145TIP3    H172926   1.173   2.359   3.669  0.9959 -1.5814  0.6459
17145TIP3    H272927   1.058   2.307   3.584 -1.7794  2.5200  1.7396
17146TIP3   OH272928   0.708   0.654   0.154 -0.2171  0.7523 -0.0169
17146TIP3    H172929   0.726   0.632   0.246 -2.0805  1.3025  0.5030
17146TIP3    H272930   0.637   0.718   0.159 -1.1154 -0.0762 -1.9086
17147TIP3   OH272931   1.732   2.455  11.330  0.6150 -0.2886 -0.2718
17147TIP3    H172932   1.704   2.435  11.241 -3.0990  1.7131  0.3471
17147TIP3    H272933   1.711   2.376  11.380 -1.1331  0.0162 -0.4617
17148TIP3   OH272934   3.454   3.019   5.975  0.2399 -0.2691 -0.2984
17148TIP3    H172935   3.426   2.956   6.042  0.0724 -0.5225 -0.6033
17148TIP3    H272936   3.429   3.104   6.011 -2.0000 -0.5652 -1.0782
17149TIP3   OH272937   1.978   2.810  16.958 -0.1705  0.1907  0.3000
17149TIP3    H172938   1.983   2.865  16.880  1.9811 -0.6753 -0.2213
17149TIP3    H272939   2.025   2.730  16.934 -2.3014 -1.4489  1.3995
17150TIP3   OH272940   3.170   3.803  14.139  0.3084 -0.1623 -0.0658
17150TIP3    H172941   3.176   3.867  14.068  0.6136 -0.2398 -0.1137
17150TIP3    H272942   3.125   3.728  14.101 -2.0671  0.8809  0.6135
17151TIP3   OH272943   3.629   0.967  16.393 -0.3910 -0.3525 -0.9798
17151TIP3    H172944   3.688   0.918  16.336 -0.2871  1.8071 -2.7781
17151TIP3    H272945   3.661   0.948  16.482 -0.2524 -3.3469 -1.6110
17152TIP3   OH272946   1.644   2.942  12.811  0.3965 -0.3961 -0.4242
17152TIP3    H172947   1.652   3.037  12.799 -2.6445 -0.2826 -1.8851
17152TIP3    H272948   1.624   2.909  12.724 -2.3827 -1.9259  0.7415
17153TIP3   OH272949   2.980   5.149   0.417 -0.1179 -0.1895 -0.1680
17153TIP3    H172950   2.903   5.167   0.471  0.1583  0.1018  0.1253
17153TIP3    H272951   2.999   5.232   0.374 -0.8444 -0.6244 -1.3775
17154TIP3   OH272952   2.892   2.786  13.852 -0.0653  0.4334  0.3954
17154TIP3    H172953   2.815   2.735  13.829  1.1650 -1.3652  0.1827
17154TIP3    H272954   2.930   2.813  13.769  1.1065 -1.0917  0.4248
17155TIP3   OH272955   6.609   4.386   1.135  0.0386  0.6065 -0.1810
17155TIP3    H172956   6.575   4.447   1.070 -0.6345  0.9919  0.5197
17155TIP3    H272957   6.567   4.303   1.114  0.8297  0.4240 -1.0365
17156TIP3   OH272958   6.676   4.820  13.968  0.4170 -0.6175  0.0327
17156TIP3    H172959   6.612   4.760  14.004 -1.4598  0.3814 -1.5693
17156TIP3    H272960   6.675   4.895  14.028  0.9468 -1.0761  0.6318
17157TIP3   OH272961   2.105   4.023   2.115  0.5861  0.3535  0.1089
17157TIP3    H172962   2.042   3.977   2.060  1.4013 -0.3371 -0.2471
17157TIP3    H272963   2.102   4.113   2.084  0.2919  0.1788 -0.3754
17158TIP3   OH272964   3.946   2.251   2.758 -0.0083 -0.7437 -0.1405
17158TIP3    H172965   4.035   2.283   2.744 -0.2736 -0.2035 -0.6178
17158TIP3    H272966   3.890   2.318   2.718 -0.5846 -1.5298 -0.6666
17159TIP3   OH272967   4.516   1.604   5.047 -0.0501 -0.0196  0.1932
17159TIP3    H172968   4.598   1.631   5.089 -0.3504  0.1990  0.6431
17159TIP3    H272969   4.451   1.669   5.076 -0.0897  0.6168 -1.2719
17160TIP3   OH272970   1.348   0.792  16.238  0.7652 -0.4511  0.0729
17160TIP3    H172971   1.410   0.853  16.278 -0.4562  1.0358 -0.2762
17160TIP3    H272972   1.315   0.740  16.312 -1.1532  1.9807  0.9873
17161TIP3   OH272973   3.242   3.684   0.140 -0.5606 -0.2274 -0.5899
17161TIP3    H172974   3.312   3.620   0.128 -0.7442 -0.7687  1.2087
17161TIP3    H272975   3.285   3.758   0.184 -0.7698  0.1374 -0.9868
17162TIP3   OH272976   1.811   2.080   5.491  0.1733 -0.4679 -0.2390
17162TIP3    H172977   1.872   2.143   5.454  0.7148 -0.9600 -0.1787
17162TIP3    H272978   1.817   2.003   5.434 -0.8236 -0.3020 -0.5825
17163TIP3   OH272979   5.729   3.552  14.380 -0.4253 -0.2286  0.4429
17163TIP3    H172980   5.798   3.588  14.436 -1.8279 -0.2293  2.1731
17163TIP3    H272981   5.667   3.624  14.370  0.3955  0.1890 -2.1525
17164TIP3   OH272982   2.913   0.811   0.044 -0.0900  0.0900 -0.0115
17164TIP3    H172983   2.871   0.888   0.081  1.0866  0.4788  0.5432
17164TIP3    H272984   2.977   0.784   0.111  0.6587 -0.3781 -0.9039
17165TIP3   OH272985   4.782   0.634  13.521  0.1536  0.0813 -0.3136
17165TIP3    H172986   4.822   0.644  13.607 -1.5685  2.3052  0.2995
17165TIP3    H272987   4.820   0.705  13.469 -3.2857  2.6266  0.4607
17166TIP3   OH272988   1.466   5.946   2.568  0.0913 -0.2079  0.2517
17166TIP3    H172989   1.478   5.992   2.651  0.5622  0.3313 -0.1075
17166TIP3    H272990   1.555   5.924   2.540 -0.1554 -1.6369  0.5790
17167TIP3   OH272991   3.149   1.745  13.677  0.0568  0.4905 -0.0536
17167TIP3    H172992   3.058   1.775  13.680 -0.9788 -2.2091 -2.1595
17167TIP3    H272993   3.172   1.726  13.768 -2.1016 -0.4621  0.3088
17168TIP3   OH272994   3.749   0.088  16.659 -0.0618 -0.0376  0.1007
17168TIP3    H172995   3.708   0.174  16.653  0.0794 -0.0261 -0.6573
17168TIP3    H272996   3.749   0.054  16.570  0.2206 -0.6709  0.3357
17169TIP3   OH272997   6.082   2.253  11.073 -0.3819  0.3928 -0.0427
17169TIP3    H172998   6.023   2.191  11.116  0.0294  0.7323  1.0465
17169TIP3    H272999   6.116   2.206  10.997 -0.7830 -0.3837  0.2531
17170TIP3   OH273000   2.994   3.996  11.268 -0.1977 -0.1275  0.3004
17170TIP3    H173001   3.001   3.952  11.183  0.1676  1.0154 -0.2668
17170TIP3    H273002   3.057   3.950  11.324  0.4242 -0.1029 -0.3807
17171TIP3   OH273003   0.984   3.300  11.977  0.1595  0.1309 -0.6130
17171TIP3    H173004   1.040   3.268  11.906  0.3014 -1.5707  0.2429
17171TIP3    H273005   0.919   3.355  11.933  1.4195  0.6610 -1.8267
17172TIP3   OH273006   4.740   5.607   2.692  0.3026 -0.3857  0.3978
17172TIP3    H173007   4.730   5.513   2.702 -1.0192 -0.3329 -0.2838
17172TIP3    H273008   4.829   5.626   2.721  0.5530 -1.8355  0.5669
17173TIP3   OH273009   1.681   0.979  13.350  0.3901 -0.3015  0.4704
17173TIP3    H173010   1.703   1.070  13.331 -1.6591  0.4549  1.5965
17173TIP3    H273011   1.740   0.954  13.420  1.1096  0.0720  0.0125
17174TIP3   OH273012   5.175   6.692   2.376 -0.4601 -0.0941  0.4092
17174TIP3    H173013   5.267   6.686   2.403 -0.7845  1.8640  2.1245
17174TIP3    H273014   5.174   6.763   2.312 -0.9449  0.7243  1.3068
17175TIP3   OH273015   3.286   2.010  12.824 -0.0541  0.2577  0.3978
17175TIP3    H173016   3.343   2.075  12.782 -1.1833  0.4299 -0.9055
17175TIP3    H273017   3.209   2.061  12.851 -1.8301 -0.8324 -2.3802
17176TIP3   OH273018   5.906   3.179  16.039 -0.3179 -0.2889  0.1527
17176TIP3    H173019   5.927   3.196  15.947  0.4518  2.0879  0.7374
17176TIP3    H273020   5.820   3.137  16.036 -0.2290 -0.4035 -1.6625
17177TIP3   OH273021   5.661   5.324  15.157  0.0457  0.5386 -0.0461
17177TIP3    H173022   5.609   5.247  15.137 -0.0187  1.1531 -2.4063
17177TIP3    H273023   5.598   5.396  15.164  0.3563  0.8640 -0.5508
17178TIP3   OH273024   6.474   3.548   0.038 -0.6576 -0.2599  0.1591
17178TIP3    H173025   6.499   3.469  -0.009  1.1531 -0.8355  2.0457
17178TIP3    H273026   6.556   3.585   0.070 -1.5388  2.0284 -0.1022
17179TIP3   OH273027   2.767   3.610  13.167  0.7900  0.1091  0.2731
17179TIP3    H173028   2.794   3.543  13.230  0.5479 -0.6427 -0.4200
17179TIP3    H273029   2.703   3.566  13.111  1.4937  0.5817 -0.9143
17180TIP3   OH273030   4.630   2.718  11.879  0.4617  0.0717  0.2358
17180TIP3    H173031   4.551   2.763  11.908  0.7294  0.1691  0.8236
17180TIP3    H273032   4.599   2.630  11.857  0.1503  0.1726  0.2575
17181TIP3   OH273033   6.797   4.204   1.633 -0.4858 -0.3715 -0.5290
17181TIP3    H173034   6.888   4.176   1.622 -0.1191  0.9588 -0.9904
17181TIP3    H273035   6.784   4.270   1.565 -2.4924 -2.1674 -1.9531
17182TIP3   OH273036   2.393   0.645  10.967 -0.6463 -0.2925  0.1226
17182TIP3    H173037   2.373   0.577  10.902 -3.7906 -0.1976  0.8958
17182TIP3    H273038   2.341   0.620  11.044  1.0001  1.0150  1.6863
17183TIP3   OH273039   2.181   0.127   3.491  0.0560  0.1774 -0.5581
17183TIP3    H173040   2.203   0.178   3.413  0.0578 -0.7511 -1.1717
17183TIP3    H273041   2.213   0.180   3.564 -2.6841  2.5516 -0.9643
17184TIP3   OH273042   3.934   1.065  13.701 -0.5450 -0.4463 -0.6103
17184TIP3    H173043   4.003   1.023  13.650 -0.3840 -0.7182 -0.1703
17184TIP3    H273044   3.972   1.149  13.727  0.0459 -1.0441  0.5514
17185TIP3   OH273045   4.830   3.754  14.907 -0.3429  0.1093 -0.2278
17185TIP3    H173046   4.815   3.694  14.834 -1.1705 -1.5047  1.2276
17185TIP3    H273047   4.925   3.758  14.916 -0.2428  0.3925 -1.4562
17186TIP3   OH273048   3.407   3.867   4.402  0.3013  0.5599 -0.0442
17186TIP3    H173049   3.354   3.793   4.430  2.7210 -1.0833  0.3158
17186TIP3    H273050   3.491   3.854   4.445  0.9868  3.1570 -0.5243
17187TIP3   OH273051   5.653   6.590   1.750  0.7127  0.1782  0.7310
17187TIP3    H173052   5.725   6.528   1.735 -0.1044 -0.7862  0.7054
17187TIP3    H273053   5.617   6.606   1.662  0.1536 -0.2683  0.8721
17188TIP3   OH273054   1.005   3.066  16.520 -0.1800  0.1105 -0.0385
17188TIP3    H173055   0.957   3.146  16.498  0.9335  0.2436 -2.0444
17188TIP3    H273056   0.965   2.998  16.466  0.5175 -0.1883 -0.1894
17189TIP3   OH273057   2.839   6.046   5.571 -0.7194  0.4945 -0.3135
17189TIP3    H173058   2.781   5.998   5.630 -1.5052  1.0618 -0.6129
17189TIP3    H273059   2.813   6.138   5.582 -0.4699  0.6640 -1.1070
17190TIP3   OH273060   6.815   2.425  13.662  0.1107  0.3302 -0.0542
17190TIP3    H173061   6.723   2.403  13.676  0.0287 -0.4610 -1.7062
17190TIP3    H273062   6.824   2.429  13.567  1.4199  2.0033  0.1252
17191TIP3   OH273063   1.304   2.342   2.991 -0.1146 -0.3312 -0.6399
17191TIP3    H173064   1.227   2.306   3.035 -1.5007  1.6553 -1.3740
17191TIP3    H273065   1.373   2.341   3.058 -1.5531  0.5194  0.8823
17192TIP3   OH273066   4.022   2.413   0.652 -0.2462 -0.5509 -0.0596
17192TIP3    H173067   3.988   2.493   0.613 -2.1792 -1.8321 -1.0695
17192TIP3    H273068   4.030   2.351   0.579  1.9493 -1.0726  0.5691
17193TIP3   OH273069   4.428   0.267   2.767 -0.2932 -0.1107 -0.1572
17193TIP3    H173070   4.455   0.296   2.679  1.6380  0.4570  0.5975
17193TIP3    H273071   4.421   0.348   2.817  0.0414 -0.5451  0.5926
17194TIP3   OH273072   3.301   2.103   2.342 -0.2649  0.3332  0.3706
17194TIP3    H173073   3.245   2.165   2.388  1.0494  0.5709  1.6879
17194TIP3    H273074   3.316   2.033   2.405  1.3663  0.5429  0.2286
17195TIP3   OH273075   3.878   2.676   4.732  0.2592  0.3993 -0.0150
17195TIP3    H173076   3.902   2.685   4.824 -1.7791 -0.0891  0.5976
17195TIP3    H273077   3.845   2.762   4.707  0.0813  0.3165 -0.0652
17196TIP3   OH273078   3.756   6.004   2.538 -0.5174  0.4031 -0.0815
17196TIP3    H173079   3.760   5.909   2.526  1.2343  0.5701 -1.0193
17196TIP3    H273080   3.700   6.016   2.614  0.5395 -1.4538  1.0345
17197TIP3   OH273081   3.583   5.525  13.806 -0.2501 -0.5615 -0.4822
17197TIP3    H173082   3.596   5.462  13.736  1.9158  0.1288 -0.7467
17197TIP3    H273083   3.488   5.534  13.813 -0.5247 -1.8759 -2.1987
17198TIP3   OH273084   4.854   5.538  11.614 -0.0417  0.3133 -0.1155
17198TIP3    H173085   4.935   5.581  11.642 -0.9403  1.7123  0.3788
17198TIP3    H273086   4.853   5.549  11.519  0.3901  0.1867 -0.1407
17199TIP3   OH273087   2.892   4.517  14.563  0.4385  0.5405 -0.0275
17199TIP3    H173088   2.959   4.472  14.512  2.5257  3.8622 -0.4177
17199TIP3    H273089   2.814   4.515  14.508  1.5832  0.7383 -1.6922
17200TIP3   OH273090   5.073   1.146  15.439  0.0957  0.2461 -0.5871
17200TIP3    H173091   5.092   1.114  15.527  2.9305  0.7507 -0.9741
17200TIP3    H273092   5.044   1.068  15.391 -3.6938  0.3481  1.2901
17201TIP3   OH273093   6.224   4.774   2.108 -0.1921 -0.2628  0.1324
17201TIP3    H173094   6.159   4.749   2.042 -0.2546  0.7687 -0.1996
17201TIP3    H273095   6.283   4.699   2.112  0.1763 -0.0837 -1.5637
17202TIP3   OH273096   1.312   6.794   3.317 -0.0226  0.9786 -0.5435
17202TIP3    H173097   1.235   6.808   3.372  0.8977  1.5742  0.6005
17202TIP3    H273098   1.325   6.878   3.274 -0.5945  0.5854 -1.5111
17203TIP3   OH273099   3.507   5.289   5.595 -0.5753 -0.5250 -0.3988
17203TIP3    H173100   3.414   5.304   5.613 -0.4601 -1.1947  0.7922
17203TIP3    H273101   3.514   5.195   5.579  0.2460 -0.8593  1.7529
17204TIP3   OH273102   5.698   2.644  16.640  0.4886  0.0676  0.3481
17204TIP3    H173103   5.742   2.685  16.714  1.3246 -0.1875  0.0005
17204TIP3    H273104   5.705   2.550  16.657 -0.8436  0.0314  0.8110
17205TIP3   OH273105   1.738   1.422  16.918 -0.2326  0.0445  0.3653
17205TIP3    H173106   1.665   1.482  16.929 -1.0038 -0.6370 -0.9568
17205TIP3    H273107   1.815   1.479  16.919 -0.8490  0.8990  0.4764
17206TIP3   OH273108   3.057   1.275   2.480  0.0682 -0.3993 -0.4133
17206TIP3    H173109   3.041   1.332   2.405 -0.3366 -0.0306 -0.0518
17206TIP3    H273110   3.125   1.214   2.450 -0.5379 -0.6621 -1.2890
17207TIP3   OH273111   3.675   5.070  17.287  0.1316 -0.7747  0.0303
17207TIP3    H173112   3.622   5.119  17.349  2.3885  0.9646  0.6476
17207TIP3    H273113   3.613   5.011  17.244 -1.9949  0.0988  1.7996
17208TIP3   OH273114   5.143   3.989  15.106  0.1914  0.1932 -0.0308
17208TIP3    H173115   5.127   4.002  15.013 -0.0959 -0.4305 -0.0727
17208TIP3    H273116   5.153   3.894  15.116  0.1815  0.2513  0.5774
17209TIP3   OH273117   5.258   6.081   1.980 -0.3588  0.1401  0.3537
17209TIP3    H173118   5.171   6.052   2.008  0.4395 -1.6682  1.0820
17209TIP3    H273119   5.273   6.035   1.897 -0.0888  0.3993  0.2601
17210TIP3   OH273120   4.665   3.748  11.769 -0.1583  0.1003 -0.6832
17210TIP3    H173121   4.581   3.702  11.773 -0.3716  0.6383  1.4132
17210TIP3    H273122   4.730   3.679  11.785 -0.1851 -0.2592 -2.0087
17211TIP3   OH273123   0.147   3.941   0.861  0.5597 -0.4228 -0.4973
17211TIP3    H173124   0.111   3.906   0.943  1.1310  0.1868  0.0235
17211TIP3    H273125   0.154   3.865   0.804 -1.4907 -0.5732 -0.5971
17212TIP3   OH273126   5.249   3.914  14.812 -0.0578  0.1892  0.9012
17212TIP3    H173127   5.172   3.965  14.786  0.8985  0.9676 -0.3962
17212TIP3    H273128   5.253   3.843  14.748  1.0042  0.8494  0.2178
17213TIP3   OH273129   2.733   2.095   1.787 -0.6039  0.6743  0.5427
17213TIP3    H173130   2.693   2.171   1.830 -1.7099  1.0552 -1.0939
17213TIP3    H273131   2.787   2.055   1.854 -0.3412  2.6726  1.5679
17214TIP3   OH273132   4.080   0.188  12.690  0.1967 -0.5263 -0.3109
17214TIP3    H173133   4.100   0.126  12.619 -0.8143 -0.5943 -0.5554
17214TIP3    H273134   4.089   0.274  12.650  3.0702 -0.4559  0.4297
17215TIP3   OH273135   3.234   4.980   0.251  0.0015 -0.1648  0.2824
17215TIP3    H173136   3.148   4.999   0.213 -0.3008  0.9886  1.4987
17215TIP3    H273137   3.290   5.051   0.221 -0.5530  1.4717  2.9555
17216TIP3   OH273138   0.138   0.924   5.092  0.1622  0.0841 -0.5405
17216TIP3    H173139   0.148   0.985   5.164  1.0192  0.3621 -0.8899
17216TIP3    H273140   0.067   0.866   5.119  0.8004 -0.1145  0.7291
17217TIP3   OH273141   6.500   3.157  11.457  0.0002  0.0744  0.2885
17217TIP3    H173142   6.442   3.124  11.389 -2.2430  1.6559  1.3279
17217TIP3    H273143   6.478   3.105  11.535 -0.3364  0.9289  0.7811
17218TIP3   OH273144   3.315   2.308   5.309 -0.1115 -0.1137 -0.0900
17218TIP3    H173145   3.385   2.366   5.340 -0.2823  0.3420 -0.5416
17218TIP3    H273146   3.264   2.287   5.387 -0.6833  1.2198 -0.0952
17219TIP3   OH273147   5.958   3.067   3.186 -0.0052  0.4475 -0.6006
17219TIP3    H173148   5.962   3.088   3.093  1.7940  0.6613 -0.4997
17219TIP3    H273149   5.883   3.117   3.219 -0.5160  0.5377 -1.8834
17220TIP3   OH273150   6.408   1.285  11.008  0.5602 -0.6809  0.1366
17220TIP3    H173151   6.410   1.235  11.089 -1.7149 -1.7920 -0.4594
17220TIP3    H273152   6.332   1.251  10.960 -0.6517  2.8550 -0.6033
17221TIP3   OH273153   4.787   1.794   0.079  0.8810 -0.1184  0.1966
17221TIP3    H173154   4.740   1.716   0.108 -0.0756 -0.3824 -1.9582
17221TIP3    H273155   4.812   1.839   0.160  2.0023 -2.9600  1.4973
17222TIP3   OH273156   1.798   2.126   2.534  0.7084  0.1241 -0.3133
17222TIP3    H173157   1.890   2.127   2.506 -0.5664  0.6107 -4.8395
17222TIP3    H273158   1.761   2.206   2.496 -1.8114 -0.5063  0.7219
17223TIP3   OH273159   3.374   5.291  12.512  0.0192 -0.6341 -0.0966
17223TIP3    H173160   3.358   5.385  12.506 -1.6971 -0.9354 -0.4736
17223TIP3    H273161   3.399   5.265  12.423 -0.9892 -0.7915 -0.3370
17224TIP3   OH273162   5.563   2.031   6.034  0.3251  0.1022 -0.5231
17224TIP3    H173163   5.572   2.115   5.988  0.8271  0.3490  0.0158
17224TIP3    H273164   5.623   2.038   6.109  0.6076 -0.8568 -0.6471
17225TIP3   OH273165   5.942   3.007   5.723 -0.3712  0.8971  0.1703
17225TIP3    H173166   5.975   3.001   5.634  0.3509  1.7587  0.3717
17225TIP3    H273167   5.860   3.055   5.716 -0.9283 -0.1015 -0.1747
17226TIP3   OH273168   6.618   0.809  14.759  0.1922 -0.5101  0.3071
17226TIP3    H173169   6.623   0.883  14.697  0.2263 -1.0255 -0.3093
17226TIP3    H273170   6.618   0.851  14.845 -0.3404  0.2459 -0.0452
17227TIP3   OH273171   5.759   6.044  14.606 -0.1262 -0.1017  0.5186
17227TIP3    H173172   5.759   5.948  14.608 -2.3867 -0.1729 -0.7422
17227TIP3    H273173   5.773   6.070  14.697  0.9576 -1.6089  0.8129
17228TIP3   OH273174   5.092   4.992  13.410 -0.5500 -0.5617  0.5801
17228TIP3    H173175   5.037   5.046  13.467 -0.7091  1.4376 -1.3740
17228TIP3    H273176   5.114   4.916  13.463 -0.2560  1.4564  3.4978
17229TIP3   OH273177   6.747   0.663   2.674 -0.8318 -0.5701 -0.2400
17229TIP3    H173178   6.806   0.623   2.739 -0.8220  1.6152  1.1443
17229TIP3    H273179   6.666   0.613   2.682  0.3707 -2.7459 -1.2198
17230TIP3   OH273180   0.602   0.793  11.316  0.5586 -0.0490 -0.5034
17230TIP3    H173181   0.610   0.878  11.271  1.3177 -0.3256 -0.8993
17230TIP3    H273182   0.637   0.730  11.253  4.1980 -0.1315  1.4984
17231TIP3   OH273183   1.930   5.310   5.577  0.1373 -0.3149 -1.3904
17231TIP3    H173184   1.838   5.315   5.552 -0.1463 -0.0385 -0.3021
17231TIP3    H273185   1.954   5.400   5.600  0.0674 -0.7462  0.4480
17232TIP3   OH273186   6.223   3.794   3.278  0.3919  0.3936  0.6076
17232TIP3    H173187   6.234   3.716   3.224  0.6037  0.0218  1.1824
17232TIP3    H273188   6.198   3.760   3.364 -0.2699  0.9980  0.6581
17233TIP3   OH273189   6.091   0.057  17.089  0.8388  0.1175 -0.1953
17233TIP3    H173190   6.066   0.139  17.046 -0.4675 -0.5908 -0.8125
17233TIP3    H273191   6.051  -0.011  17.036  0.1502 -0.8320  1.4904
17234TIP3   OH273192   3.203   2.758   4.342  0.6237 -0.2194  0.3720
17234TIP3    H173193   3.290   2.796   4.338  0.3718  0.2176 -1.5124
17234TIP3    H273194   3.144   2.831   4.327 -0.1018 -0.4078  2.2234
17235TIP3   OH273195   1.221   0.903  14.806 -0.4761 -0.6966 -0.2214
17235TIP3    H173196   1.203   0.809  14.813  0.3824 -0.7669  1.4432
17235TIP3    H273197   1.165   0.943  14.873  0.1930 -0.1776  0.0352
17236TIP3   OH273198   4.217   1.183   5.394 -0.0846  0.9432  0.2664
17236TIP3    H173199   4.208   1.178   5.489  0.0045  0.2124  0.2391
17236TIP3    H273200   4.181   1.101   5.362  0.7053  0.7937 -0.2698
17237TIP3   OH273201   5.995   2.332  12.331  0.2133 -0.3719  0.0105
17237TIP3    H173202   5.901   2.329  12.346  0.2981 -0.4743  0.5223
17237TIP3    H273203   6.033   2.279  12.401  0.6219 -0.7084 -0.4644
17238TIP3   OH273204   1.687   6.025  10.982 -0.1976  0.1873  0.3619
17238TIP3    H173205   1.629   6.082  11.032  2.9009 -1.2145  5.9709
17238TIP3    H273206   1.645   5.939  10.984  0.6333 -0.1910  1.8923
17239TIP3   OH273207   6.583   1.312  15.954 -0.4547 -0.4616  0.2968
17239TIP3    H173208   6.621   1.252  15.890  1.2145 -0.1600  0.9765
17239TIP3    H273209   6.595   1.268  16.038 -1.7001 -0.3904  0.5227
17240TIP3   OH273210   4.901   1.431  14.618  0.7204 -0.2523 -0.0691
17240TIP3    H173211   4.867   1.479  14.542 -1.0612 -0.2805  0.6801
17240TIP3    H273212   4.847   1.461  14.691  0.8778 -1.9386  0.7648
17241TIP3   OH273213   3.790   0.457   2.417  0.5195  0.3558 -0.4874
17241TIP3    H173214   3.775   0.480   2.508  0.0283 -1.3460 -0.1148
17241TIP3    H273215   3.863   0.395   2.419 -0.7262 -1.1829 -1.0194
17242TIP3   OH273216   5.198   5.064   6.039 -0.1444  0.3094 -1.2293
17242TIP3    H173217   5.180   5.158   6.038 -0.0259  0.3525 -0.2932
17242TIP3    H273218   5.292   5.058   6.019 -0.1584  0.3904 -1.3182
17243TIP3   OH273219   3.454   0.383   1.440  0.3053  0.0596 -0.0755
17243TIP3    H173220   3.504   0.302   1.442  1.1544  0.5674 -0.3293
17243TIP3    H273221   3.436   0.402   1.532 -0.0924 -0.5373 -0.0328
17244TIP3   OH273222   4.944   3.294   4.419 -0.2280 -0.3319  0.4439
17244TIP3    H173223   4.876   3.307   4.353  0.5266  1.4831 -0.0092
17244TIP3    H273224   5.027   3.304   4.372  0.3538 -1.1012  1.2645
17245TIP3   OH273225   2.942   5.823   2.743  0.3419  0.8736  0.0424
17245TIP3    H173226   2.966   5.760   2.675 -0.2381 -0.0965  0.7220
17245TIP3    H273227   2.887   5.887   2.699  2.2802  1.8352 -1.0246
17246TIP3   OH273228   5.363   2.497  15.103 -0.0686  0.3112 -0.0555
17246TIP3    H173229   5.379   2.487  15.197  1.0371  1.4819 -0.1083
17246TIP3    H273230   5.278   2.541  15.098 -0.0270  0.4444  0.4037
17247TIP3   OH273231   3.821   6.336   3.510  0.1812 -0.1321  0.5315
17247TIP3    H173232   3.727   6.334   3.491  0.2620 -0.8036  0.1849
17247TIP3    H273233   3.834   6.416   3.560 -0.7020 -0.3964  1.1905
17248TIP3   OH273234   3.704   1.710   0.990 -0.0224 -0.2873  0.5580
17248TIP3    H173235   3.685   1.682   1.080 -0.2726 -0.3441  0.4874
17248TIP3    H273236   3.760   1.787   1.001  1.1262 -1.1477  0.7412
17249TIP3   OH273237   4.091   1.889   4.823 -0.3653 -0.1456  0.3396
17249TIP3    H173238   4.186   1.890   4.832 -0.4254 -0.1834  1.0247
17249TIP3    H273239   4.065   1.980   4.836 -0.2162  0.3166 -2.3398
17250TIP3   OH273240   2.565   2.680  16.230 -0.1930 -0.2442  0.2535
17250TIP3    H173241   2.644   2.732  16.215 -1.3841  1.2207 -1.3174
17250TIP3    H273242   2.554   2.680  16.325  1.2469  0.2140  0.4345
17251TIP3   OH273243   5.295   1.390   6.167 -0.0163 -0.3012  0.4146
17251TIP3    H173244   5.290   1.303   6.208  0.2988 -0.4905  0.0534
17251TIP3    H273245   5.342   1.443   6.231 -1.1001 -0.1236  1.0869
17252TIP3   OH273246   0.069   3.931   6.867 -0.1453 -0.1710  0.4991
17252TIP3    H173247   0.014   3.980   6.806 -0.8165  0.6304  1.7213
17252TIP3    H273248   0.050   3.839   6.848 -0.6368  0.0835 -0.2428
17253TIP3   OH273249   2.068   3.965  14.108  0.1302 -0.1188 -0.1005
17253TIP3    H173250   1.988   4.012  14.132 -0.1083 -0.2454 -0.6306
17253TIP3    H273251   2.101   3.930  14.191 -0.9373 -0.9482 -0.0105
17254TIP3   OH273252   0.679   0.127  16.336 -0.4981 -0.4772 -0.1794
17254TIP3    H173253   0.688   0.073  16.257 -1.7358 -2.2883  0.8800
17254TIP3    H273254   0.766   0.165  16.349 -0.3138 -0.0541 -2.4726
17255TIP3   OH273255   1.528   4.584   5.619 -0.1921 -0.3525  0.0330
17255TIP3    H173256   1.534   4.602   5.525 -1.9777 -3.1249 -0.6566
17255TIP3    H273257   1.443   4.617   5.645 -0.0896 -0.4321  0.4781
17256TIP3   OH273258   3.719   5.785   1.426  0.5633  0.1094  0.5656
17256TIP3    H173259   3.646   5.810   1.484 -0.0346  0.9293 -0.5388
17256TIP3    H273260   3.770   5.723   1.479 -1.2074 -0.8677  1.1876
17257TIP3   OH273261   6.277   6.386   4.898 -0.0066  0.0025 -0.4291
17257TIP3    H173262   6.319   6.300   4.899  0.8188  0.3856 -1.0757
17257TIP3    H273263   6.259   6.404   4.990 -1.4567 -1.4534 -0.4016
17258TIP3   OH273264   4.648   4.118  15.916  0.0888  0.2247  0.4802
17258TIP3    H173265   4.733   4.158  15.894 -0.8823  1.8964 -0.3894
17258TIP3    H273266   4.637   4.134  16.010  0.7579 -0.0397  0.6062
17259TIP3   OH273267   1.166   0.187  13.647 -0.2612 -0.0993  0.3570
17259TIP3    H173268   1.109   0.115  13.621  0.0494 -0.5681  0.9659
17259TIP3    H273269   1.183   0.172  13.740  2.6001 -1.1721 -0.2813
17260TIP3   OH273270   4.930   0.115  13.141  0.4435  0.0205 -0.4564
17260TIP3    H173271   4.952   0.024  13.160  2.5535  0.2286 -1.7777
17260TIP3    H273272   4.959   0.163  13.219  0.8414 -0.2419 -0.4390
17261TIP3   OH273273   2.378   0.780   3.085  0.3739 -0.2664  0.0253
17261TIP3    H173274   2.329   0.851   3.126  0.2454  0.7068 -1.7581
17261TIP3    H273275   2.463   0.818   3.063 -0.0271 -0.3591 -1.7761
17262TIP3   OH273276   3.427   6.189  16.192  0.2617 -0.0910  0.2960
17262TIP3    H173277   3.364   6.159  16.127  0.6663 -1.6797  0.5896
17262TIP3    H273278   3.398   6.277  16.216 -1.5212 -0.5841  0.0231
17263TIP3   OH273279   6.245   6.719   2.621  0.7950 -0.1229 -0.0110
17263TIP3    H173280   6.283   6.643   2.665  0.9421 -1.0154 -1.6557
17263TIP3    H273281   6.309   6.742   2.553 -0.2326  0.1745 -0.8886
17264TIP3   OH273282   0.452   3.714   0.346  0.1410  0.1209  0.4655
17264TIP3    H173283   0.463   3.776   0.419 -0.0765  2.4539 -1.4095
17264TIP3    H273284   0.365   3.732   0.312  1.1613  0.8656 -1.9124
17265TIP3   OH273285   0.667   3.597   2.245  0.1178  0.6597 -0.2073
17265TIP3    H173286   0.590   3.543   2.260  0.1490  0.1760 -1.6946
17265TIP3    H273287   0.707   3.561   2.165  1.6650  1.1381  0.3196
17266TIP3   OH273288   4.273   0.691   3.352 -0.3402 -0.4740 -0.2870
17266TIP3    H173289   4.197   0.653   3.306 -2.7630  0.6146  2.6634
17266TIP3    H273290   4.253   0.784   3.358  0.6059 -0.3702  1.6557
17267TIP3   OH273291   5.257   2.485   6.804  0.1951  0.1632  0.5004
17267TIP3    H173292   5.201   2.408   6.792  0.1398  0.3545 -0.5544
17267TIP3    H273293   5.210   2.540   6.866  1.0266 -1.4090  2.5847
17268TIP3   OH273294   0.568   4.930   2.632 -0.0436 -0.5003 -0.0859
17268TIP3    H173295   0.558   5.026   2.632 -2.5611 -0.6717  3.1827
17268TIP3    H273296   0.521   4.901   2.554  0.8688  0.8882 -1.1900
17269TIP3   OH273297   4.744   5.979  14.164  0.1968 -0.0632  0.0346
17269TIP3    H173298   4.802   5.922  14.114  1.8619  1.0383  0.6511
17269TIP3    H273299   4.742   5.940  14.251 -2.0108 -1.4922 -0.6074
17270TIP3   OH273300   5.138   1.975  13.042 -0.3105  0.1292 -0.0030
17270TIP3    H173301   5.176   1.984  13.129  0.5876 -1.9740 -0.1486
17270TIP3    H273302   5.211   1.993  12.982 -0.7522  0.8977 -0.3092
17271TIP3   OH273303   0.972   3.012  10.461  0.4519 -0.2708  0.3002
17271TIP3    H173304   1.002   3.101  10.442 -0.2586  0.0004  0.4453
17271TIP3    H273305   0.977   3.005  10.557 -0.8732  0.1095  0.4061
17272TIP3   OH273306   4.122   0.916  15.358 -0.0407  0.3892  0.0830
17272TIP3    H173307   4.043   0.866  15.378 -1.2088  1.8287 -0.9257
17272TIP3    H273308   4.189   0.849  15.344 -1.1922 -0.8545  0.4237
17273TIP3   OH273309   3.093   2.767  12.730 -0.3483 -0.0462 -0.0902
17273TIP3    H173310   3.105   2.861  12.715  0.3747  0.2264  2.0392
17273TIP3    H273311   3.091   2.729  12.642 -0.9242  1.9851 -0.9884
17274TIP3   OH273312   3.196   6.554  12.416 -0.0207  0.0539  0.0390
17274TIP3    H173313   3.132   6.504  12.467 -0.9362  1.4948  0.3222
17274TIP3    H273314   3.280   6.539  12.460 -0.5115 -0.1525  0.9101
17275TIP3   OH273315   2.543   1.275  11.366  0.3004  0.0697  0.7520
17275TIP3    H173316   2.604   1.204  11.386 -0.0404 -0.8831 -1.5102
17275TIP3    H273317   2.588   1.327  11.300 -1.3070 -0.6511 -0.9558
17276TIP3   OH273318   2.955   0.452   2.465 -0.5285 -0.6975 -0.2807
17276TIP3    H173319   2.953   0.423   2.374 -0.2354  1.2080 -0.9245
17276TIP3    H273320   3.045   0.437   2.493  0.3795  2.1144 -1.5055
17277TIP3   OH273321   2.549   4.383  15.026 -0.1282 -0.5082 -0.1303
17277TIP3    H173322   2.603   4.339  14.961  0.2758 -0.3191  0.0734
17277TIP3    H273323   2.488   4.435  14.975  1.0391  0.6621 -0.3642
17278TIP3   OH273324   1.577   5.447   0.618  0.5808 -0.4324 -0.1082
17278TIP3    H173325   1.592   5.516   0.554 -0.6490  2.3648  2.5042
17278TIP3    H273326   1.664   5.415   0.641  1.2192  0.8995 -0.6493
17279TIP3   OH273327   5.742   6.611  13.047 -0.1326 -0.0503 -0.0626
17279TIP3    H173328   5.816   6.555  13.072 -1.5630 -1.5324  0.9104
17279TIP3    H273329   5.753   6.625  12.953  1.6409  0.1343  0.1481
17280TIP3   OH273330   4.792   3.344  15.433  0.0693  0.2746  0.5004
17280TIP3    H173331   4.874   3.306  15.464  1.2137  3.2724  1.3514
17280TIP3    H273332   4.725   3.304  15.487  1.0665 -1.5228  0.4344
17281TIP3   OH273333   2.590   5.558   4.872  0.0229 -0.3802  0.6170
17281TIP3    H173334   2.514   5.615   4.860  0.1604 -0.1715  0.7365
17281TIP3    H273335   2.560   5.472   4.842 -0.6552 -0.5769  1.8143
17282TIP3   OH273336   6.600   1.875   6.075 -0.7398  0.3789 -0.3609
17282TIP3    H173337   6.609   1.939   6.004 -0.9564 -0.1865 -0.8970
17282TIP3    H273338   6.634   1.920   6.152  1.0404  0.4122 -1.1550
17283TIP3   OH273339   5.406   3.119  14.118  0.2344 -0.1162 -0.1622
17283TIP3    H173340   5.395   3.130  14.212 -1.5206 -0.2664 -0.3334
17283TIP3    H273341   5.432   3.206  14.087 -3.9276  1.2635 -0.1489
17284TIP3   OH273342   2.322   0.807   3.880 -0.5323 -0.2394  0.5377
17284TIP3    H173343   2.319   0.808   3.785  3.1109  1.8362  0.3415
17284TIP3    H273344   2.338   0.716   3.903  2.4621 -0.1762 -1.0987
17285TIP3   OH273345   1.183   0.015   0.734 -0.0530  0.4533 -0.8768
17285TIP3    H173346   1.191  -0.002   0.640  0.1631 -2.5930 -0.3549
17285TIP3    H273347   1.267  -0.010   0.771 -0.9499 -0.7249  0.4396
17286TIP3   OH273348   3.599   3.835   2.290  0.2826  0.3052 -0.1638
17286TIP3    H173349   3.679   3.888   2.291  1.0274 -0.8098 -0.4519
17286TIP3    H273350   3.604   3.782   2.370 -0.0191 -0.0034 -0.3458
17287TIP3   OH273351   5.819   2.082  11.596 -0.2490  0.1669  0.0143
17287TIP3    H173352   5.814   2.173  11.625  0.1401  0.2954 -0.3125
17287TIP3    H273353   5.728   2.057  11.580 -0.3554  0.5114  0.0668
17288TIP3   OH273354   4.384   4.532  17.193  0.4288  0.2584  0.7848
17288TIP3    H173355   4.473   4.555  17.220  0.2472  0.4108  1.2575
17288TIP3    H273356   4.331   4.542  17.272  0.0128  0.0383  0.5401
17289TIP3   OH273357   0.522   4.170  12.671 -0.3196  0.2039 -0.0058
17289TIP3    H173358   0.568   4.090  12.647 -3.4018 -1.3871 -0.8015
17289TIP3    H273359   0.467   4.190  12.595  0.1663  2.9061  0.3062
17290TIP3   OH273360   4.241   5.004  15.006  0.3814  0.5532 -0.0969
17290TIP3    H173361   4.193   4.979  14.927 -1.3798 -1.3095  1.5209
17290TIP3    H273362   4.247   4.924  15.057  1.6892  1.6918  1.5855
17291TIP3   OH273363   6.202   3.501  15.401 -0.7841 -0.0308  0.1607
17291TIP3    H173364   6.269   3.483  15.336 -1.7541 -1.2859 -0.5257
17291TIP3    H273365   6.152   3.574  15.365 -0.3561  0.2957  0.2342
17292TIP3   OH273366   0.700   3.337   2.553 -0.0153 -0.2680 -0.5201
17292TIP3    H173367   0.665   3.329   2.642  1.0426  3.4641  0.3245
17292TIP3    H273368   0.627   3.371   2.502 -0.6105 -2.3715 -1.0929
17293TIP3   OH273369   6.461   2.635  12.867 -0.4567  0.1868 -0.3061
17293TIP3    H173370   6.538   2.685  12.839 -0.2526  0.0528  0.0070
17293TIP3    H273371   6.452   2.656  12.960 -0.1340 -0.6556 -0.0735
17294TIP3   OH273372   1.690   2.664  13.440  0.3140  0.0573  0.6019
17294TIP3    H173373   1.664   2.577  13.471 -1.1984  0.4849  0.5576
17294TIP3    H273374   1.735   2.646  13.357 -0.5684 -0.6351  0.2644
17295TIP3   OH273375   2.634   5.019  10.831 -0.4498 -0.6835 -0.3032
17295TIP3    H173376   2.599   4.970  10.758 -1.4994 -0.5934  0.1319
17295TIP3    H273377   2.603   5.109  10.818  1.3873 -0.1222 -1.0520
17296TIP3   OH273378   6.316   3.204  12.119  0.9035 -0.2694  0.2737
17296TIP3    H173379   6.401   3.189  12.161  0.3700 -0.8627  1.1684
17296TIP3    H273380   6.252   3.186  12.188  0.0244 -0.7057 -0.6482
17297TIP3   OH273381   2.375   2.149   2.784 -0.2886 -0.4666 -0.0509
17297TIP3    H173382   2.279   2.151   2.781 -0.3176  0.0149  0.8679
17297TIP3    H273383   2.402   2.194   2.704 -0.7967 -2.8963 -1.6331
17298TIP3   OH273384   1.737   2.758  10.750 -0.1768  0.2265  0.2613
17298TIP3    H173385   1.790   2.709  10.813  0.2384  0.7435  0.3149
17298TIP3    H273386   1.781   2.744  10.666  0.7153  1.5978  0.4822
17299TIP3   OH273387   0.014   2.134  12.013  0.1672 -0.1903 -0.0155
17299TIP3    H173388   0.061   2.051  12.005  0.6865  0.1307 -0.3095
17299TIP3    H273389   0.056   2.192  11.949 -0.5828  0.1191 -0.2358
17300TIP3   OH273390   4.193   3.590   5.357 -0.1112 -0.1613  0.5070
17300TIP3    H173391   4.100   3.611   5.365  0.1834  0.9374  1.0538
17300TIP3    H273392   4.234   3.629   5.434  0.6733 -1.4231  0.7451
17301TIP3   OH273393   5.187   6.455   0.258  0.0789  0.0816 -0.6690
17301TIP3    H173394   5.272   6.455   0.302 -0.2849  0.3146  0.0449
17301TIP3    H273395   5.161   6.548   0.257 -1.5854 -0.2949  1.9237
17302TIP3   OH273396   5.023   4.063  14.811  0.1492  0.9159 -0.5142
17302TIP3    H173397   4.993   4.146  14.847  0.0656  0.8045 -0.3276
17302TIP3    H273398   4.952   4.034  14.754 -1.3473 -0.7512  2.1295
17303TIP3   OH273399   5.604   1.237  12.503 -0.4944 -0.1937  0.6804
17303TIP3    H173400   5.599   1.178  12.428 -0.5159  0.7435 -0.0684
17303TIP3    H273401   5.682   1.290  12.487  0.0088 -0.6013  1.7765
17304TIP3   OH273402   0.510   5.264   2.030 -0.0195  0.4475 -0.4241
17304TIP3    H173403   0.442   5.239   2.092 -0.8063  2.2981 -0.4861
17304TIP3    H273404   0.502   5.202   1.958 -1.0885  0.1351 -0.0376
17305TIP3   OH273405   4.287   0.921   3.203  0.2927 -0.2241  0.1539
17305TIP3    H173406   4.208   0.900   3.154  0.4340 -2.0212  0.6899
17305TIP3    H273407   4.353   0.937   3.135 -0.0118 -0.7502 -0.2739
17306TIP3   OH273408   1.607   4.572   0.629  0.0901 -0.5422  0.4460
17306TIP3    H173409   1.616   4.526   0.546  2.7767 -2.1871  1.5649
17306TIP3    H273410   1.584   4.503   0.692 -1.6860  0.6383  1.1344
17307TIP3   OH273411   5.064   0.910  13.043  0.1405  0.2942  0.2456
17307TIP3    H173412   4.998   0.975  13.066 -0.3459 -0.1436  0.1016
17307TIP3    H273413   5.098   0.879  13.127  0.7496  1.1212  0.3005
17308TIP3   OH273414   2.398   0.649   0.995  0.1255 -0.4179 -0.3734
17308TIP3    H173415   2.372   0.654   0.902 -0.1937 -3.4529 -0.4849
17308TIP3    H273416   2.351   0.573   1.028  1.1321 -0.0045  2.0366
17309TIP3   OH273417   3.957   1.936   3.241  0.0292  0.0301  0.4000
17309TIP3    H173418   3.891   1.984   3.191 -1.3881 -1.8388  0.4139
17309TIP3    H273419   3.935   1.954   3.332 -0.0577 -0.0527  0.3957
17310TIP3   OH273420   4.163   5.903   1.592  0.1867  0.0214 -0.2161
17310TIP3    H173421   4.218   5.876   1.665  1.3268  0.9792 -0.6997
17310TIP3    H273422   4.111   5.976   1.626  0.7169  0.4673 -0.3474
17311TIP3   OH273423   4.191   0.336  11.916 -0.5892  0.1212  0.0433
17311TIP3    H173424   4.117   0.393  11.935 -0.7634 -0.1594  0.2081
17311TIP3    H273425   4.194   0.331  11.820  1.1471  2.6705 -0.0824
17312TIP3   OH273426   3.927   4.751   1.544 -0.4627  0.0188 -0.1279
17312TIP3    H173427   3.954   4.677   1.598 -2.4367 -0.9012 -0.3291
17312TIP3    H273428   3.902   4.712   1.460  0.8221  1.2206 -1.0839
17313TIP3   OH273429   1.665   4.164   5.211 -0.2502 -0.1694  0.4818
17313TIP3    H173430   1.739   4.103   5.216  2.0092  2.3516 -0.6724
17313TIP3    H273431   1.654   4.195   5.301  2.0408  1.5756  0.2113
17314TIP3   OH273432   5.026   5.432  15.392  0.0705  0.3324  0.7554
17314TIP3    H173433   5.007   5.508  15.337  0.4593  1.3122  1.9393
17314TIP3    H273434   4.973   5.362  15.356 -0.4279  1.2206 -0.2572
17315TIP3   OH273435   0.011   2.295   3.506  0.3207 -0.5989 -0.0709
17315TIP3    H173436  -0.040   2.376   3.506  0.1647 -0.6939  0.1974
17315TIP3    H273437   0.037   2.283   3.415  0.6500 -0.0584 -0.0488
17316TIP3   OH273438   2.234   2.319   4.134 -0.3420 -0.6244 -0.2691
17316TIP3    H173439   2.194   2.378   4.198 -2.3021 -0.5702 -1.5044
17316TIP3    H273440   2.281   2.377   4.075 -1.7516 -0.3337 -1.1190
17317TIP3   OH273441   3.610   4.667  16.797 -0.0187 -0.4745  0.5393
17317TIP3    H173442   3.560   4.611  16.737  0.3556 -0.1220 -0.1152
17317TIP3    H273443   3.590   4.635  16.884 -0.2923 -1.2303  0.1955
17318TIP3   OH273444   2.308   3.083  17.196  0.0747  0.3495  0.4188
17318TIP3    H173445   2.227   3.038  17.220  0.7790 -0.9083  0.5033
17318TIP3    H273446   2.367   3.012  17.169  0.4419  1.4237 -1.7134
17319TIP3   OH273447   1.108   6.626  15.351  0.0501  0.3093 -0.3890
17319TIP3    H173448   1.090   6.713  15.316 -2.4083 -0.2280 -0.6067
17319TIP3    H273449   1.021   6.591  15.372  1.1436 -1.3602  1.4543
17320TIP3   OH273450   3.120   0.143  13.140  0.0779  0.3034 -0.1105
17320TIP3    H173451   3.209   0.109  13.130 -0.5768 -1.0396 -1.5965
17320TIP3    H273452   3.118   0.177  13.229  1.3894 -1.7260  0.7488
17321TIP3   OH273453   5.931   1.872   1.351  0.0619  0.0206  0.3062
17321TIP3    H173454   5.960   1.811   1.283  0.3023  0.2652  0.1831
17321TIP3    H273455   5.837   1.857   1.359  0.4352 -1.6847  1.6128
17322TIP3   OH273456   4.191   4.466   4.027 -0.2089  0.0539  0.3515
17322TIP3    H173457   4.233   4.394   3.980 -1.5750 -0.5588  0.0585
17322TIP3    H273458   4.141   4.424   4.097 -1.1179  0.6987  0.1088
17323TIP3   OH273459   0.045   1.229  14.073 -0.7226  0.1433 -0.4740
17323TIP3    H173460   0.116   1.229  14.010 -0.5203  2.3451 -0.2745
17323TIP3    H273461  -0.001   1.146  14.058 -0.1383  0.2272 -2.8821
17324TIP3   OH273462   6.154   3.623   3.502 -0.0352 -0.2599 -0.8233
17324TIP3    H173463   6.219   3.617   3.573 -0.6783  2.5289  0.0457
17324TIP3    H273464   6.072   3.597   3.543 -0.7821  3.2888  0.0465
17325TIP3   OH273465   4.802   2.509  14.897  0.7767 -0.2882 -0.5189
17325TIP3    H173466   4.873   2.517  14.834 -0.7579  0.5202 -2.2044
17325TIP3    H273467   4.776   2.417  14.893  0.4995 -0.1853 -1.3211
17326TIP3   OH273468   5.049   1.876   0.754  0.0018  0.0237  0.1011
17326TIP3    H173469   5.068   1.889   0.661  1.5088  1.0868  0.5451
17326TIP3    H273470   5.089   1.792   0.775  1.2892  0.6460  0.2104
17327TIP3   OH273471   5.621   4.664  16.796 -0.0620 -0.2248  0.1191
17327TIP3    H173472   5.604   4.722  16.870 -1.5599 -1.8121  1.0626
17327TIP3    H273473   5.702   4.697  16.758  0.8846  0.4718  2.6282
17328TIP3   OH273474   6.334   4.784  16.115 -0.2310  0.0088  0.1866
17328TIP3    H173475   6.385   4.781  16.196 -2.9384  1.3009  1.9988
17328TIP3    H273476   6.397   4.759  16.047  1.9232 -1.8277  2.7269
17329TIP3   OH273477   2.731   1.638   3.524  0.5403 -0.2849 -0.5514
17329TIP3    H173478   2.819   1.673   3.508  0.1578  0.9278 -0.0947
17329TIP3    H273479   2.673   1.713   3.512 -0.5075 -1.2477 -1.5777
17330TIP3   OH273480   6.250   2.533   5.903  0.4963  0.9611  0.6294
17330TIP3    H173481   6.193   2.518   5.827  2.4018 -0.4650 -0.5596
17330TIP3    H273482   6.225   2.465   5.965  0.4812  0.7257  0.3675
17331TIP3   OH273483   6.510   0.747  12.717  0.5218  0.3032 -0.6344
17331TIP3    H173484   6.508   0.714  12.807 -0.2178  0.2030 -0.6887
17331TIP3    H273485   6.593   0.796  12.712  1.3751 -1.0748 -0.3932
17332TIP3   OH273486   2.247   0.437   0.756  0.1176  0.5999 -0.7078
17332TIP3    H173487   2.185   0.502   0.790 -0.4645  1.0370 -2.5721
17332TIP3    H273488   2.245   0.448   0.661  1.4224 -0.8780 -0.9374
17333TIP3   OH273489   1.535   0.827   0.751 -0.0730 -0.3782  0.1710
17333TIP3    H173490   1.602   0.886   0.717  1.0177 -0.7922  1.5688
17333TIP3    H273491   1.519   0.857   0.840 -2.0867 -0.0036 -0.2776
17334TIP3   OH273492   4.268   6.278   1.467 -0.4329  0.3759 -0.7052
17334TIP3    H173493   4.324   6.249   1.395  0.5226  0.0210  0.1678
17334TIP3    H273494   4.207   6.340   1.427 -0.3138 -0.2961 -1.9358
17335TIP3   OH273495   1.040   6.239  16.533 -0.2880 -0.6299 -0.6116
17335TIP3    H173496   0.956   6.211  16.496 -0.8593 -1.2765  1.1083
17335TIP3    H273497   1.094   6.160  16.533 -0.5895 -0.8598  0.6804
17336TIP3   OH273498   2.958   3.239  14.423 -0.4154  1.0279  0.0189
17336TIP3    H173499   2.906   3.158  14.424 -0.0591  0.8081  1.6406
17336TIP3    H273500   2.993   3.243  14.334 -1.3288 -0.0229 -0.4093
17337TIP3   OH273501   0.875   6.443  11.506  0.3556  0.7203  0.0855
17337TIP3    H173502   0.790   6.483  11.486  0.4816  0.8873 -0.1212
17337TIP3    H273503   0.935   6.483  11.443  0.4660  0.1468 -0.1762
17338TIP3   OH273504   2.780   4.541  16.907 -0.8437  0.0033  0.0949
17338TIP3    H173505   2.761   4.452  16.936  1.2489 -0.2277  0.8297
17338TIP3    H273506   2.720   4.596  16.958 -1.7599 -0.9241  0.0331
17339TIP3   OH273507   5.647   2.997  15.204 -0.4467 -0.1382  0.1700
17339TIP3    H173508   5.697   2.915  15.201 -0.7380 -0.3134  0.1504
17339TIP3    H273509   5.712   3.064  15.182  0.4416 -0.0536  2.8861
17340TIP3   OH273510   2.983   0.908   4.627  0.0210  0.4415  0.0933
17340TIP3    H173511   2.961   0.987   4.577  2.4943  0.6819 -0.6635
17340TIP3    H273512   2.940   0.837   4.579  0.6270  0.9254 -1.1819
17341TIP3   OH273513   5.076   0.647   3.788  0.7292  0.4550 -0.1455
17341TIP3    H173514   5.094   0.646   3.881  1.3571  1.0342 -0.2532
17341TIP3    H273515   5.120   0.570   3.753 -0.0722 -0.1325  0.1347
17342TIP3   OH273516   0.182   1.286   2.815  0.8263  0.1106 -0.6207
17342TIP3    H173517   0.258   1.304   2.759  1.9431 -0.5997  0.6199
17342TIP3    H273518   0.203   1.330   2.898 -0.5722  0.7332 -0.5876
17343TIP3   OH273519   1.685   3.164   2.932 -0.5194  0.5495  0.2250
17343TIP3    H173520   1.639   3.129   2.856 -1.5188 -0.1636  1.1433
17343TIP3    H273521   1.684   3.093   2.995  0.1882  1.1845  0.9682
17344TIP3   OH273522   6.752   0.704  11.701  0.4564 -0.2276  0.1264
17344TIP3    H173523   6.696   0.744  11.634 -0.2512 -0.2545  0.6916
17344TIP3    H273524   6.749   0.765  11.774  0.4547 -0.6588  0.4897
17345TIP3   OH273525   6.705   4.544  15.239  0.3048 -0.3974  0.0141
17345TIP3    H173526   6.717   4.626  15.191  1.6794 -1.0637 -0.8342
17345TIP3    H273527   6.679   4.570  15.327 -0.6151  0.9015 -0.6424
17346TIP3   OH273528   4.876   2.678  16.302  0.5273  0.0087 -0.3540
17346TIP3    H173529   4.801   2.690  16.361  1.4220  1.7806  0.4974
17346TIP3    H273530   4.889   2.584  16.298 -0.8913 -0.2475  0.5762
17347TIP3   OH273531   5.916   2.366  15.946  0.0669  0.0200  0.1838
17347TIP3    H173532   5.978   2.406  16.006  0.0086 -0.5753  0.6478
17347TIP3    H273533   5.947   2.275  15.936 -0.0729  0.0376 -0.4777
17348TIP3   OH273534   5.399   0.930  15.825 -0.0840  0.0456 -0.4090
17348TIP3    H173535   5.441   0.940  15.910 -0.6795  0.9869 -0.2060
17348TIP3    H273536   5.471   0.922  15.763  0.4377  2.2793 -0.1529
17349TIP3   OH273537   4.509   6.639   3.448 -0.1597  0.1272  0.1790
17349TIP3    H173538   4.459   6.717   3.424  0.3763  0.4766  0.2050
17349TIP3    H273539   4.596   6.671   3.471  0.7002 -0.6630 -1.8243
17350TIP3   OH273540   6.758   3.887   5.408 -0.2614 -0.7096  0.2190
17350TIP3    H173541   6.782   3.892   5.316  0.5486 -3.7639  0.2149
17350TIP3    H273542   6.837   3.915   5.455  0.8473 -3.3648  0.0297
17351TIP3   OH273543   3.163   2.741   2.027  0.2465 -0.1707 -0.0251
17351TIP3    H173544   3.157   2.685   1.950 -0.9560  0.7392 -0.6157
17351TIP3    H273545   3.183   2.828   1.992  0.1751  0.1542  0.7172
17352TIP3   OH273546   5.960   0.570   5.140  0.1132  0.4402 -0.1182
17352TIP3    H173547   6.032   0.633   5.135 -0.0629  0.7711  1.3279
17352TIP3    H273548   6.003   0.485   5.148  0.3736  0.7936  2.5932
17353TIP3   OH273549   6.173   5.112  11.161 -0.6849 -0.2038 -0.2116
17353TIP3    H173550   6.085   5.087  11.133 -0.6214 -0.6666 -0.0045
17353TIP3    H273551   6.220   5.131  11.079 -0.6228 -1.1416 -0.4048
17354TIP3   OH273552   2.391   4.458  12.970  0.4519  0.2662  0.3155
17354TIP3    H173553   2.449   4.470  13.045 -0.8651 -0.6928  1.5032
17354TIP3    H273554   2.303   4.455  13.007 -0.2729  0.3980 -1.3349
17355TIP3   OH273555   5.815   4.560  16.159 -0.0450 -0.1101  0.4152
17355TIP3    H173556   5.855   4.606  16.233  0.1939  0.3383  0.0101
17355TIP3    H273557   5.853   4.473  16.161  1.2270  0.4241 -0.1846
17356TIP3   OH273558   5.107   2.241   2.128  0.2289  0.3406  0.2604
17356TIP3    H173559   5.085   2.148   2.139 -1.3577  0.6289 -0.3619
17356TIP3    H273560   5.157   2.263   2.207  2.0676 -1.4477 -0.3551
17357TIP3   OH273561   2.277   3.543   2.193  0.2272 -0.3925  0.2268
17357TIP3    H173562   2.359   3.549   2.242 -0.3333  1.9512  0.9543
17357TIP3    H273563   2.211   3.520   2.259 -0.2234  0.9225  0.2414
17358TIP3   OH273564   2.707   2.993  11.771  0.4119  0.2584 -0.2537
17358TIP3    H173565   2.739   2.904  11.788 -1.5300 -0.5787 -0.9548
17358TIP3    H273566   2.742   3.044  11.844 -0.4155 -1.5519  1.4738
17359TIP3   OH273567   0.260   1.491   3.663  0.0745  0.1935  0.8189
17359TIP3    H173568   0.346   1.535   3.666  0.0253  0.2314  1.9214
17359TIP3    H273569   0.217   1.518   3.744 -0.7154 -0.3816  0.5937
17360TIP3   OH273570   2.905   4.391   3.189  0.2598 -0.1109 -0.2641
17360TIP3    H173571   2.954   4.454   3.241 -0.3253  0.8513 -0.8832
17360TIP3    H273572   2.968   4.358   3.125  1.4029 -2.4001  1.9669
17361TIP3   OH273573   2.755   1.402   2.433  0.3630 -0.0098  0.5754
17361TIP3    H173574   2.824   1.468   2.426  0.1974  0.1882  0.8295
17361TIP3    H273575   2.778   1.336   2.367  0.9021 -0.0428  0.7949
17362TIP3   OH273576   0.796   0.410   5.731  0.1967 -0.5293 -0.0800
17362TIP3    H173577   0.773   0.415   5.823 -0.8518  0.0638 -0.3668
17362TIP3    H273578   0.741   0.340   5.696  0.2412 -0.4224 -0.3638
17363TIP3   OH273579   2.303   2.163  12.052 -0.6153 -1.1053  0.0005
17363TIP3    H173580   2.304   2.201  12.139  0.9460 -0.2734 -0.3541
17363TIP3    H273581   2.238   2.214  12.003  1.2122  0.9229 -0.3718
17364TIP3   OH273582   0.929   5.464   6.363  0.3663  0.1068 -0.6694
17364TIP3    H173583   0.920   5.557   6.383  1.9932  0.1495 -0.0340
17364TIP3    H273584   1.019   5.442   6.389 -0.2834 -1.8522  0.0928
17365TIP3   OH273585   3.240   4.252   0.066 -0.4645 -0.1459  0.5585
17365TIP3    H173586   3.203   4.307  -0.004 -0.5772 -2.8211 -1.5617
17365TIP3    H273587   3.164   4.214   0.109 -0.3952  1.5125  2.2138
17366TIP3   OH273588   1.750   3.355  16.452 -0.8376 -0.2528 -0.2938
17366TIP3    H173589   1.703   3.324  16.529 -0.5511  0.3492  0.1283
17366TIP3    H273590   1.756   3.279  16.395  0.2786 -1.1098  0.9425
17367TIP3   OH273591   2.288   2.887   0.634 -0.1197 -0.3482  0.5972
17367TIP3    H173592   2.206   2.846   0.606  0.0690 -0.9650  0.9292
17367TIP3    H273593   2.295   2.864   0.727  0.3762 -0.2023  0.5961
17368TIP3   OH273594   4.858   5.041   0.485  0.3610 -0.2063  0.2922
17368TIP3    H173595   4.866   4.995   0.568  0.8774  0.1997  0.4639
17368TIP3    H273596   4.765   5.062   0.479  0.3350 -0.1588  0.8094
17369TIP3   OH273597   1.779   6.468   4.321  0.5151  0.3968  0.6563
17369TIP3    H173598   1.715   6.505   4.382  2.0920 -0.5246  2.9596
17369TIP3    H273599   1.821   6.544   4.280 -1.0297  1.0131  0.1975
17370TIP3   OH273600   2.286   5.397  16.588  0.0439  0.3099 -0.1674
17370TIP3    H173601   2.206   5.389  16.640  0.3252 -1.4170  0.0144
17370TIP3    H273602   2.339   5.462  16.634 -1.4446  1.8663 -0.5661
17371TIP3   OH273603   0.226   4.182   6.084  0.2693 -0.2010 -0.2654
17371TIP3    H173604   0.304   4.148   6.127 -0.0429 -0.2909  0.2305
17371TIP3    H273605   0.162   4.111   6.091 -0.3539  0.4558  0.6876
17372TIP3   OH273606   5.110   5.766  15.409 -0.6777 -0.4185 -0.2909
17372TIP3    H173607   5.063   5.705  15.352 -2.0294  2.1756 -2.0532
17372TIP3    H273608   5.062   5.764  15.492 -2.2592  0.1202 -1.1749
17373TIP3   OH273609   5.708   2.870  16.472 -0.0670 -0.4406  0.4978
17373TIP3    H173610   5.624   2.824  16.474  0.3999 -1.4448 -1.7958
17373TIP3    H273611   5.771   2.808  16.510 -0.0706 -0.3081  0.7223
17374TIP3   OH273612   2.349   5.083   1.963  0.0936 -0.4234  0.3747
17374TIP3    H173613   2.397   5.028   2.025  0.4939 -0.7782 -0.2418
17374TIP3    H273614   2.415   5.109   1.898 -0.2554  0.1859  0.2599
17375TIP3   OH273615   2.475   4.951  15.187 -0.1933  0.1877 -0.6958
17375TIP3    H173616   2.474   5.046  15.193 -1.9432  0.2444 -1.3027
17375TIP3    H273617   2.446   4.933  15.097 -2.6495 -0.9262  0.2578
17376TIP3   OH273618   4.153   0.119  14.062 -0.3993 -0.2157  0.5020
17376TIP3    H173619   4.129   0.212  14.059  1.1438  0.2773  2.4532
17376TIP3    H273620   4.115   0.087  14.144 -0.0257 -1.0332  0.3624
17377TIP3   OH273621   0.283   1.207   1.637 -0.5430  0.0201  0.3155
17377TIP3    H173622   0.364   1.208   1.585 -0.6626 -2.7510  0.0233
17377TIP3    H273623   0.232   1.135   1.600 -2.7656  1.1535  1.1081
17378TIP3   OH273624   5.687   1.936  12.800  0.2678 -0.4769 -0.2940
17378TIP3    H173625   5.665   1.881  12.875 -2.1336  1.6359  0.6471
17378TIP3    H273626   5.671   1.881  12.723  1.1457 -2.1293  0.6890
17379TIP3   OH273627   1.983   3.812   3.437  0.0303  0.1949  0.0967
17379TIP3    H173628   1.894   3.826   3.469  0.3524  0.6598  0.7924
17379TIP3    H273629   2.008   3.896   3.397  0.5897  0.4502  0.9631
17380TIP3   OH273630   5.209   6.415  14.184 -0.0514 -0.5839  0.0770
17380TIP3    H173631   5.261   6.336  14.169  0.5288 -0.5578  1.7992
17380TIP3    H273632   5.244   6.451  14.266 -2.5955 -0.4176  1.1401
17381TIP3   OH273633   4.966   4.771  16.806  0.1582  0.9068  0.0983
17381TIP3    H173634   4.871   4.770  16.798  0.0274  1.5851  1.4221
17381TIP3    H273635   4.983   4.820  16.886  1.6658  1.7487 -0.6995
17382TIP3   OH273636   5.927   3.591  13.607 -0.1086  0.1298  0.0495
17382TIP3    H173637   5.863   3.523  13.586  0.1723  0.0017 -0.3982
17382TIP3    H273638   6.011   3.551  13.588  0.0894  0.3998  0.3558
17383TIP3   OH273639   3.066   3.207   3.460  0.2528  0.0916  0.2781
17383TIP3    H173640   3.105   3.120   3.469  2.1809  0.8708 -0.3288
17383TIP3    H273641   3.089   3.234   3.371 -0.3804  1.2065  0.4510
17384TIP3   OH273642   0.921   0.205  11.182 -0.0876 -0.0710  0.4471
17384TIP3    H173643   0.986   0.225  11.248 -1.5282  0.9821  1.5734
17384TIP3    H273644   0.895   0.290  11.146  0.4784 -0.6067 -1.2812
17385TIP3   OH273645   1.105   3.826  14.361  0.2307  0.2703  0.0174
17385TIP3    H173646   1.038   3.817  14.429 -0.2469 -1.1782 -0.6392
17385TIP3    H273647   1.178   3.773  14.391  0.3518  0.3204 -0.1854
17386TIP3   OH273648   2.210   0.771  14.455 -0.1547  0.2350 -0.6328
17386TIP3    H173649   2.119   0.755  14.429 -0.3357  3.4826 -2.2203
17386TIP3    H273650   2.218   0.727  14.540 -2.6176 -1.7194 -1.3291
17387TIP3   OH273651   2.131   5.457  17.242  0.0345 -0.4010  0.0352
17387TIP3    H173652   2.076   5.516  17.190 -0.6801 -0.6235  0.5295
17387TIP3    H273653   2.071   5.390  17.275  0.9336 -1.7024 -0.9344
17388TIP3   OH273654   5.274   1.797  12.753  0.0579 -0.5209 -0.4232
17388TIP3    H173655   5.265   1.752  12.837 -1.2762 -0.5672 -0.5897
17388TIP3    H273656   5.328   1.874  12.773  1.0791 -1.3733  0.1583
17389TIP3   OH273657   2.909   2.824  17.165  0.1055  0.2922  0.2477
17389TIP3    H173658   2.921   2.918  17.176 -0.5757  0.3876  0.1964
17389TIP3    H273659   2.970   2.785  17.228 -0.1277  0.7831  0.7899
17390TIP3   OH273660   5.049   3.180  12.772 -0.3853 -1.0215  0.1318
17390TIP3    H173661   4.973   3.125  12.754  0.0460 -1.9896  1.1560
17390TIP3    H273662   5.110   3.122  12.818  0.0278  0.3480  1.3595
17391TIP3   OH273663   2.922   0.801   0.373 -0.4087 -0.4752  0.7302
17391TIP3    H173664   2.964   0.886   0.367  0.7656 -0.9960  1.4526
17391TIP3    H273665   2.982   0.741   0.327  0.2831 -1.4428  2.8145
17392TIP3   OH273666   5.917   3.872   5.772  0.2496 -0.2283  0.2165
17392TIP3    H173667   5.976   3.833   5.707 -0.1617 -1.4828  0.5762
17392TIP3    H273668   5.908   3.805   5.839 -2.0675 -0.2998 -0.1301
17393TIP3   OH273669   5.937   2.967  17.126  0.2573  0.0130 -0.2017
17393TIP3    H173670   5.926   2.874  17.104 -2.0656  0.3791 -0.7680
17393TIP3    H273671   5.890   3.013  17.056  0.4921  1.5641  0.6520
17394TIP3   OH273672   4.652   3.217   5.663  0.0375  0.4860 -0.2920
17394TIP3    H173673   4.618   3.307   5.658  0.4045  0.8010  2.3015
17394TIP3    H273674   4.690   3.201   5.577 -1.7895  2.1031 -1.4444
17395TIP3   OH273675   0.435   6.398  12.234 -0.0249  0.2585 -0.6008
17395TIP3    H173676   0.441   6.374  12.326 -0.1292  2.7291  0.0842
17395TIP3    H273677   0.491   6.475  12.226 -1.5705  1.2483 -2.1847
17396TIP3   OH273678   6.123   6.567   0.144 -0.6152 -0.3266  0.0739
17396TIP3    H173679   6.029   6.568   0.130 -0.9719  2.7701  2.2291
17396TIP3    H273680   6.133   6.568   0.240  1.5570  1.5403 -0.1178
17397TIP3   OH273681   6.162   2.433  13.440  0.5849  0.0071 -0.1590
17397TIP3    H173682   6.068   2.416  13.433  0.6200 -1.0518  1.6451
17397TIP3    H273683   6.195   2.425  13.350 -0.9880  0.0743 -0.7545
17398TIP3   OH273684   3.023   5.609  13.676 -0.3892  0.0488  1.0422
17398TIP3    H173685   2.988   5.697  13.684 -0.5262  0.3615 -2.1283
17398TIP3    H273686   3.115   5.622  13.651 -0.3776 -0.6772  0.6820
17399TIP3   OH273687   6.704   5.496  16.293 -0.5004  0.3423 -0.3542
17399TIP3    H173688   6.797   5.512  16.306  0.0597 -1.0929 -2.4674
17399TIP3    H273689   6.663   5.527  16.374  1.9655 -0.4939  1.2671
17400TIP3   OH273690   4.893   1.069  14.436 -0.3599 -0.2065  0.4617
17400TIP3    H173691   4.905   1.062  14.530  0.3323 -2.4760  0.2356
17400TIP3    H273692   4.804   1.038  14.420 -0.0790 -0.9307  0.2665
17401TIP3   OH273693   1.891   3.982   5.564 -0.1570 -0.3085  0.2208
17401TIP3    H173694   1.968   3.951   5.517  0.6178  0.0634  1.2310
17401TIP3    H273695   1.850   3.902   5.598  0.9760 -0.3594  1.4948
17402TIP3   OH273696   4.501   6.189  12.529 -0.0681  0.7505 -0.1133
17402TIP3    H173697   4.524   6.190  12.621  0.5006  1.9453 -0.2603
17402TIP3    H273698   4.578   6.225  12.484  0.8783 -2.6243 -1.3445
17403TIP3   OH273699   2.601   0.762   1.811 -0.3062 -0.3638  0.2133
17403TIP3    H173700   2.685   0.723   1.787  0.2504  0.3551  0.9802
17403TIP3    H273701   2.579   0.820   1.739  0.6232  0.6421  0.7412
17404TIP3   OH273702   6.186   3.387  10.916  0.5713 -0.0816 -0.5066
17404TIP3    H173703   6.233   3.329  10.975  1.0493 -0.2660 -1.0668
17404TIP3    H273704   6.223   3.474  10.933 -0.3356  0.1174  0.5259
17405TIP3   OH273705   4.597   3.106  11.692  0.2516  0.2901 -0.2955
17405TIP3    H173706   4.618   3.076  11.604  0.6879 -2.9292  0.8020
17405TIP3    H273707   4.505   3.080  11.704  0.0871  1.0407  0.0628
17406TIP3   OH273708   6.127   4.058   3.354 -0.2283 -0.1352 -0.2026
17406TIP3    H173709   6.122   3.974   3.309 -0.6001 -0.0504 -0.3146
17406TIP3    H273710   6.068   4.049   3.429 -2.4697  0.9997 -1.7798
17407TIP3   OH273711   1.841   3.889   3.958  0.1081 -0.5423 -0.2263
17407TIP3    H173712   1.763   3.874   4.012  0.4393 -2.6645 -0.2785
17407TIP3    H273713   1.860   3.804   3.919  1.4916  0.3305 -1.5354
17408TIP3   OH273714   5.569   0.882  15.232 -0.0139 -0.0230  0.1023
17408TIP3    H173715   5.564   0.856  15.140 -0.2290  0.4045 -0.0083
17408TIP3    H273716   5.546   0.975  15.232  0.9025  0.2104  0.4747
17409TIP3   OH273717   6.217   4.264   5.450 -0.0732 -1.0692 -0.6144
17409TIP3    H173718   6.199   4.192   5.510 -0.1258 -1.0391 -0.5940
17409TIP3    H273719   6.181   4.341   5.494  0.5322 -0.9367 -0.3600
17410TIP3   OH273720   2.842   3.099   4.746  0.3411  0.2844 -0.1387
17410TIP3    H173721   2.902   3.159   4.702  0.4401 -0.9256 -1.6964
17410TIP3    H273722   2.896   3.022   4.766 -0.0257  0.3028  0.9347
17411TIP3   OH273723   5.427   3.057   1.633  0.0441  0.1370  0.1448
17411TIP3    H173724   5.383   3.059   1.547 -1.4802 -2.6615  0.8088
17411TIP3    H273725   5.495   2.990   1.623 -0.2249 -0.2832  1.1757
17412TIP3   OH273726   0.300   6.516  13.485  1.1304 -0.4386 -0.1886
17412TIP3    H173727   0.295   6.612  13.476  0.2412 -0.4813 -0.2593
17412TIP3    H273728   0.236   6.483  13.421  1.1587 -1.0631  0.1004
17413TIP3   OH273729   2.166   5.797   2.734 -0.1760  0.0476 -0.4298
17413TIP3    H173730   2.158   5.731   2.665 -0.5136 -1.3963  0.9839
17413TIP3    H273731   2.257   5.791   2.762  0.1563  1.1520 -1.2521
17414TIP3   OH273732   5.212   5.260  14.862 -0.0555 -0.0320  0.0729
17414TIP3    H173733   5.204   5.321  14.935 -0.1789  1.8071 -1.4336
17414TIP3    H273734   5.135   5.278  14.808  1.3167  0.3614 -1.7755
17415TIP3   OH273735   5.878   3.036  14.737  0.0650  0.0388 -0.0273
17415TIP3    H173736   5.877   3.045  14.832  0.6754 -2.4088  0.2366
17415TIP3    H273737   5.891   3.125  14.705 -0.9335  0.9994  2.1518
17416TIP3   OH273738   3.677   3.886   3.616  0.7012 -0.6849 -0.2169
17416TIP3    H173739   3.740   3.941   3.663 -1.4157  1.0630  0.6603
17416TIP3    H273740   3.669   3.808   3.671 -1.5951  1.2461  2.3351
17417TIP3   OH273741   4.483   1.167   2.477 -0.0160  0.1563 -0.1379
17417TIP3    H173742   4.559   1.192   2.424  1.2915  0.0206  1.6234
17417TIP3    H273743   4.471   1.074   2.460  0.4737  0.0890 -0.1244
17418TIP3   OH273744   2.166   4.488   0.393 -0.4930 -0.1528 -0.2531
17418TIP3    H173745   2.150   4.511   0.301 -0.8665 -1.1149 -0.4287
17418TIP3    H273746   2.102   4.540   0.442 -0.6934 -0.0906 -0.5774
17419TIP3   OH273747   4.189   4.282   3.330  0.3250  0.2729  0.2247
17419TIP3    H173748   4.095   4.271   3.320  0.4068  0.6281 -0.9903
17419TIP3    H273749   4.211   4.355   3.273  1.6054 -0.9531 -0.8942
17420TIP3   OH273750   0.541   5.351  12.228 -0.0904  0.2486  0.0014
17420TIP3    H173751   0.446   5.338  12.226  0.1092 -1.1650 -0.5233
17420TIP3    H273752   0.552   5.438  12.267 -1.5168 -0.7027  2.6568
17421TIP3   OH273753   2.562   2.971  15.771 -0.2255  0.0565 -0.7631
17421TIP3    H173754   2.481   2.972  15.720 -0.2758 -0.9684 -0.7058
17421TIP3    H273755   2.553   2.895  15.829  0.2578  0.6347  0.0820
17422TIP3   OH273756   6.760   1.213  12.763 -0.0853 -0.0947 -0.0352
17422TIP3    H173757   6.681   1.160  12.762 -2.0482  2.6497  1.0027
17422TIP3    H273758   6.785   1.222  12.671 -2.1458  0.6386 -0.5415
17423TIP3   OH273759   1.962   3.005  14.349 -0.1850 -0.4882  0.6381
17423TIP3    H173760   1.947   3.054  14.268  0.7478 -0.7114  0.3192
17423TIP3    H273761   1.948   3.068  14.419  2.7953  0.7550  0.1841
17424TIP3   OH273762   1.810   0.074  14.015  0.0967 -0.7286  0.4923
17424TIP3    H173763   1.863   0.034  13.946  0.8345 -0.8669  1.1349
17424TIP3    H273764   1.810   0.168  13.993  0.8808 -0.6856  0.6780
17425TIP3   OH273765   1.470   4.099  16.974  0.5198  0.1016 -0.3033
17425TIP3    H173766   1.397   4.077  16.915  1.0132  1.0704 -1.2927
17425TIP3    H273767   1.474   4.195  16.972  0.8304  0.1305  0.9808
17426TIP3   OH273768   1.109   4.895   1.425  0.4137  0.1621 -0.0121
17426TIP3    H173769   1.067   4.809   1.436 -2.4466  1.5739  0.5045
17426TIP3    H273770   1.183   4.893   1.486 -1.5234 -0.7664  2.4062
17427TIP3   OH273771   2.666   0.653  13.870 -0.1600  0.2813  0.2901
17427TIP3    H173772   2.742   0.711  13.867 -0.0559  0.1157 -0.5515
17427TIP3    H273773   2.593   0.709  13.897  0.3812  0.3002  1.7371
17428TIP3   OH273774   6.727   3.175   3.587 -0.1580 -0.2347 -0.6310
17428TIP3    H173775   6.819   3.192   3.568 -0.1557 -0.0039 -0.4151
17428TIP3    H273776   6.723   3.080   3.602  0.0388 -0.2496 -0.6740
17429TIP3   OH273777   5.077   1.005   2.422  0.0675 -0.1432 -0.2903
17429TIP3    H173778   5.107   0.963   2.503  3.0424  2.0390 -0.1765
17429TIP3    H273779   5.089   0.937   2.355  2.0062 -0.4827  0.3643
17430TIP3   OH273780   4.068   5.903  15.020 -0.6605 -0.1942 -0.0988
17430TIP3    H173781   4.040   5.890  14.929  0.7859 -0.5083 -0.5123
17430TIP3    H273782   3.991   5.881  15.072 -1.9277  1.2842 -1.2939
17431TIP3   OH273783   2.878   5.761  10.529  0.1013  0.0791  0.2431
17431TIP3    H173784   2.921   5.724  10.606 -0.6923 -0.1435  0.5903
17431TIP3    H273785   2.938   5.745  10.457  1.3630  1.2707  1.0088
17432TIP3   OH273786   2.899   3.545   6.232  0.3151 -0.0638  0.3389
17432TIP3    H173787   2.900   3.598   6.312  1.6311 -2.1377  1.7584
17432TIP3    H273788   2.874   3.606   6.163  0.6314  2.1289  2.0943
17433TIP3   OH273789   1.150   6.718  16.100 -0.4621 -0.1859 -0.5856
17433TIP3    H173790   1.234   6.683  16.072  0.0123  0.5834 -0.1141
17433TIP3    H273791   1.094   6.640  16.110  0.5138 -0.7957  0.2200
17434TIP3   OH273792   6.442   2.803  16.224  0.6886 -0.3603 -0.5952
17434TIP3    H173793   6.401   2.717  16.216  1.0119 -0.3751 -2.3519
17434TIP3    H273794   6.438   2.840  16.136  2.0474  0.7404 -0.2223
17435TIP3   OH273795   0.482   6.783   4.798 -0.2869 -0.1827 -0.5442
17435TIP3    H173796   0.511   6.757   4.710  0.1526 -0.2392 -0.3857
17435TIP3    H273797   0.403   6.733   4.814  0.2522 -1.0117 -0.4574
17436TIP3   OH273798   2.239   3.633   4.446 -0.3607  0.4753 -0.3722
17436TIP3    H173799   2.318   3.671   4.406 -1.1597  2.2699 -0.2911
17436TIP3    H273800   2.171   3.699   4.432 -1.8276 -0.9927 -0.3007
17437TIP3   OH273801   4.571   3.251  17.192  0.4399  0.2616  0.1849
17437TIP3    H173802   4.552   3.304  17.270  0.2623  0.4162  0.0374
17437TIP3    H273803   4.584   3.162  17.226 -0.7598  0.1068  0.2760
17438TIP3   OH273804   4.674   2.615  16.898  0.7294  0.0352 -0.0756
17438TIP3    H173805   4.602   2.595  16.839  0.8204  0.7855 -0.4424
17438TIP3    H273806   4.696   2.706  16.880  1.4587 -0.0472  0.3654
17439TIP3   OH273807   2.008   4.315   3.539  0.4092  0.0606 -0.4317
17439TIP3    H173808   2.023   4.376   3.467 -0.7763  0.8140 -0.0669
17439TIP3    H273809   2.005   4.370   3.617 -0.0335 -0.5288 -0.0185
17440TIP3   OH273810   1.601   5.442  14.474  0.2240 -0.0008 -0.1220
17440TIP3    H173811   1.610   5.532  14.505  0.1918 -0.1071  0.2024
17440TIP3    H273812   1.518   5.412  14.511  0.2561 -0.1773 -0.1925
17441TIP3   OH273813   5.802   0.228   4.970  0.0863 -0.0871  0.6901
17441TIP3    H173814   5.781   0.282   4.893 -1.1595  0.0086  1.0782
17441TIP3    H273815   5.717   0.194   4.999  0.7716 -1.7399  0.8397
17442TIP3   OH273816   5.411   4.223  16.177 -0.2494  0.1143  0.2769
17442TIP3    H173817   5.318   4.238  16.163  0.3230  2.7080 -1.0529
17442TIP3    H273818   5.444   4.306  16.213  1.9367  0.0142 -1.3795
17443TIP3   OH273819   2.327   6.310  16.238 -0.2333  0.4368  0.2904
17443TIP3    H173820   2.348   6.227  16.195 -0.9249  1.1460 -1.4755
17443TIP3    H273821   2.260   6.287  16.303  0.3951 -0.5602  0.5818
17444TIP3   OH273822   3.655   5.383  12.628 -0.2980  0.0238 -0.0500
17444TIP3    H173823   3.574   5.359  12.583 -0.4944  0.6374 -0.0353
17444TIP3    H273824   3.666   5.476  12.609  1.3472 -0.4518 -1.5177
17445TIP3   OH273825   3.976   0.538   3.497  0.6555  0.2544 -0.1269
17445TIP3    H173826   4.009   0.472   3.559  1.3234  0.3736 -0.3572
17445TIP3    H273827   3.900   0.575   3.541 -0.8690 -1.9898 -0.7786
17446TIP3   OH273828   2.188   1.476   1.792 -0.0284 -0.0044  0.1284
17446TIP3    H173829   2.151   1.388   1.787  0.4587 -0.3273  1.8628
17446TIP3    H273830   2.167   1.506   1.881  2.1477  0.5659  0.4749
17447TIP3   OH273831   2.597   4.982   0.305 -0.5082  0.0168 -0.1178
17447TIP3    H173832   2.570   5.053   0.363 -0.3638 -0.2244  0.2471
17447TIP3    H273833   2.564   4.903   0.347  1.2244 -0.3334  0.6210
17448TIP3   OH273834   2.456   0.635   5.591  0.1592  0.7160  0.7804
17448TIP3    H173835   2.519   0.597   5.531  0.4802 -0.0394  1.5903
17448TIP3    H273836   2.380   0.576   5.586 -1.1685  2.5133 -1.4395
17449TIP3   OH273837   0.991   5.147  13.403 -0.4429  0.1193  0.2370
17449TIP3    H173838   0.913   5.098  13.430 -1.9379  1.4401 -1.5441
17449TIP3    H273839   1.013   5.200  13.480 -2.3008  0.9336  0.2378
17450TIP3   OH273840   5.948   2.163  15.159 -0.2052  0.0242  0.1656
17450TIP3    H173841   5.942   2.205  15.245 -0.4126 -0.7776  0.5532
17450TIP3    H273842   5.864   2.183  15.117  0.1521  0.9600 -0.1040
17451TIP3   OH273843   3.506   3.958  14.155 -0.2613  0.3776  0.3348
17451TIP3    H173844   3.414   3.945  14.177 -0.1921 -2.2861 -0.8503
17451TIP3    H273845   3.516   3.918  14.069  2.3838 -0.9178  1.2024
17452TIP3   OH273846   1.601   1.262  14.779 -0.2433  0.0615  0.2329
17452TIP3    H173847   1.683   1.306  14.802  1.2378 -1.5500 -1.7859
17452TIP3    H273848   1.580   1.208  14.855 -0.7396  2.2587  1.7118
17453TIP3   OH273849   3.951   2.100  15.691  0.1314 -0.0999  0.2462
17453TIP3    H173850   4.027   2.094  15.633  0.5299 -1.1980  0.8723
17453TIP3    H273851   3.951   2.191  15.720  0.4070  0.2538 -0.8297
17454TIP3   OH273852   5.238   2.977  16.877 -0.0231  0.2177 -0.1264
17454TIP3    H173853   5.278   2.890  16.882  0.7762  0.6441  1.4917
17454TIP3    H273854   5.218   2.999  16.968 -1.1488  1.3057 -0.6253
17455TIP3   OH273855   3.455   2.965   0.544 -0.3234 -0.2045 -0.1409
17455TIP3    H173856   3.451   3.058   0.563 -0.9417 -0.3114  0.2871
17455TIP3    H273857   3.526   2.955   0.481 -0.4200  0.5834 -0.3681
17456TIP3   OH273858   5.768   4.738   6.487 -0.6171 -0.2301 -0.1610
17456TIP3    H173859   5.814   4.752   6.570 -1.2249  0.0996  0.1201
17456TIP3    H273860   5.817   4.792   6.424 -0.2001 -0.4230 -0.0051
17457TIP3   OH273861   3.720   1.356   6.005  0.3132 -0.0955  0.0966
17457TIP3    H173862   3.634   1.321   6.025 -0.2075 -0.5080 -2.6887
17457TIP3    H273863   3.711   1.451   6.018 -0.8851 -0.0191 -1.1428
17458TIP3   OH273864   5.145   3.853  10.840  0.6316 -0.9211 -0.3528
17458TIP3    H173865   5.153   3.906  10.761 -0.6249  1.2241  0.9170
17458TIP3    H273866   5.062   3.807  10.830  0.8284 -1.2264 -0.6038
17459TIP3   OH273867   1.190   1.166   0.336  0.3002  0.4254 -0.0598
17459TIP3    H173868   1.210   1.240   0.392  1.1566  0.5717 -0.5598
17459TIP3    H273869   1.103   1.137   0.366  0.5159  0.8184  0.9880
17460TIP3   OH273870   1.990   4.243  14.713  0.2114 -0.4955  0.0987
17460TIP3    H173871   2.011   4.329  14.748  2.0793 -0.8640 -0.0595
17460TIP3    H273872   1.981   4.187  14.790 -0.5753 -0.2582  0.1829
17461TIP3   OH273873   6.399   0.911  17.229 -0.4466  0.6902 -0.5578
17461TIP3    H173874   6.429   0.823  17.252 -0.5320  0.8556  0.1908
17461TIP3    H273875   6.431   0.967  17.300 -0.5874  1.2249 -0.9123
17462TIP3   OH273876   5.886   2.537   6.207  0.0888  0.0750 -0.1321
17462TIP3    H173877   5.793   2.518   6.193  0.1443 -0.1758 -0.1720
17462TIP3    H273878   5.895   2.544   6.302  0.0707 -0.1272 -0.1143
17463TIP3   OH273879   1.736   5.858   2.459  0.3637 -0.4223  0.3997
17463TIP3    H173880   1.733   5.934   2.401 -2.6560 -0.0785  0.9340
17463TIP3    H273881   1.770   5.787   2.404 -2.5788 -0.1371 -1.9163
17464TIP3   OH273882   4.178   6.108  13.016 -0.1008 -0.0321  0.4739
17464TIP3    H173883   4.270   6.110  13.040  0.1284  0.4828 -0.4420
17464TIP3    H273884   4.131   6.105  13.100  0.6592  2.2876  1.0043
17465TIP3   OH273885   0.155   3.903   6.567 -0.2903 -0.2017  0.3763
17465TIP3    H173886   0.079   3.956   6.593 -1.0961 -1.3864  0.4688
17465TIP3    H273887   0.187   3.865   6.649  1.0168  1.0639  0.4795
17466TIP3   OH273888   2.085   6.770   5.745  0.4704  0.7192  0.5347
17466TIP3    H173889   2.094   6.675   5.747  0.6419  0.7534  1.4020
17466TIP3    H273890   2.093   6.797   5.836  0.4301  1.5682  0.2893
17467TIP3   OH273891   0.105   0.373  12.112  0.2728  0.4091  0.0111
17467TIP3    H173892   0.135   0.302  12.054  0.8827 -0.4119  1.3012
17467TIP3    H273893   0.011   0.359  12.120  0.7506 -1.9096  2.3678
17468TIP3   OH273894   5.631   5.174   0.146 -0.4291 -0.1557  0.0611
17468TIP3    H173895   5.686   5.213   0.213 -0.8432 -0.4333  0.5629
17468TIP3    H273896   5.584   5.103   0.190 -1.6541  0.4708 -0.1968
17469TIP3   OH273897   2.482   0.054  14.160 -0.3242  0.3581  0.0826
17469TIP3    H173898   2.391   0.084  14.153 -0.1635  0.7669 -0.2665
17469TIP3    H273899   2.525   0.120  14.214 -0.2541  0.1166  0.3233
17470TIP3   OH273900   6.661   4.516   2.337 -0.0366  0.8706  0.2332
17470TIP3    H173901   6.638   4.494   2.247 -1.1672  1.6559  0.3221
17470TIP3    H273902   6.649   4.434   2.385  0.6214  0.4396 -0.3422
17471TIP3   OH273903   0.405   2.142  13.219  0.2652  0.4272 -0.6707
17471TIP3    H173904   0.374   2.158  13.308  0.8073 -2.4475  0.0957
17471TIP3    H273905   0.327   2.151  13.165 -0.5459 -0.0538  0.3890
17472TIP3   OH273906   6.495   0.578  14.813 -0.1048 -0.7110  0.1750
17472TIP3    H173907   6.537   0.660  14.789 -1.5114  0.1124  0.4247
17472TIP3    H273908   6.443   0.555  14.735 -2.1802  0.3110  1.1998
17473TIP3   OH273909   3.937   5.906  12.185 -0.9244 -0.0585 -0.0128
17473TIP3    H173910   3.975   5.860  12.111 -1.3341 -0.7815  0.2237
17473TIP3    H273911   3.898   5.985  12.147  1.8584  1.3401 -0.1070
17474TIP3   OH273912   5.577   5.303  10.328 -0.0948  0.4328 -0.2922
17474TIP3    H173913   5.501   5.244  10.325 -0.0328  0.2664  1.0989
17474TIP3    H273914   5.549   5.375  10.385  1.0272  0.0180  0.8142
17475TIP3   OH273915   3.137   5.063  15.457  0.1048  0.0301  0.5352
17475TIP3    H173916   3.054   5.086  15.415  1.7397 -0.3639 -3.1573
17475TIP3    H273917   3.146   4.969  15.441  2.3606  0.5053 -1.3595
17476TIP3   OH273918   4.338   0.545   1.898 -0.0438 -0.9257 -0.0683
17476TIP3    H173919   4.325   0.461   1.942  2.6346 -2.7202 -2.5389
17476TIP3    H273920   4.292   0.537   1.815  2.5220 -1.0586 -1.5350
17477TIP3   OH273921   5.311   0.141   0.364  0.4368  0.1499 -0.4278
17477TIP3    H173922   5.392   0.155   0.316 -1.0797  1.0541 -2.8185
17477TIP3    H273923   5.268   0.068   0.320 -1.5902  1.8376 -1.3814
17478TIP3   OH273924   2.826   3.267   6.160 -0.4449 -0.0585 -0.0074
17478TIP3    H173925   2.731   3.263   6.173 -0.4220 -2.2854 -0.3370
17478TIP3    H273926   2.853   3.347   6.204 -2.3779  0.1689  0.7930
17479TIP3   OH273927   5.665   0.690  16.552 -0.0970  0.1758  0.6583
17479TIP3    H173928   5.679   0.785  16.560  1.0481  0.2064 -1.3532
17479TIP3    H273929   5.751   0.655  16.530 -0.6339 -1.2670  0.8199
17480TIP3   OH273930   1.459   2.576  11.653 -0.0292  0.1792  0.1568
17480TIP3    H173931   1.458   2.481  11.646 -1.6298  0.1355  0.7847
17480TIP3    H273932   1.547   2.597  11.687  0.4888 -1.0206 -0.4207
17481TIP3   OH273933   5.385   4.166  12.996 -0.0751  0.0058 -0.3966
17481TIP3    H173934   5.426   4.164  12.909  0.0516 -0.9816 -0.3209
17481TIP3    H273935   5.331   4.086  12.999  0.7487 -0.5194  0.8255
17482TIP3   OH273936   2.657   4.539   4.729 -0.6824  0.2360  0.6861
17482TIP3    H173937   2.570   4.566   4.699 -1.1581 -0.2925  1.5410
17482TIP3    H273938   2.682   4.469   4.670 -1.6134 -0.8078  1.4990
17483TIP3   OH273939   4.827   2.385   2.581  0.2835  0.2289  0.3423
17483TIP3    H173940   4.901   2.325   2.571  0.0718 -0.0568  0.4771
17483TIP3    H273941   4.829   2.409   2.673  1.1487  1.4484  0.0187
17484TIP3   OH273942   4.513   5.931   1.545 -0.1189 -0.0079  0.1733
17484TIP3    H173943   4.453   5.856   1.541 -0.0796 -0.0867  0.9508
17484TIP3    H273944   4.502   5.974   1.460 -2.7102  1.0589  0.9940
17485TIP3   OH273945   6.341   3.592   3.072 -0.3775  0.0920 -0.2651
17485TIP3    H173946   6.255   3.559   3.099 -0.0952  0.3097  0.8925
17485TIP3    H273947   6.381   3.518   3.026 -1.2042  0.0111 -0.8606
17486TIP3   OH273948   5.008   3.054  11.397 -0.8726 -0.4937 -0.1945
17486TIP3    H173949   4.956   3.124  11.437 -1.2005 -0.1352 -1.2442
17486TIP3    H273950   5.005   3.072  11.303  0.1980 -1.1280 -0.3555
17487TIP3   OH273951   4.136   3.306   2.428 -0.4848 -0.0629 -0.0248
17487TIP3    H173952   4.101   3.389   2.395 -1.1506  0.2077  1.3476
17487TIP3    H273953   4.066   3.243   2.412 -0.9521  0.1398  1.1691
17488TIP3   OH273954   1.604   4.850   0.153 -0.0850  0.2346 -0.4041
17488TIP3    H173955   1.609   4.943   0.176 -0.6737  0.2716 -0.4009
17488TIP3    H273956   1.519   4.841   0.108  0.3693 -0.1326 -1.1969
17489TIP3   OH273957   6.036   1.039  11.815 -0.2646  0.2398 -0.5182
17489TIP3    H173958   5.989   0.984  11.878 -0.4940  0.0866 -0.8192
17489TIP3    H273959   6.050   0.982  11.740 -0.3724  0.5465 -0.7716
17490TIP3   OH273960   0.476   0.305   0.327 -0.6939  0.3019  0.3615
17490TIP3    H173961   0.570   0.297   0.313 -0.5538 -0.0327  1.4694
17490TIP3    H273962   0.451   0.223   0.368 -1.4926  0.3403 -0.0461
17491TIP3   OH273963   0.822   3.146  13.653  0.0768  0.1420 -0.0664
17491TIP3    H173964   0.829   3.222  13.711 -2.5645 -1.4660  2.4189
17491TIP3    H273965   0.873   3.078  13.696  0.1111 -0.3657 -0.8947
17492TIP3   OH273966   5.965   0.603  11.928  0.3404 -0.0777  0.7677
17492TIP3    H173967   5.988   0.510  11.937 -0.7875 -0.1759  2.8884
17492TIP3    H273968   5.884   0.603  11.876  0.4775 -0.2578  0.5524
17493TIP3   OH273969   5.634   1.041  13.214 -0.0539 -0.6194 -0.5892
17493TIP3    H173970   5.688   1.101  13.162 -2.1359 -0.8866 -3.1335
17493TIP3    H273971   5.694   0.969  13.236  1.1149 -0.0424 -1.7874
17494TIP3   OH273972   6.481   6.577  12.097 -0.5106 -0.0350 -0.1077
17494TIP3    H173973   6.560   6.589  12.044  0.7004 -0.4561  1.5806
17494TIP3    H273974   6.488   6.643  12.166 -1.7598  0.0796 -0.0712
17495TIP3   OH273975   3.966   3.138  11.398 -0.2403 -0.7658  0.0859
17495TIP3    H173976   3.980   3.198  11.326 -0.9321 -1.5644 -0.7234
17495TIP3    H273977   3.899   3.180  11.452  0.9020  0.2413  0.7588
17496TIP3   OH273978   2.710   5.540  16.899 -0.5091 -0.4764 -0.0593
17496TIP3    H173979   2.724   5.446  16.915  0.0859 -0.3588  0.1172
17496TIP3    H273980   2.700   5.578  16.987  0.5802 -0.1720 -0.0569
17497TIP3   OH273981   5.970   0.967  16.464 -0.3051 -0.0645 -0.0367
17497TIP3    H173982   6.051   0.931  16.430  0.1486  1.1343 -0.2638
17497TIP3    H273983   5.967   0.939  16.555  0.0769 -0.5813 -0.1853
17498TIP3   OH273984   3.134   1.305  12.474  0.4046 -0.7423  0.3994
17498TIP3    H173985   3.220   1.339  12.499  0.5707  0.6746 -2.0220
17498TIP3    H273986   3.078   1.382  12.468  0.0753 -1.1509 -2.3928
17499TIP3   OH273987   1.865   2.273   5.230  0.2606  0.5156  0.1752
17499TIP3    H173988   1.805   2.206   5.200  0.1311  0.6678  0.0932
17499TIP3    H273989   1.858   2.343   5.164 -0.2429  0.9766  0.7173
17500TIP3   OH273990   5.011   3.471   0.296  0.5096  0.2120 -0.5093
17500TIP3    H173991   5.055   3.389   0.274 -0.0248 -0.4769  0.8604
17500TIP3    H273992   4.979   3.505   0.213 -0.1002 -1.4711 -0.9773
17501TIP3   OH273993   6.291   4.587  15.591 -0.4928 -0.6996 -0.1546
17501TIP3    H173994   6.210   4.619  15.552 -0.8639  2.4677  2.9988
17501TIP3    H273995   6.263   4.545  15.673  0.9385 -0.6178  0.3888
17502TIP3   OH273996   2.020   2.338  12.516  0.1752 -0.1368  0.2122
17502TIP3    H173997   2.043   2.396  12.589 -0.5757  0.1712  0.2037
17502TIP3    H273998   2.085   2.267  12.520  0.8386  0.4779  0.4799
17503TIP3   OH273999   2.207   2.271   5.900  0.3935 -1.2362  0.1271
17503TIP3    H174000   2.173   2.292   5.987 -2.4447 -1.1014 -0.9865
17503TIP3    H274001   2.222   2.356   5.859 -0.4953 -1.3141 -0.3591
17504TIP3   OH274002   0.431   1.980   5.510  0.8440 -0.2129 -0.0569
17504TIP3    H174003   0.383   1.898   5.505 -0.1809  0.3764 -0.0143
17504TIP3    H274004   0.510   1.959   5.561  0.6268 -1.1826 -0.1237
17505TIP3   OH274005   1.444   6.578   3.424 -0.0402  0.2780  0.3461
17505TIP3    H174006   1.384   6.650   3.405 -1.7663 -0.1619  3.7504
17505TIP3    H274007   1.420   6.510   3.361 -2.3104  0.5750  0.8519
17506TIP3   OH274008   0.868   0.687  11.088 -0.1296  0.2595  0.0706
17506TIP3    H174009   0.939   0.708  11.027  0.4545 -1.0648  0.2833
17506TIP3    H274010   0.788   0.714  11.041  0.3695  0.0382 -0.9290
17507TIP3   OH274011   6.798   0.316  13.318  0.2914 -0.1609  0.0997
17507TIP3    H174012   6.893   0.322  13.327  0.3825  0.4534 -1.1276
17507TIP3    H274013   6.783   0.232  13.275  0.2036 -0.6929  1.1448
17508TIP3   OH274014   5.597   1.850   0.838  0.1052 -0.2678 -0.0003
17508TIP3    H174015   5.653   1.781   0.873  1.1934  1.0702  0.9607
17508TIP3    H274016   5.579   1.907   0.913 -0.9725  0.3556 -0.7219
17509TIP3   OH274017   0.201   0.737  11.687 -0.6972  0.2007  0.9290
17509TIP3    H174018   0.194   0.744  11.782 -0.3632  0.0744  0.9651
17509TIP3    H274019   0.111   0.739  11.655 -0.8657 -0.9417  1.3272
17510TIP3   OH274020   0.425   1.324  13.402  0.1381  0.2153 -0.5886
17510TIP3    H174021   0.389   1.411  13.383  0.6447  1.0505  2.1248
17510TIP3    H274022   0.519   1.334  13.392  0.1786 -0.1250 -0.5636
17511TIP3   OH274023   0.532   5.652   2.387  0.3828  0.0561 -0.2624
17511TIP3    H174024   0.563   5.740   2.366  1.6295 -0.7888 -2.0532
17511TIP3    H274025   0.506   5.615   2.303  0.3378 -1.4770  0.4095
17512TIP3   OH274026   1.619   5.202   1.747 -0.2787  1.1002 -0.2215
17512TIP3    H174027   1.575   5.286   1.743 -1.3765  0.4810 -1.4134
17512TIP3    H274028   1.647   5.185   1.657 -1.2866 -0.4356 -0.2642
17513TIP3   OH274029   6.493   1.660   3.370 -0.1134 -0.4314  0.3146
17513TIP3    H174030   6.520   1.610   3.447  0.4763 -0.6239 -0.0199
17513TIP3    H274031   6.431   1.603   3.324  0.2261 -0.6780  0.1652
17514TIP3   OH274032   5.912   2.727   5.319  0.2076 -0.2116 -0.3446
17514TIP3    H174033   5.839   2.672   5.290  0.4788 -1.0045  0.5009
17514TIP3    H274034   5.891   2.750   5.409  1.5300 -1.3408  0.2720
17515TIP3   OH274035   1.362   2.468  13.307 -0.0838  0.1084 -0.0692
17515TIP3    H174036   1.440   2.432  13.351 -0.7548 -0.4866  0.6492
17515TIP3    H274037   1.370   2.563  13.318 -0.9969 -0.0892  2.6737
17516TIP3   OH274038   1.645   3.551  15.974  0.3976  0.1294 -0.2002
17516TIP3    H174039   1.697   3.472  15.963 -0.4738 -0.6494  1.2524
17516TIP3    H274040   1.554   3.521  15.972  0.0224  1.2650 -0.9858
17517TIP3   OH274041   5.845   5.081  13.379 -0.3201 -0.2566 -0.3689
17517TIP3    H174042   5.875   4.999  13.340 -1.9344 -0.0056 -2.2572
17517TIP3    H274043   5.832   5.139  13.304  0.0302  1.4662  0.8787
17518TIP3   OH274044   3.142   3.082  10.281 -0.2783 -0.2216 -0.5480
17518TIP3    H174045   3.090   3.070  10.361 -1.4338 -2.0588 -1.5507
17518TIP3    H274046   3.208   3.148  10.305 -0.8852 -0.4240  1.7823
17519TIP3   OH274047   3.865   1.627  12.751  0.0686 -0.3902  0.1793
17519TIP3    H174048   3.924   1.586  12.688  0.1136 -1.8820  1.1638
17519TIP3    H274049   3.854   1.561  12.820 -1.3361  0.5505  0.8819
17520TIP3   OH274050   3.563   2.850  14.491  0.2823  0.1501 -0.4133
17520TIP3    H174051   3.549   2.877  14.582 -2.6580 -0.5154 -0.6308
17520TIP3    H274052   3.566   2.755  14.495 -0.4781  0.0933 -1.0773
17521TIP3   OH274053   1.823   3.854   2.688  0.0774 -0.3187  0.0383
17521TIP3    H174054   1.802   3.945   2.666  0.4581 -0.3361 -0.4132
17521TIP3    H274055   1.827   3.853   2.783  0.5151  0.2437  0.0321
17522TIP3   OH274056   3.797   5.959  15.043 -0.0285 -0.4827  0.2605
17522TIP3    H174057   3.838   6.027  14.989  0.5848 -0.5437  0.6387
17522TIP3    H274058   3.765   6.005  15.120 -0.5692 -0.4557  0.0219
17523TIP3   OH274059   1.158   5.938   2.813 -0.2750 -0.3791 -0.0061
17523TIP3    H174060   1.107   5.888   2.877  0.2410 -0.8752  0.0349
17523TIP3    H274061   1.101   5.948   2.738  0.4264 -3.1639 -0.9695
17524TIP3   OH274062   4.400   4.744   4.301 -0.0687 -0.6826 -0.1965
17524TIP3    H174063   4.485   4.710   4.326  1.0621  2.0813 -0.0263
17524TIP3    H274064   4.394   4.726   4.207  0.4171 -1.4399 -0.0874
17525TIP3   OH274065   1.507   0.520  16.560  0.0357 -0.2365  0.1885
17525TIP3    H174066   1.543   0.558  16.480 -0.0999 -1.0907 -0.2909
17525TIP3    H274067   1.512   0.426  16.546  1.4548 -0.4314  1.8474
17526TIP3   OH274068   4.625   6.351   5.349 -0.3602  0.7553  0.1541
17526TIP3    H174069   4.650   6.400   5.271  0.3930 -0.0404 -0.1093
17526TIP3    H274070   4.677   6.391   5.419  0.5668  0.0924 -0.1316
17527TIP3   OH274071   3.328   1.804  15.162  0.0506  0.5308 -0.4488
17527TIP3    H174072   3.365   1.892  15.148 -0.4703  0.8095 -0.1016
17527TIP3    H274073   3.258   1.798  15.097  0.3009  0.2402 -0.6928
17528TIP3   OH274074   0.826   4.355  17.183 -0.2506 -0.1553 -0.0157
17528TIP3    H174075   0.903   4.332  17.235 -0.2337 -0.2238 -0.0708
17528TIP3    H274076   0.851   4.333  17.093 -0.0977  0.4451 -0.1165
17529TIP3   OH274077   6.240   0.212   5.295  0.1165 -0.4277  0.0343
17529TIP3    H174078   6.244   0.296   5.341 -0.7304 -0.4415  0.1418
17529TIP3    H274079   6.293   0.153   5.348  0.0234 -0.1714  0.4145
17530TIP3   OH274080   1.291   3.667  13.929 -0.1587  0.1675 -0.3344
17530TIP3    H174081   1.208   3.626  13.952  0.1245  0.1070  0.5922
17530TIP3    H274082   1.300   3.652  13.835 -1.2406  0.2672 -0.4524
17531TIP3   OH274083   5.421   5.866   2.613  0.1732 -0.3310  0.1105
17531TIP3    H174084   5.407   5.778   2.648  0.4925 -0.0969  0.8405
17531TIP3    H274085   5.500   5.897   2.658 -0.5514  0.7399  0.6559
17532TIP3   OH274086   0.037   2.080  14.227  0.0692  0.4827 -0.0465
17532TIP3    H174087   0.102   2.124  14.283 -0.0790  0.3603  0.2232
17532TIP3    H274088   0.066   1.989  14.223 -0.4901  0.2636  0.6808
17533TIP3   OH274089   5.887   3.876   2.846  0.4598  0.9489 -0.9203
17533TIP3    H174090   5.806   3.896   2.800 -0.3948  1.0695  0.6429
17533TIP3    H274091   5.933   3.815   2.787  0.1385  2.3757 -2.6879
17534TIP3   OH274092   0.624   6.435   3.106 -0.3034  0.2366  0.2785
17534TIP3    H174093   0.712   6.426   3.068  0.3466 -0.2123  1.8218
17534TIP3    H274094   0.619   6.527   3.132  1.2154 -0.5588  3.6397
17535TIP3   OH274095   1.611   1.950   4.946 -0.0904 -0.3302 -0.5174
17535TIP3    H174096   1.660   1.870   4.925  1.2515  0.5768 -0.9190
17535TIP3    H274097   1.652   2.018   4.892 -1.7123  0.4855 -0.7366
17536TIP3   OH274098   0.808   0.852  12.291 -0.0396 -0.3603  0.3565
17536TIP3    H174099   0.820   0.867  12.197 -2.9477  1.5246  0.2150
17536TIP3    H274100   0.742   0.783  12.297 -1.1991  0.7624  0.9572
17537TIP3   OH274101   4.286   0.059   3.072  0.5414  0.6976 -0.0251
17537TIP3    H174102   4.196   0.047   3.040  0.4931 -1.8499  0.9681
17537TIP3    H274103   4.333   0.097   2.997 -0.5887 -1.0121 -1.6404
17538TIP3   OH274104   5.764   0.448   4.584  0.1001 -0.5671 -0.3305
17538TIP3    H174105   5.707   0.524   4.576  0.7618 -0.1129 -0.8073
17538TIP3    H274106   5.710   0.374   4.556  0.0434 -0.0098 -1.7640
17539TIP3   OH274107   4.650   6.342  12.206  0.3503 -0.2984  0.2045
17539TIP3    H174108   4.720   6.399  12.174 -0.4438  1.0349  0.8249
17539TIP3    H274109   4.661   6.341  12.301 -0.5305 -0.0113  0.3141
17540TIP3   OH274110   3.881   3.328   6.297 -0.2088 -0.1945  0.1379
17540TIP3    H174111   3.831   3.381   6.359  0.6118  1.3929 -0.5315
17540TIP3    H274112   3.970   3.328   6.332 -0.5040 -2.4136  0.9436
17541TIP3   OH274113   4.634   5.476   3.119 -0.1463  0.6933  0.1903
17541TIP3    H174114   4.572   5.406   3.099  0.7914 -0.0450 -0.1697
17541TIP3    H274115   4.705   5.463   3.056  0.3200  1.5936  0.5343
17542TIP3   OH274116   0.564   2.705  16.784 -0.4021  0.0022  0.6212
17542TIP3    H174117   0.655   2.733  16.772 -0.8031  1.0487 -0.1130
17542TIP3    H274118   0.514   2.787  16.781 -1.2517 -0.4367  2.2938
17543TIP3   OH274119   3.514   1.298  14.538  0.3787 -0.3237  0.0613
17543TIP3    H174120   3.491   1.214  14.500 -3.0126  0.2957  0.6348
17543TIP3    H274121   3.545   1.278  14.627 -2.1554 -0.8342  0.8481
17544TIP3   OH274122   5.902   1.743   4.467 -0.4382 -0.0080  0.2563
17544TIP3    H174123   5.945   1.814   4.516  0.8438 -2.2759  2.5474
17544TIP3    H274124   5.941   1.746   4.380  1.8979  0.1468  1.2815
17545TIP3   OH274125   4.969   1.525  16.825 -0.5912  0.4101 -0.0734
17545TIP3    H174126   5.004   1.522  16.736 -1.2048 -0.2081 -0.2995
17545TIP3    H274127   5.037   1.485  16.879 -0.3452  0.5115 -0.3104
17546TIP3   OH274128   5.918   0.853  15.941  0.5597  0.4761 -0.6079
17546TIP3    H174129   5.877   0.814  15.864 -1.1766  0.3378  0.3719
17546TIP3    H274130   5.948   0.779  15.993  0.8158  0.5482 -0.6500
17547TIP3   OH274131   1.606   0.614  16.866 -0.3217 -0.6093  0.0270
17547TIP3    H174132   1.615   0.599  16.960 -1.5739  2.2938  0.6451
17547TIP3    H274133   1.517   0.584  16.845 -0.4464 -0.2159 -0.0115
17548TIP3   OH274134   2.143   0.551   5.721 -0.1471 -0.3985 -0.3090
17548TIP3    H174135   2.170   0.462   5.747 -0.1441 -0.5157 -0.7139
17548TIP3    H274136   2.110   0.541   5.632  1.1661  0.2582 -0.8828
17549TIP3   OH274137   3.926   3.150  15.577 -0.3073 -0.0890 -0.2273
17549TIP3    H174138   3.945   3.159  15.483  0.8266  2.9636  0.2417
17549TIP3    H274139   3.831   3.153  15.582 -0.3139  2.0392 -1.1159
17550TIP3   OH274140   0.636   5.094  13.926  0.1945 -0.5894  0.4855
17550TIP3    H174141   0.573   5.055  13.866  1.1126 -1.3203 -0.0149
17550TIP3    H274142   0.602   5.071  14.013 -0.6648 -0.2781  0.2345
17551TIP3   OH274143   2.582   1.729   3.215 -0.3042  0.6653 -0.3109
17551TIP3    H174144   2.565   1.750   3.307 -0.1758  1.2764 -0.4285
17551TIP3    H274145   2.677   1.736   3.206 -0.3754  1.1970 -0.6400
17552TIP3   OH274146   0.124   2.122   4.959  0.3414 -0.0674 -0.5176
17552TIP3    H174147   0.129   2.145   4.866  1.3556 -0.3141 -0.5320
17552TIP3    H274148   0.175   2.041   4.966 -0.0974 -0.2930  0.1845
17553TIP3   OH274149   6.575   0.736  13.591 -0.2332  0.1919  0.2938
17553TIP3    H174150   6.580   0.759  13.498 -0.9475  2.4886  0.8013
17553TIP3    H274151   6.493   0.686  13.598 -0.2419  0.1115 -0.2956
17554TIP3   OH274152   0.482   2.751   4.009 -0.2341  0.0673 -0.0555
17554TIP3    H174153   0.433   2.776   4.087 -0.5504  0.9579 -0.5273
17554TIP3    H274154   0.572   2.742   4.038 -0.4071  0.0768  0.4782
17555TIP3   OH274155   1.955   2.118   1.394  0.5306  0.7780 -0.3629
17555TIP3    H174156   2.003   2.110   1.313  0.3459  1.1972 -0.5176
17555TIP3    H274157   1.866   2.091   1.372  0.5797  0.4758 -0.1960
17556TIP3   OH274158   5.468   4.951   4.087 -0.3363  0.2201 -0.1518
17556TIP3    H174159   5.401   5.018   4.081  1.2946  1.7969 -0.9638
17556TIP3    H274160   5.510   4.949   4.001  1.1492 -0.2172  0.5546
17557TIP3   OH274161   0.757   0.922  16.275 -0.2440  0.4152 -0.0812
17557TIP3    H174162   0.716   0.841  16.243  2.5475 -1.8378  1.7296
17557TIP3    H274163   0.824   0.943  16.210 -0.5170  0.8857 -0.2099
17558TIP3   OH274164   6.162   6.559  16.907  0.1817 -0.2385 -0.1184
17558TIP3    H174165   6.181   6.626  16.972  0.0457  1.5541 -1.8630
17558TIP3    H274166   6.068   6.567  16.890  0.6401  1.0365 -2.3109
17559TIP3   OH274167   1.186   0.140  12.913  0.0374  0.2225 -0.2825
17559TIP3    H174168   1.150   0.099  12.992  0.8540 -1.5202 -0.7760
17559TIP3    H274169   1.271   0.173  12.939 -0.3271  0.9765 -0.0579
17560TIP3   OH274170   4.291   5.626   4.809 -0.0781 -0.1549  0.2920
17560TIP3    H174171   4.269   5.591   4.895 -0.2385  0.5342  0.5336
17560TIP3    H274172   4.343   5.704   4.827 -1.4585  0.8930 -0.2133
17561TIP3   OH274173   0.094   0.668   0.200  0.0873 -0.2991 -0.3840
17561TIP3    H174174   0.143   0.619   0.265 -0.0975 -0.5090 -0.4023
17561TIP3    H274175   0.007   0.679   0.239 -0.3620 -1.3780 -1.0597
17562TIP3   OH274176   2.380   1.619  15.404  0.0499  0.0584 -0.5245
17562TIP3    H174177   2.325   1.661  15.471 -0.4798 -1.7892  0.2336
17562TIP3    H274178   2.468   1.651  15.422 -0.1239 -0.2279  0.9192
17563TIP3   OH274179   5.351   3.605  11.498  0.3469 -1.2295 -0.5001
17563TIP3    H174180   5.409   3.647  11.562 -0.3613 -1.5896  0.4061
17563TIP3    H274181   5.331   3.674  11.435  0.1488 -0.5347  0.3065
17564TIP3   OH274182   4.690   3.573  14.705  0.0947  0.5050  0.7101
17564TIP3    H174183   4.600   3.578  14.672  0.0686 -1.5729  0.3649
17564TIP3    H274184   4.683   3.517  14.783  1.4787 -2.0507 -0.9289
17565TIP3   OH274185   3.826   4.534  14.538  0.0890  0.2288 -0.3055
17565TIP3    H174186   3.801   4.551  14.447 -1.6163 -0.8432 -0.0774
17565TIP3    H274187   3.879   4.455  14.533 -2.0969 -1.3069 -0.1604
17566TIP3   OH274188   2.651   1.616   2.018  0.1639 -0.4106  0.2611
17566TIP3    H174189   2.586   1.613   2.089  1.5335 -0.1143  1.5442
17566TIP3    H274190   2.735   1.628   2.062  0.8477  1.6242 -1.5308
17567TIP3   OH274191   3.619   5.879   3.609  0.1041  0.0927 -0.2588
17567TIP3    H174192   3.568   5.847   3.684 -0.8623  0.4748 -0.7434
17567TIP3    H274193   3.691   5.929   3.648  0.2632 -0.6676  0.4385
17568TIP3   OH274194   6.313   6.596  12.782  0.2020  0.5449  0.0478
17568TIP3    H174195   6.405   6.593  12.807 -0.0299 -0.4631  0.8133
17568TIP3    H274196   6.267   6.554  12.855 -0.8200  0.6661 -0.5154
17569TIP3   OH274197   1.255   1.162   5.952 -0.8745 -0.3078  0.3742
17569TIP3    H174198   1.270   1.126   5.864  0.3022 -2.4760  1.4194
17569TIP3    H274199   1.295   1.098   6.011 -3.4020  0.0928  2.6158
17570TIP3   OH274200   4.855   0.948  12.433  0.0539 -1.0492  0.2244
17570TIP3    H174201   4.867   0.867  12.483 -0.9564 -2.3958 -1.6733
17570TIP3    H274202   4.815   1.008  12.496  0.1491 -2.2541  1.4674
17571TIP3   OH274203   5.011   1.756  11.432 -0.1681  0.4689  0.0261
17571TIP3    H174204   4.996   1.787  11.343 -0.3971 -1.2148 -0.5411
17571TIP3    H274205   4.939   1.696  11.449  0.5458 -0.1593  0.8910
17572TIP3   OH274206   3.067   0.158   1.150  0.4403 -0.6530  0.4755
17572TIP3    H174207   3.108   0.239   1.121  1.4027 -0.9840  0.8915
17572TIP3    H274208   3.033   0.178   1.237 -0.1131 -0.4373  0.2118
17573TIP3   OH274209   0.935   5.427  12.741  0.1720  0.5863  0.6071
17573TIP3    H174210   1.013   5.417  12.686  1.5646  0.5813  2.5263
17573TIP3    H274211   0.913   5.337  12.767  0.3233  0.6926  1.1174
17574TIP3   OH274212   2.297   3.326  10.831  0.4660 -0.8484 -0.6735
17574TIP3    H174213   2.211   3.314  10.791 -1.0075  1.3346  1.6909
17574TIP3    H274214   2.318   3.240  10.868 -1.6396 -0.9078  0.4507
17575TIP3   OH274215   0.506   6.326   3.915 -0.0502 -0.4785  1.0625
17575TIP3    H174216   0.567   6.257   3.889  0.3877  0.7216 -1.2396
17575TIP3    H274217   0.561   6.399   3.942 -0.4014  0.6005 -1.0062
17576TIP3   OH274218   4.927   2.568   4.474 -0.3547 -0.8840  0.0613
17576TIP3    H174219   4.947   2.634   4.408 -1.4983  0.4878  1.0501
17576TIP3    H274220   4.867   2.612   4.535 -0.8629 -2.7213  0.9341
17577TIP3   OH274221   0.693   6.468   0.962  0.3384  0.7626 -0.3310
17577TIP3    H174222   0.722   6.428   1.044 -0.2716  1.1758  0.0885
17577TIP3    H274223   0.741   6.420   0.894 -0.5641 -0.8474  0.1516
17578TIP3   OH274224   3.513   4.468   4.274  0.6132 -0.1547 -0.0065
17578TIP3    H174225   3.594   4.510   4.245  0.8903 -0.9871 -0.4719
17578TIP3    H274226   3.464   4.453   4.193  0.2923 -0.2542  0.2062
17579TIP3   OH274227   0.791   5.681   2.757  0.2575  0.0660 -0.2684
17579TIP3    H174228   0.877   5.697   2.718  0.6081  1.0240  0.8516
17579TIP3    H274229   0.732   5.674   2.683  0.9088  1.8023 -0.9698
17580TIP3   OH274230   0.859   5.324   0.179 -0.5253  0.1277 -0.0152
17580TIP3    H174231   0.918   5.291   0.111 -1.2960 -0.2799 -0.4980
17580TIP3    H274232   0.821   5.404   0.141 -0.7720  0.0347  0.0332
17581TIP3   OH274233   6.038   4.043  11.112  0.2781  0.3296  0.0952
17581TIP3    H174234   6.121   4.035  11.157  0.3023 -1.2462 -0.2124
17581TIP3    H274235   6.044   3.982  11.038 -0.4824  1.4643 -0.9354
17582TIP3   OH274236   5.331   3.700  15.569 -0.0801  0.1689  0.1637
17582TIP3    H174237   5.385   3.737  15.498  1.0197 -0.5937  0.5999
17582TIP3    H274238   5.394   3.673  15.636 -1.0258 -0.4396  0.8171
17583TIP3   OH274239   4.158   1.158   5.655 -0.1621  0.3174  0.2876
17583TIP3    H174240   4.223   1.124   5.717 -0.2061 -3.5983 -1.6782
17583TIP3    H274241   4.086   1.189   5.710  1.0030 -0.4408  2.2679
17584TIP3   OH274242   4.276   3.414  11.692  0.1072 -0.1172 -0.0679
17584TIP3    H174243   4.296   3.359  11.616  1.7225 -0.2544  0.4251
17584TIP3    H274244   4.185   3.394  11.714  0.4997 -2.1509 -0.2602
17585TIP3   OH274245   6.262   5.143   1.683 -0.0165 -0.5436  0.9072
17585TIP3    H174246   6.209   5.063   1.672 -2.1677  0.9095  0.4518
17585TIP3    H274247   6.221   5.189   1.756  0.4288  0.7464  0.3513
17586TIP3   OH274248   2.430   2.865   1.669 -0.3805 -0.0645  0.1219
17586TIP3    H174249   2.407   2.790   1.615 -0.9491 -0.3872  0.8127
17586TIP3    H274250   2.405   2.941   1.616 -0.5473 -0.3663 -0.2372
17587TIP3   OH274251   2.709   3.038  14.434  0.2909  0.6301 -0.5889
17587TIP3    H174252   2.636   3.068  14.489  0.3238  0.0856 -0.2496
17587TIP3    H274253   2.692   3.078  14.349 -0.8213 -0.1206 -0.7313
17588TIP3   OH274254   2.387   3.946   2.385  0.0522 -0.1024 -0.0818
17588TIP3    H174255   2.412   3.931   2.293 -1.0640  1.7488 -0.7208
17588TIP3    H274256   2.328   3.874   2.405  1.2272 -1.1817 -0.4359
17589TIP3   OH274257   5.332   5.911  15.322 -0.5248 -0.2887 -0.2938
17589TIP3    H174258   5.318   6.004  15.301  1.8223  0.6759  2.0470
17589TIP3    H274259   5.244   5.874  15.329 -1.4992  1.7703 -1.1872
17590TIP3   OH274260   3.839   5.085   4.023 -0.2055  0.1427  0.3490
17590TIP3    H174261   3.913   5.080   3.963 -1.8291  0.4563 -1.7670
17590TIP3    H274262   3.878   5.099   4.109  2.2225 -1.0638 -0.5232
17591TIP3   OH274263   4.390   6.441   4.262  0.2176  0.3520 -0.7453
17591TIP3    H174264   4.420   6.529   4.238  0.0586  1.2298  2.0006
17591TIP3    H274265   4.296   6.443   4.245  0.2632  0.6264 -0.9735
17592TIP3   OH274266   1.133   6.477  12.661  0.1920  0.5900  0.1600
17592TIP3    H174267   1.128   6.538  12.734 -0.7706 -1.7347  2.1030
17592TIP3    H274268   1.197   6.516  12.602  0.0384  3.1648  1.6090
17593TIP3   OH274269   6.147   3.573   4.704 -0.1649 -0.4129 -0.5171
17593TIP3    H174270   6.239   3.552   4.717 -0.0348 -0.3263 -1.2722
17593TIP3    H274271   6.148   3.643   4.638 -0.6696  0.7705  0.7053
17594TIP3   OH274272   0.822   4.586   5.410  0.2237  0.1963  0.0575
17594TIP3    H174273   0.752   4.652   5.401 -0.2850 -0.2289  0.8081
17594TIP3    H274274   0.902   4.637   5.417 -0.1300  0.7311  0.2583
17595TIP3   OH274275   6.382   4.132  15.920  0.6977  0.2528  0.1888
17595TIP3    H174276   6.392   4.184  15.839  0.9038  0.2892  0.2381
17595TIP3    H274277   6.452   4.067  15.915  0.1792 -0.2821 -0.0717
17596TIP3   OH274278   2.053   2.836   5.735  0.2236 -0.3086  0.2826
17596TIP3    H174279   1.979   2.885   5.770  0.6551 -0.4938  1.4938
17596TIP3    H274280   2.130   2.889   5.756  0.4160  0.0679 -1.3019
17597TIP3   OH274281   6.801   2.186   1.390  0.4492 -0.0249 -0.2830
17597TIP3    H174282   6.771   2.215   1.476  3.2626  1.2188  0.3272
17597TIP3    H274283   6.738   2.118   1.364 -0.6567 -0.1398  2.5724
17598TIP3   OH274284   5.890   4.614  12.222  0.2823 -0.0448  0.4768
17598TIP3    H174285   5.887   4.523  12.192 -1.0468 -0.3766  1.5625
17598TIP3    H274286   5.941   4.611  12.303 -0.1899  0.0954  0.7817
17599TIP3   OH274287   5.402   6.333  12.326 -0.3550 -0.3207  0.2151
17599TIP3    H174288   5.380   6.287  12.407 -1.7194 -1.0411 -0.5407
17599TIP3    H274289   5.497   6.327  12.320 -0.2415 -0.2332  1.7799
17600TIP3   OH274290   1.309   2.973   0.163  0.7269 -0.0827 -0.2122
17600TIP3    H174291   1.229   2.998   0.116  0.7585 -1.1279 -0.8396
17600TIP3    H274292   1.363   2.930   0.097  2.4211  1.8511 -0.1225
17601TIP3   OH274293   5.433   5.698   3.282 -0.4704  0.4663 -0.1522
17601TIP3    H174294   5.429   5.794   3.285  1.6298  0.5415  3.4917
17601TIP3    H274295   5.363   5.670   3.340  0.1010 -0.1378  0.2545
17602TIP3   OH274296   4.651   2.513   4.982 -0.1453  0.2862 -1.5036
17602TIP3    H174297   4.643   2.426   4.944  0.9281 -0.2457 -0.5002
17602TIP3    H274298   4.657   2.572   4.906  0.5935 -0.6384 -2.1598
17603TIP3   OH274299   2.716   1.802   5.334 -0.4915 -0.1268 -0.1091
17603TIP3    H174300   2.808   1.787   5.353 -0.1809  0.3703 -1.1662
17603TIP3    H274301   2.674   1.809   5.419  0.5192  0.0716  0.3744
17604TIP3   OH274302   5.481   1.470   1.655 -0.5842 -0.0597 -0.0385
17604TIP3    H174303   5.530   1.528   1.713  0.2103 -0.0326 -0.7265
17604TIP3    H274304   5.547   1.409   1.622 -1.1020 -0.3077 -0.6199
17605TIP3   OH274305   5.608   2.480   6.168  0.2397  0.3063 -0.4034
17605TIP3    H174306   5.529   2.517   6.207 -0.9030 -2.0786 -0.3392
17605TIP3    H274307   5.587   2.472   6.075  0.7546  0.5207 -0.5379
17606TIP3   OH274308   4.554   4.304   4.914 -0.0440 -0.2446 -0.3301
17606TIP3    H174309   4.627   4.360   4.892 -0.9413  0.9213 -0.3847
17606TIP3    H274310   4.521   4.337   4.998  0.2555 -1.5393  0.3215
17607TIP3   OH274311   4.187   3.858   3.589  0.0377  0.3923  0.1945
17607TIP3    H174312   4.238   3.937   3.574  1.6016 -0.5301  0.5302
17607TIP3    H274313   4.140   3.844   3.507  2.6345 -0.3812 -1.2098
17608TIP3   OH274314   2.462   5.717   0.455 -0.1368 -0.6529 -0.0765
17608TIP3    H174315   2.477   5.795   0.401  0.0426 -1.3080 -0.9804
17608TIP3    H274316   2.515   5.732   0.533 -0.8163  0.5494  0.1662
17609TIP3   OH274317   4.408   5.377  12.607 -0.3341 -0.4444 -0.1199
17609TIP3    H174318   4.424   5.286  12.583 -1.7076 -0.5648 -0.6303
17609TIP3    H274319   4.419   5.380  12.702  1.4165 -0.7730 -0.3057
17610TIP3   OH274320   5.561   0.542   1.345 -0.4982 -0.3594 -0.1097
17610TIP3    H174321   5.597   0.508   1.427 -2.2722 -1.5865  0.1803
17610TIP3    H274322   5.476   0.578   1.369  0.3680  2.2719 -0.8427
17611TIP3   OH274323   5.248   2.681   0.170  0.3826  0.1838 -0.5034
17611TIP3    H174324   5.265   2.757   0.227 -0.3627  2.0401 -2.6641
17611TIP3    H274325   5.317   2.619   0.192  1.2345  1.6166  1.0739
17612TIP3   OH274326   3.688   2.506  16.240 -0.0648 -0.3512  1.3607
17612TIP3    H174327   3.670   2.584  16.293  0.2978 -0.7605  2.0938
17612TIP3    H274328   3.601   2.474  16.215 -0.1838  0.9126  0.1446
17613TIP3   OH274329   4.815   4.123   5.235 -0.5908 -0.4093 -0.5472
17613TIP3    H174330   4.882   4.190   5.240  0.5178 -1.6161  1.3142
17613TIP3    H274331   4.806   4.105   5.142  2.8104 -1.3171 -0.7651
17614TIP3   OH274332   1.276   0.505  16.279 -0.1228 -0.4352  0.1748
17614TIP3    H174333   1.240   0.547  16.356  0.9202 -0.7335  0.8313
17614TIP3    H274334   1.205   0.447  16.248 -0.8073  0.2516  0.4559
17615TIP3   OH274335   2.967   1.694   5.437 -0.2772 -0.1282 -0.2326
17615TIP3    H174336   3.031   1.639   5.391 -0.6404 -0.8826  0.1667
17615TIP3    H274337   2.978   1.672   5.530  0.2193  1.1459  0.0245
17616TIP3   OH274338   4.053   1.594  13.844 -0.0253 -0.0298  0.0501
17616TIP3    H174339   4.070   1.683  13.873 -4.7264  0.8315  0.5644
17616TIP3    H274340   4.073   1.595  13.750  4.0869  0.3048  0.8452
17617TIP3   OH274341   3.516   4.233   4.446 -0.5215  0.7855 -0.4548
17617TIP3    H174342   3.513   4.326   4.421  0.4168  0.8184 -0.4379
17617TIP3    H274343   3.602   4.203   4.419 -0.2072  0.3287  1.0082
17618TIP3   OH274344   3.669   4.365  11.018  0.5219 -0.3152  0.2216
17618TIP3    H174345   3.629   4.290  11.061 -2.1765  0.5564 -0.6501
17618TIP3    H274346   3.614   4.439  11.042  0.3123  0.5764 -2.7461
17619TIP3   OH274347   1.370   0.403  14.811  0.1508 -0.1315  0.6414
17619TIP3    H174348   1.394   0.317  14.846  0.4315 -0.1087  0.5020
17619TIP3    H274349   1.445   0.430  14.759  0.6383  0.8461  1.8439
17620TIP3   OH274350   4.212   6.567   2.874  0.2210 -0.3732  0.1455
17620TIP3    H174351   4.121   6.557   2.902 -0.1694 -0.8494 -1.2471
17620TIP3    H274352   4.215   6.653   2.833  0.5920 -0.0321  0.8786
17621TIP3   OH274353   2.054   5.073   1.591 -0.3182  0.3045 -0.6383
17621TIP3    H174354   2.098   5.146   1.546 -0.8638 -0.5895 -2.7155
17621TIP3    H274355   1.994   5.115   1.651 -0.9783  1.6079 -2.1586
17622TIP3   OH274356   0.140   4.765   0.652  0.5181 -0.1555 -0.3679
17622TIP3    H174357   0.205   4.711   0.608  0.4041 -0.5728 -0.0231
17622TIP3    H274358   0.158   4.854   0.621  1.0931 -0.3045 -0.4674
17623TIP3   OH274359   6.121   1.298   5.317  0.6198  0.1827 -0.2675
17623TIP3    H174360   6.204   1.251   5.330  2.0731  3.0534  1.5091
17623TIP3    H274361   6.113   1.307   5.222  2.9442  0.8075 -0.4428
17624TIP3   OH274362   2.991   4.881   0.461 -0.0777 -0.3360 -0.6046
17624TIP3    H174363   2.979   4.878   0.556  0.2783  0.1878 -0.5429
17624TIP3    H274364   3.005   4.974   0.442 -1.1716 -0.3089 -1.2926
17625TIP3   OH274365   4.764   3.051  14.907 -0.4115  0.7238  0.5258
17625TIP3    H174366   4.730   2.975  14.954 -1.1212  2.4332  2.9095
17625TIP3    H274367   4.687   3.092  14.867 -0.3542  1.3640  1.0523
17626TIP3   OH274368   4.507   0.214  16.644  0.0217 -0.5648 -0.2333
17626TIP3    H174369   4.553   0.138  16.677 -0.5488 -0.4828  0.7811
17626TIP3    H274370   4.496   0.271  16.721 -1.9801 -0.7008 -0.3978
17627TIP3   OH274371   6.417   0.978   2.179 -0.3343 -0.7490 -0.6653
17627TIP3    H174372   6.412   0.989   2.274 -1.1812 -0.7451 -0.7036
17627TIP3    H274373   6.401   0.885   2.164  1.5215 -1.0852 -0.6999
17628TIP3   OH274374   5.903   1.959   6.213  0.6924  0.5963 -0.3224
17628TIP3    H174375   5.886   2.023   6.144 -0.1621  1.4075  0.6350
17628TIP3    H274376   5.858   1.880   6.184  0.6050  0.8410 -0.8508
17629TIP3   OH274377   2.225   0.395   1.105 -0.1281  0.2063 -0.1451
17629TIP3    H174378   2.262   0.374   1.191 -0.8915  1.2364  0.4431
17629TIP3    H274379   2.235   0.314   1.055 -1.7084 -1.1407  1.6216
17630TIP3   OH274380   1.125   4.668   1.001  0.1966  0.7326  0.5602
17630TIP3    H174381   1.112   4.687   0.908 -0.7183  0.3730  0.6084
17630TIP3    H274382   1.216   4.639   1.007 -0.2854 -1.0678 -0.5311
17631TIP3   OH274383   3.230   5.297   1.800 -0.3341 -0.8918 -0.8632
17631TIP3    H174384   3.241   5.318   1.707  0.3435  0.9365 -0.4021
17631TIP3    H274385   3.221   5.383   1.843  0.3273 -1.6600  0.8662
17632TIP3   OH274386   5.467   5.149  17.170  1.0612 -0.2982 -0.0511
17632TIP3    H174387   5.522   5.174  17.245 -0.1375 -0.0954  0.7774
17632TIP3    H274388   5.379   5.140  17.207  0.5591 -0.7550 -1.3356
17633TIP3   OH274389   1.896   2.478   5.691  0.2543  0.2576  0.1709
17633TIP3    H174390   1.835   2.523   5.632  1.4195  0.1930 -1.0951
17633TIP3    H274391   1.894   2.531   5.771  1.0931  2.2255 -1.0563
17634TIP3   OH274392   6.272   0.646  12.565 -0.4538  0.0269 -0.0725
17634TIP3    H174393   6.362   0.663  12.592 -0.6291  0.3173  0.3289
17634TIP3    H274394   6.258   0.705  12.491 -1.2736  2.1398  1.7198
17635TIP3   OH274395   4.613   0.654  12.272  0.0006 -0.0540 -0.2630
17635TIP3    H174396   4.628   0.589  12.340  0.1170 -0.3054 -0.5317
17635TIP3    H274397   4.555   0.718  12.313  0.6876  0.1991  0.3279
17636TIP3   OH274398   5.351   4.010   0.573 -0.3522 -0.0393  0.0571
17636TIP3    H174399   5.269   3.998   0.524 -0.7255  2.1729  0.1152
17636TIP3    H274400   5.380   4.098   0.551  2.6041 -1.1574 -0.7870
17637TIP3   OH274401   2.689   1.647  14.911  0.2930  0.3185 -0.6938
17637TIP3    H174402   2.729   1.647  14.998 -0.9530  1.5144 -0.0890
17637TIP3    H274403   2.596   1.659  14.928 -0.0610 -0.2011 -2.1734
17638TIP3   OH274404   4.737   5.725   2.114 -0.1402 -0.1997  0.5291
17638TIP3    H174405   4.818   5.679   2.093  0.4594  1.2821 -0.4720
17638TIP3    H274406   4.742   5.808   2.066 -2.2928 -0.1198  0.3684
17639TIP3   OH274407   2.054   2.565   6.018  0.2122  0.5193  0.5488
17639TIP3    H174408   2.057   2.654   6.051 -0.2873 -0.0635  2.2077
17639TIP3    H274409   2.097   2.569   5.933  0.1006  2.3537  0.5721
17640TIP3   OH274410   6.719   2.927  15.299 -0.1502  0.4245 -0.0418
17640TIP3    H174411   6.736   2.996  15.235  2.2139  0.0318  0.1493
17640TIP3    H274412   6.773   2.853  15.271  0.2837 -0.0369  1.9194
17641TIP3   OH274413   3.276   3.151  15.903  0.4236 -0.0158 -0.5680
17641TIP3    H174414   3.255   3.242  15.924 -0.0646 -0.4775  0.9650
17641TIP3    H274415   3.228   3.133  15.822 -1.9691  0.1292  0.7986
17642TIP3   OH274416   3.655   0.398   0.501  0.6453 -0.5215  0.1200
17642TIP3    H174417   3.740   0.442   0.512  2.3294 -3.0850 -2.0530
17642TIP3    H274418   3.642   0.394   0.406 -0.8422 -2.1361  0.3630
17643TIP3   OH274419   0.417   5.236   0.452 -1.0642  0.5297  0.0841
17643TIP3    H174420   0.354   5.306   0.437  0.4627  1.8182 -0.3476
17643TIP3    H274421   0.432   5.198   0.366 -2.2320 -0.6524  0.3822
17644TIP3   OH274422   4.620   2.684  16.431 -0.4982  0.2981  0.1168
17644TIP3    H174423   4.610   2.732  16.513 -1.2881  0.6777 -0.1875
17644TIP3    H274424   4.530   2.670  16.401 -0.2669 -1.3283  0.1685
17645TIP3   OH274425   6.294   3.987   4.020  0.0067  0.1163 -0.1780
17645TIP3    H174426   6.226   3.971   3.954  0.0749 -1.6036  0.1334
17645TIP3    H274427   6.245   3.998   4.102  0.0486 -0.1188 -0.1213
17646TIP3   OH274428   1.179   4.588   0.034  0.0686  0.1598  0.6018
17646TIP3    H174429   1.200   4.566  -0.057 -0.4584 -0.7485  0.6994
17646TIP3    H274430   1.085   4.606   0.033 -0.1622 -1.0098  1.1946
17647TIP3   OH274431   0.551   6.599  12.658 -0.0206 -0.2736  0.0344
17647TIP3    H174432   0.609   6.617  12.731 -0.4220 -1.0312  0.5506
17647TIP3    H274433   0.541   6.683  12.613 -0.6072  0.4254  1.4525
17648TIP3   OH274434   4.557   0.435   3.878  1.0994  0.1527  0.0672
17648TIP3    H174435   4.612   0.413   3.802  2.1531  0.5210  0.7157
17648TIP3    H274436   4.488   0.369   3.876  1.2518  0.0030 -1.0715
17649TIP3   OH274437   0.011   2.192   0.342 -0.5281 -0.3066  0.4457
17649TIP3    H174438  -0.042   2.191   0.421  1.9148  1.2842  2.1528
17649TIP3    H274439   0.021   2.099   0.319 -2.1261 -0.7219  1.3839
17650TIP3   OH274440   3.150   5.046  15.895  0.2193  0.0922 -0.2222
17650TIP3    H174441   3.097   5.076  15.970 -0.9597  0.7373 -1.2988
17650TIP3    H274442   3.097   5.067  15.818  1.3995 -0.6195 -1.2494
17651TIP3   OH274443   5.172   3.911   3.797 -0.1048 -0.4030 -0.2399
17651TIP3    H174444   5.141   3.952   3.878 -2.5805  0.7989 -1.7539
17651TIP3    H274445   5.192   3.984   3.739  0.1721 -1.2846 -1.2738
17652TIP3   OH274446   1.425   4.556  12.661  0.3571  0.0935  0.1992
17652TIP3    H174447   1.361   4.593  12.721 -0.4402 -0.6023 -0.1976
17652TIP3    H274448   1.449   4.628  12.603 -0.0315  0.3750  0.3868
17653TIP3   OH274449   4.005   3.003   5.681  0.5216  0.4057 -0.8069
17653TIP3    H174450   4.070   3.035   5.743 -0.3493  0.0142  0.3112
17653TIP3    H274451   3.983   3.080   5.628  0.0793  1.1360  0.4202
17654TIP3   OH274452   6.477   0.947  16.180  0.0635  0.0939 -0.0328
17654TIP3    H174453   6.563   0.909  16.161  0.1301 -0.6261  1.5939
17654TIP3    H274454   6.493   1.041  16.188  0.5396  0.0641 -0.5895
17655TIP3   OH274455   2.183   0.980  10.607  0.7313 -0.0929 -0.5678
17655TIP3    H174456   2.246   0.964  10.676  0.5252 -0.2197 -0.4077
17655TIP3    H274457   2.228   0.956  10.526  1.7473  2.1699 -0.7129
17656TIP3   OH274458   3.534   5.842   0.129  0.4997 -0.1289 -0.1521
17656TIP3    H174459   3.536   5.899   0.052  0.7826  0.9422  0.6355
17656TIP3    H274460   3.535   5.902   0.203 -0.1040 -1.1370  0.6949
17657TIP3   OH274461   1.785   5.809   2.731  0.1732 -0.1267 -0.3506
17657TIP3    H174462   1.746   5.791   2.645  0.0835 -0.1331 -0.3088
17657TIP3    H274463   1.759   5.899   2.751  0.4882 -0.0077 -0.4874
17658TIP3   OH274464   1.572   3.144   0.047 -0.2038 -0.1765 -0.0976
17658TIP3    H174465   1.573   3.091  -0.033  1.0729 -1.4096  0.7194
17658TIP3    H274466   1.480   3.150   0.071 -0.5475 -0.2046 -1.3846
17659TIP3   OH274467   5.303   1.230  14.710 -0.7127 -0.1578  0.4789
17659TIP3    H174468   5.231   1.262  14.656 -0.8667 -0.2704  0.6179
17659TIP3    H274469   5.376   1.219  14.649 -1.3082 -1.7252  0.0277
17660TIP3   OH274470   2.737   1.376  14.089 -0.0996 -0.5328  0.3081
17660TIP3    H174471   2.779   1.367  14.175  1.1500 -2.5578 -0.4675
17660TIP3    H274472   2.686   1.457  14.095  0.0727 -0.5792  2.9104
17661TIP3   OH274473   4.965   3.252  14.915 -0.3997 -0.4240 -0.0690
17661TIP3    H174474   5.043   3.212  14.954  0.0286  2.2514  2.0058
17661TIP3    H274475   4.894   3.190  14.935  0.5572 -1.0946  1.3793
17662TIP3   OH274476   5.350   5.221  14.235  0.2498 -0.2726 -0.2962
17662TIP3    H174477   5.294   5.274  14.178  0.6021  0.1169 -0.2750
17662TIP3    H274478   5.301   5.139  14.247 -0.4168  0.1468 -0.1098
17663TIP3   OH274479   4.650   3.475  16.059  0.0135  0.5537  0.8448
17663TIP3    H174480   4.590   3.419  16.108 -0.2120  1.7634  1.9719
17663TIP3    H274481   4.601   3.556  16.045 -0.0412  0.1440 -1.6513
17664TIP3   OH274482   3.501   5.533   1.992  0.2566 -0.0655 -0.8429
17664TIP3    H174483   3.440   5.559   1.923 -1.2039  0.9448  0.7767
17664TIP3    H274484   3.451   5.474   2.047  0.3730  1.6268  1.1196
17665TIP3   OH274485   6.361   1.961  13.162  0.5955  0.6791  0.5737
17665TIP3    H174486   6.383   1.874  13.126 -0.4046  0.6019  0.1410
17665TIP3    H274487   6.383   1.954  13.255 -1.2159 -0.6562  0.9404
17666TIP3   OH274488   3.269   1.787   5.156  0.3261 -0.0282 -0.0233
17666TIP3    H174489   3.197   1.842   5.126  1.1094  0.4112 -1.1249
17666TIP3    H274490   3.321   1.845   5.213 -0.2345 -0.3731  0.8503
17667TIP3   OH274491   2.831   1.210   2.181 -0.6422 -0.1080 -0.2109
17667TIP3    H174492   2.860   1.125   2.213 -3.3947 -0.2687  2.0402
17667TIP3    H274493   2.839   1.204   2.086  1.5796 -1.9615  0.0572
17668TIP3   OH274494   2.784   4.105  13.871  0.4192  0.6326 -0.1109
17668TIP3    H174495   2.711   4.165  13.853  0.1718  0.2546 -0.3691
17668TIP3    H274496   2.793   4.107  13.967 -1.2719 -0.8650  0.1109
17669TIP3   OH274497   4.815   5.055   1.325  0.0920  0.5291 -0.6241
17669TIP3    H174498   4.778   4.972   1.356 -1.0945  0.5303 -1.9454
17669TIP3    H274499   4.909   5.040   1.320 -0.0313 -0.4588 -0.0018
17670TIP3   OH274500   2.643   3.260  13.571  0.1671  0.6647  0.3028
17670TIP3    H174501   2.553   3.231  13.553 -0.0520  1.1253  0.6332
17670TIP3    H274502   2.668   3.210  13.649 -0.3711  1.6842  1.1339
17671TIP3   OH274503   4.071   4.481   5.372  0.2391 -0.8720  0.2520
17671TIP3    H174504   4.060   4.502   5.464  0.8606 -0.5477  0.2509
17671TIP3    H274505   3.982   4.462   5.341 -0.0600 -0.2669  0.7396
17672TIP3   OH274506   0.650   3.931   5.648  0.0194  0.4842 -0.0645
17672TIP3    H174507   0.591   3.856   5.636 -1.5663  1.1662  2.9323
17672TIP3    H274508   0.736   3.899   5.619 -1.6701 -0.5981 -4.3642
17673TIP3   OH274509   5.982   6.222   1.399 -0.1420 -0.0467  0.0983
17673TIP3    H174510   6.059   6.220   1.455 -0.1791  0.0635  0.1539
17673TIP3    H274511   5.946   6.133   1.404 -0.2836  0.0284  0.4444
17674TIP3   OH274512   3.523   4.538   0.329  0.0592  0.2174  0.3007
17674TIP3    H174513   3.468   4.496   0.395  2.1206 -1.8333  0.8191
17674TIP3    H274514   3.499   4.630   0.331 -3.1838 -0.5873  0.6055
17675TIP3   OH274515   6.235   0.088   3.630  0.8335 -0.5241 -0.6401
17675TIP3    H174516   6.220   0.067   3.538 -0.1262  0.5599 -0.7413
17675TIP3    H274517   6.162   0.146   3.654  2.6382  1.5725 -0.0108
17676TIP3   OH274518   6.752   1.683   0.358 -0.1932  0.4986  0.5253
17676TIP3    H174519   6.668   1.692   0.403  0.7002 -0.5279  2.4710
17676TIP3    H274520   6.729   1.647   0.272 -1.7716  0.5527  0.9073
17677TIP3   OH274521   4.624   5.521  11.756  0.3161  0.0908 -0.5922
17677TIP3    H174522   4.701   5.540  11.701  1.1201 -1.8482 -0.1730
17677TIP3    H274523   4.579   5.451  11.710 -0.1734 -0.0709  0.1316
17678TIP3   OH274524   2.832   1.942  16.263  0.3080 -0.5029 -0.5571
17678TIP3    H174525   2.908   1.914  16.213  0.9423 -0.5827  0.4329
17678TIP3    H274526   2.830   1.884  16.339  1.0927  1.4977  1.0515
17679TIP3   OH274527   0.132   2.847  12.160  0.3547  0.0770  0.6093
17679TIP3    H174528   0.053   2.818  12.204 -0.2142  0.3203 -0.2545
17679TIP3    H274529   0.202   2.830  12.224 -0.5350  1.0214  1.8583
17680TIP3   OH274530   3.388   1.040   2.151  0.4054 -0.2081 -0.2625
17680TIP3    H174531   3.478   1.067   2.133  0.4248  0.2385  0.4962
17680TIP3    H274532   3.372   0.967   2.091  1.4245 -0.5940 -0.0655
17681TIP3   OH274533   3.976   2.248  14.245  0.0386 -0.1628 -0.4161
17681TIP3    H174534   3.917   2.252  14.170  0.0697  0.1053 -0.4247
17681TIP3    H274535   3.931   2.191  14.308 -0.0186 -0.3299 -0.6094
17682TIP3   OH274536   2.988   3.725   4.117 -0.4654 -0.1841 -0.2509
17682TIP3    H174537   2.915   3.701   4.059 -3.1522  1.1703  2.4092
17682TIP3    H274538   3.037   3.791   4.068 -2.2560  0.3905 -1.3213
17683TIP3   OH274539   0.319   1.094  16.235 -0.0794  0.1079  0.3547
17683TIP3    H174540   0.367   1.026  16.189 -0.0826 -0.7154  1.5467
17683TIP3    H274541   0.293   1.156  16.167  0.9291 -0.4773 -0.5768
17684TIP3   OH274542   3.109   1.982  15.762 -0.1464 -0.2205 -0.6835
17684TIP3    H174543   3.028   1.958  15.808 -1.2861  1.3372 -1.8003
17684TIP3    H274544   3.153   1.899  15.745 -1.1331 -1.0337  0.6164
17685TIP3   OH274545   3.706   5.411  14.878 -0.1451 -0.1663  0.3133
17685TIP3    H174546   3.667   5.428  14.963  0.0633  0.2910  0.3181
17685TIP3    H274547   3.734   5.319  14.883 -1.1626 -0.4793  0.3213
17686TIP3   OH274548   0.982   2.305   5.599  0.0931  0.4997  0.2867
17686TIP3    H174549   0.891   2.287   5.624  0.6236 -0.5130  1.5268
17686TIP3    H274550   1.015   2.363   5.667  0.7713 -0.1953  0.5553
17687TIP3   OH274551   5.154   2.630  15.889  0.0998 -0.5351 -0.3633
17687TIP3    H174552   5.194   2.623  15.976 -0.0861 -0.5431 -0.2776
17687TIP3    H274553   5.226   2.653  15.831  0.1015  0.1433 -0.0958
17688TIP3   OH274554   4.465   4.163  15.433  0.3324  0.3706  0.3556
17688TIP3    H174555   4.505   4.078  15.412  0.8441  0.2792  1.6056
17688TIP3    H274556   4.516   4.195  15.507 -0.4860  1.3208  0.5166
17689TIP3   OH274557   6.603   4.959   4.461  0.1788 -0.0159 -0.1287
17689TIP3    H174558   6.600   4.984   4.554  0.1722 -1.7703  0.3595
17689TIP3    H274559   6.689   4.918   4.451  1.0842  2.1285 -1.4328
17690TIP3   OH274560   4.414   1.655   3.042  0.2518 -0.1341  0.4970
17690TIP3    H174561   4.319   1.650   3.038  0.2855 -0.3937  0.0031
17690TIP3    H274562   4.437   1.734   2.995  0.2720  0.0247  0.7698
17691TIP3   OH274563   0.815   4.123   0.813  0.0261  0.1177  0.1934
17691TIP3    H174564   0.815   4.105   0.718  0.6887  0.7105  0.0768
17691TIP3    H274565   0.735   4.173   0.828  1.1067  2.0927 -0.4660
17692TIP3   OH274566   1.344   4.917   4.289 -0.8432 -0.3877  0.0452
17692TIP3    H174567   1.258   4.887   4.317 -1.0826  0.5775  0.3889
17692TIP3    H274568   1.356   5.001   4.335 -0.2874  0.1301 -1.0210
17693TIP3   OH274569   3.922   0.016   3.922  0.1904 -0.3461  0.2760
17693TIP3    H174570   3.832  -0.017   3.924 -0.1028  0.4359  0.2470
17693TIP3    H274571   3.925   0.078   3.995  0.9328 -0.9333  0.7544
17694TIP3   OH274572   0.523   4.133  16.030  0.3271 -0.0572  0.1920
17694TIP3    H174573   0.501   4.187  15.954 -0.8436  0.2117  0.7225
17694TIP3    H274574   0.442   4.127  16.080  0.7162 -1.4525  0.6760
17695TIP3   OH274575   3.585   4.818  16.006  0.4299 -0.0062 -0.3505
17695TIP3    H174576   3.644   4.887  16.037  0.8710 -0.2039 -0.7350
17695TIP3    H274577   3.587   4.752  16.076  0.5243  0.0745 -0.2750
17696TIP3   OH274578   0.421   5.524  11.069 -0.0615 -0.0001  0.9361
17696TIP3    H174579   0.375   5.585  11.011  0.5200 -1.1040 -0.6935
17696TIP3    H274580   0.361   5.449  11.077 -0.4944  0.4905  2.4222
17697TIP3   OH274581   6.312   3.899  15.319  0.1053 -0.1806 -0.3447
17697TIP3    H174582   6.385   3.936  15.269  0.8490 -0.8146  0.2586
17697TIP3    H274583   6.297   3.962  15.389 -0.1535  0.1183 -0.6662
17698TIP3   OH274584   3.792   2.257  11.407  0.5164 -0.2963  0.2748
17698TIP3    H174585   3.826   2.315  11.475 -0.7395  1.0057 -0.2051
17698TIP3    H274586   3.847   2.274  11.330  0.7773 -0.4670  0.4224
17699TIP3   OH274587   5.482   1.070  14.206  0.0987 -0.0346  0.1900
17699TIP3    H174588   5.525   1.130  14.145  0.8962 -1.6865 -0.8986
17699TIP3    H274589   5.388   1.083  14.191  0.2892 -0.0544 -0.9978
17700TIP3   OH274590   0.270   4.108  16.187 -0.0557  0.3691 -0.7006
17700TIP3    H174591   0.289   4.032  16.241  0.5341 -0.3232 -1.8831
17700TIP3    H274592   0.198   4.153  16.233  1.6426  0.7936  1.6129
17701TIP3   OH274593   3.583   4.991  13.623 -0.0764  0.5754 -0.2428
17701TIP3    H174594   3.568   4.926  13.555  1.3436 -0.7841  0.7140
17701TIP3    H274595   3.521   5.061  13.603 -2.4285 -1.5617 -0.6346
17702TIP3   OH274596   5.145   0.959  10.607  0.3517  0.0166 -0.2732
17702TIP3    H174597   5.157   0.894  10.677  1.8145  0.7517  0.1826
17702TIP3    H274598   5.228   0.958  10.559  0.7013  2.1470  0.2676
17703TIP3   OH274599   3.360   0.794  14.545 -0.2364 -0.2425  0.6939
17703TIP3    H174600   3.330   0.742  14.470  1.1597 -0.8635  0.5644
17703TIP3    H274601   3.409   0.732  14.598  3.2753  1.4115 -0.5146
17704TIP3   OH274602   5.822   3.508   2.111  0.4727 -0.1216 -0.5786
17704TIP3    H174603   5.865   3.488   2.194 -3.3946 -0.8299  1.3426
17704TIP3    H274604   5.837   3.602   2.098 -0.5094  0.4246  1.9289
17705TIP3   OH274605   2.121   3.757   3.041 -0.0359 -0.0790  0.3907
17705TIP3    H174606   2.184   3.687   3.058  0.6573  0.3324 -0.4569
17705TIP3    H274607   2.146   3.827   3.101 -1.2324 -0.8456  1.8221
17706TIP3   OH274608   5.607   6.463  11.965  0.4709  0.2430 -0.2781
17706TIP3    H174609   5.638   6.431  12.050 -0.5438  0.1741  0.0744
17706TIP3    H274610   5.612   6.558  11.971  2.8215  0.2055 -1.0757
17707TIP3   OH274611   1.175   2.853  11.098 -0.1245 -0.2159 -0.0472
17707TIP3    H174612   1.132   2.769  11.111  1.6056 -1.0424  0.4905
17707TIP3    H274613   1.108   2.918  11.120 -2.1137 -1.3659 -2.3739
17708TIP3   OH274614   0.976   3.998   2.798  0.0347  0.1551 -0.5746
17708TIP3    H174615   0.883   4.000   2.776  0.4564 -1.0552 -2.5936
17708TIP3    H274616   1.019   4.036   2.721  1.2960 -0.5568 -0.2317
17709TIP3   OH274617   0.319   4.307  14.700  0.0684 -0.5311  0.3088
17709TIP3    H174618   0.227   4.293  14.721  0.0350 -0.8458 -0.0353
17709TIP3    H274619   0.365   4.237  14.746  0.1970 -0.0240  0.9588
17710TIP3   OH274620   3.398   3.980  13.675  0.6538 -0.3131 -0.2658
17710TIP3    H174621   3.336   4.052  13.686  0.4373 -0.6740  0.9737
17710TIP3    H274622   3.394   3.958  13.582  1.1819  1.6756 -0.7665
17711TIP3   OH274623   5.674   5.825   1.094  0.0687  0.0907 -0.1994
17711TIP3    H174624   5.765   5.795   1.091  0.2046  0.4726  0.0337
17711TIP3    H274625   5.675   5.896   1.158 -0.3859  0.1287 -0.2355
17712TIP3   OH274626   3.314   3.660  15.016  0.7027 -0.5353 -0.1964
17712TIP3    H174627   3.300   3.659  14.921  1.2303  0.0981 -0.2837
17712TIP3    H274628   3.232   3.693  15.052  0.8314  0.1016 -0.4904
17713TIP3   OH274629   6.609   2.823   1.213  0.2643 -0.3033 -0.2182
17713TIP3    H174630   6.536   2.814   1.151  0.6537 -0.4852 -0.6575
17713TIP3    H274631   6.577   2.784   1.294 -0.1324 -0.3698 -0.4048
17714TIP3   OH274632   1.064   5.698   2.630 -0.5234  0.1529  0.0783
17714TIP3    H174633   1.137   5.737   2.582 -0.9108  2.0656  1.0173
17714TIP3    H274634   1.106   5.644   2.697  0.0148 -1.0877 -1.2329
17715TIP3   OH274635   0.741   6.263  14.064 -0.0431  0.6748  0.6131
17715TIP3    H174636   0.743   6.314  14.146 -0.6014  0.8294  0.5316
17715TIP3    H274637   0.649   6.263  14.038 -0.4023 -2.1650  1.7307
17716TIP3   OH274638   1.017   6.817  15.851 -0.2123 -0.0128  0.2505
17716TIP3    H174639   1.102   6.806  15.809  0.3085 -0.4887  1.4064
17716TIP3    H274640   1.020   6.904  15.890 -0.0298 -0.2474  0.7711
17717TIP3   OH274641   2.504   2.807  16.466  0.1280 -0.2246  0.0162
17717TIP3    H174642   2.416   2.805  16.503  0.0474 -0.6307 -0.1976
17717TIP3    H274643   2.517   2.898  16.440 -0.6379 -0.3879 -0.9364
17718TIP3   OH274644   0.975   6.554   2.371 -0.0789  0.9284  0.2794
17718TIP3    H174645   1.066   6.528   2.355 -0.5086  0.0880 -0.7872
17718TIP3    H274646   0.939   6.482   2.423 -0.6543  0.4197 -0.8341
17719TIP3   OH274647   1.813   4.316  13.352  0.4660 -0.1354  0.4603
17719TIP3    H174648   1.792   4.403  13.317  2.5146  0.5655  0.8974
17719TIP3    H274649   1.892   4.290  13.305 -0.7700 -2.2942 -0.4983
17720TIP3   OH274650   5.298   5.042   1.908  0.2901  0.5402  0.3800
17720TIP3    H174651   5.362   5.015   1.974 -0.1840  0.9074  0.9935
17720TIP3    H274652   5.301   4.972   1.842  0.5373  0.0169  0.9464
17721TIP3   OH274653   6.186   5.372  12.516 -0.1680 -0.5340 -0.1276
17721TIP3    H174654   6.192   5.446  12.455 -0.6656 -0.6572 -0.3257
17721TIP3    H274655   6.098   5.378  12.553  0.2934 -0.1710  0.9541
17722TIP3   OH274656   0.836   5.570  12.968  0.0148  0.1598 -0.1998
17722TIP3    H174657   0.900   5.530  12.909 -2.1276  0.6469 -2.9872
17722TIP3    H274658   0.820   5.503  13.035  0.6189 -1.4515 -1.6157
17723TIP3   OH274659   3.743   0.557   2.177  0.2411  0.9082 -0.2020
17723TIP3    H174660   3.759   0.503   2.255 -0.0672  1.1062 -0.0021
17723TIP3    H274661   3.723   0.493   2.109 -0.8501  0.7930  0.2072
17724TIP3   OH274662   3.822   0.823  15.259 -0.5181 -0.1646  0.5669
17724TIP3    H174663   3.772   0.811  15.179 -0.7022 -0.2581  0.6959
17724TIP3    H274664   3.784   0.760  15.321 -1.3415  0.9181  1.1871
17725TIP3   OH274665   2.302   6.699  15.672  0.0961  0.1057  0.5163
17725TIP3    H174666   2.301   6.791  15.696  1.0988  0.2608  0.0080
17725TIP3    H274667   2.285   6.699  15.577  3.7911  0.0489 -0.2089
17726TIP3   OH274668   6.503   2.640   1.403 -0.1869  0.0629  0.3553
17726TIP3    H174669   6.436   2.664   1.466 -0.4836  0.7594 -0.2173
17726TIP3    H274670   6.524   2.549   1.424 -1.3818 -0.1906  0.4837
17727TIP3   OH274671   1.556   0.050  15.955 -0.3095 -0.1595 -0.4531
17727TIP3    H174672   1.623   0.111  15.984 -0.3499  0.8786 -2.4013
17727TIP3    H274673   1.599  -0.036  15.956  0.9991  0.4657 -1.5042
17728TIP3   OH274674   3.293   5.032  14.791  0.3658  0.1458 -0.5223
17728TIP3    H174675   3.271   5.047  14.699  1.7049  0.8313 -0.7560
17728TIP3    H274676   3.315   5.119  14.824 -1.6012  0.1273  0.8694
17729TIP3   OH274677   4.700   4.756   6.555  0.1021 -0.1312 -0.2823
17729TIP3    H174678   4.658   4.670   6.563  1.9393 -1.0940 -0.7146
17729TIP3    H274679   4.724   4.779   6.644  1.3037 -0.9588 -0.3786
17730TIP3   OH274680   1.275   6.194  13.177  0.0319  0.2436  0.6954
17730TIP3    H174681   1.268   6.099  13.166 -0.6258  0.2528  0.9906
17730TIP3    H274682   1.223   6.230  13.104 -0.3575  0.3678  1.0351
17731TIP3   OH274683   6.122   6.101   4.951 -0.1319  0.2091  0.2925
17731TIP3    H174684   6.088   6.054   5.028 -0.7368  0.7907  0.3864
17731TIP3    H274685   6.048   6.154   4.921  0.3084  0.4958 -0.2865
17732TIP3   OH274686   2.938   4.132  15.987 -0.1810  0.1798 -0.1518
17732TIP3    H174687   2.885   4.194  16.039  1.5152  1.9861 -0.5065
17732TIP3    H274688   2.983   4.188  15.923  1.1329 -1.4904 -0.7042
17733TIP3   OH274689   4.342   1.053  16.924  0.4789 -0.7932  0.0548
17733TIP3    H174690   4.314   1.143  16.941  0.5168 -0.7528 -0.0990
17733TIP3    H274691   4.262   1.001  16.931  0.8087 -1.0620  2.3873
17734TIP3   OH274692   4.463   6.554   5.168  0.0480  0.1508 -1.1393
17734TIP3    H174693   4.528   6.526   5.104  1.2164  1.1492 -0.4133
17734TIP3    H274694   4.514   6.577   5.246 -1.3415 -0.9383  0.1239
17735TIP3   OH274695   3.952   3.493   6.051  0.2335  0.7087 -0.4347
17735TIP3    H174696   3.869   3.453   6.076  0.4786  1.3332  1.4018
17735TIP3    H274697   4.014   3.419   6.050 -0.2964  0.2643 -1.6887
17736TIP3   OH274698   5.224   0.255  12.428  0.5675  0.3263 -0.6588
17736TIP3    H174699   5.175   0.178  12.457 -0.8112 -0.7071 -5.2371
17736TIP3    H274700   5.157   0.323  12.418  1.6289  1.8807  2.4186
17737TIP3   OH274701   2.021   1.087  12.013 -0.0183 -0.2390 -0.3465
17737TIP3    H174702   1.981   1.059  11.930 -0.7920 -1.7096  0.4975
17737TIP3    H274703   1.961   1.055  12.080  0.7796  0.6556  0.7986
17738TIP3   OH274704   1.645   4.120  13.249  0.4956 -0.4072 -0.4534
17738TIP3    H174705   1.695   4.194  13.283 -0.9918  0.8471 -0.9492
17738TIP3    H274706   1.575   4.159  13.198 -0.6831 -2.1497 -0.2230
17739TIP3   OH274707   0.958   4.305   3.165 -0.0165 -0.0310 -0.0127
17739TIP3    H174708   0.871   4.314   3.125 -0.1299  1.4492  0.5400
17739TIP3    H274709   1.018   4.345   3.101  0.2061 -0.6840 -0.2107
17740TIP3   OH274710   5.135   4.205   0.567 -0.2067 -0.2764 -0.2281
17740TIP3    H174711   5.080   4.198   0.645  0.8866 -0.8610  0.5176
17740TIP3    H274712   5.122   4.122   0.520  1.3750 -1.1914  0.8821
17741TIP3   OH274713   3.418   5.003  14.150 -0.0445  0.1772 -0.0349
17741TIP3    H174714   3.446   5.092  14.132  1.0384 -0.0771  0.3783
17741TIP3    H274715   3.402   4.964  14.064  2.2146 -0.1065 -0.3522
17742TIP3   OH274716   5.249   4.592  15.034 -0.0639 -0.4775  0.2456
17742TIP3    H174717   5.271   4.623  15.122 -0.5307 -1.4544  0.7110
17742TIP3    H274718   5.203   4.509  15.048  1.3245 -1.4730 -1.0001
17743TIP3   OH274719   5.039   3.189   3.689  0.2767  0.4225  0.2323
17743TIP3    H174720   5.054   3.132   3.614  1.5370  0.0934  0.7279
17743TIP3    H274721   4.972   3.143   3.740 -1.3300  1.1429 -1.1871
17744TIP3   OH274722   0.292   4.827  11.411  0.2765 -0.5357 -0.1369
17744TIP3    H174723   0.316   4.804  11.321  0.1295  0.6509 -0.4940
17744TIP3    H274724   0.375   4.855  11.451 -0.0100  1.0086 -0.5702
17745TIP3   OH274725   6.716   6.665  11.614 -0.2836 -0.4126 -0.4543
17745TIP3    H174726   6.723   6.597  11.682 -0.0280  0.6249  0.5691
17745TIP3    H274727   6.635   6.711  11.634 -0.8618 -0.9025 -1.6200
17746TIP3   OH274728   2.794   0.055  14.334 -0.1669 -0.1065 -0.4622
17746TIP3    H174729   2.834  -0.028  14.363 -1.3111 -0.3966  0.3166
17746TIP3    H274730   2.756   0.093  14.413  0.7215  1.3891 -0.7385
17747TIP3   OH274731   3.699   5.290   3.559 -0.2931  0.0221 -0.0789
17747TIP3    H174732   3.679   5.220   3.622 -1.6145  0.5248  0.0801
17747TIP3    H274733   3.615   5.335   3.546  0.3545  1.0232 -0.8600
17748TIP3   OH274734   0.373   2.543  16.320  0.2366  0.2619  0.2088
17748TIP3    H174735   0.460   2.562  16.286  1.1486 -0.2892  2.1565
17748TIP3    H274736   0.351   2.618  16.376 -1.2427  1.1645 -1.5210
17749TIP3   OH274737   6.094   1.011  16.942  0.3864 -0.2029  0.0556
17749TIP3    H174738   6.162   1.062  16.986  2.3310 -2.0564 -0.6936
17749TIP3    H274739   6.033   0.988  17.013  1.3076  0.2796  1.0284
17750TIP3   OH274740   4.162   5.901   1.323  0.0862 -0.0352  0.1383
17750TIP3    H174741   4.194   5.897   1.414  0.3886  0.3096  0.0456
17750TIP3    H274742   4.163   5.809   1.294  0.6661 -0.0681  0.2491
17751TIP3   OH274743   0.261   1.129   2.440  0.0697  0.2782  0.4728
17751TIP3    H174744   0.181   1.090   2.477 -0.0897 -0.6393 -0.8363
17751TIP3    H274745   0.321   1.056   2.430  1.1541  1.0036  1.6205
17752TIP3   OH274746   6.817   6.476   0.809  0.2931  0.4386  0.5343
17752TIP3    H174747   6.768   6.470   0.891 -0.8408  0.1909 -0.1456
17752TIP3    H274748   6.770   6.542   0.758 -0.4312 -1.1157 -0.8468
17753TIP3   OH274749   3.041   1.216  14.978  0.2309  0.5006  0.0365
17753TIP3    H174750   2.974   1.281  14.999 -0.1683  0.4920 -1.2160
17753TIP3    H274751   3.089   1.253  14.904 -0.6342 -1.0740 -1.3151
17754TIP3   OH274752   1.496   2.983  15.963  0.5092 -0.4533 -0.0981
17754TIP3    H174753   1.574   3.029  15.930 -0.2160  0.6607 -0.2669
17754TIP3    H274754   1.531   2.901  15.999  1.6687 -0.3338 -0.9017
17755TIP3   OH274755   6.151   6.459   5.132  0.2191 -0.1021  0.4288
17755TIP3    H174756   6.078   6.509   5.094  0.0815  0.4996  1.4603
17755TIP3    H274757   6.164   6.499   5.218  0.7071 -1.2764  0.8954
17756TIP3   OH274758   3.191   5.880   3.188 -0.1281 -0.3581  0.3827
17756TIP3    H174759   3.158   5.931   3.115  0.1117 -0.3891  0.2555
17756TIP3    H274760   3.220   5.797   3.149 -0.0806 -0.4077  0.5235
17757TIP3   OH274761   2.533   5.630   3.999 -0.7979  0.2054  0.0123
17757TIP3    H174762   2.464   5.566   4.016 -0.5436 -0.5708 -1.7450
17757TIP3    H274763   2.605   5.603   4.055 -1.7208  0.7116  1.4701
17758TIP3   OH274764   2.550   5.361  12.934 -0.0648 -0.1500  0.2321
17758TIP3    H174765   2.617   5.424  12.907 -0.0727 -0.0609  0.4186
17758TIP3    H274766   2.593   5.276  12.927  0.3750 -0.0162  1.2786
17759TIP3   OH274767   2.585   1.463   1.595  0.1608 -0.4555 -0.0316
17759TIP3    H174768   2.649   1.411   1.643  0.0189 -2.0240 -1.5058
17759TIP3    H274769   2.522   1.399   1.562 -1.9394  1.0256  1.0274
17760TIP3   OH274770   3.229   0.405   0.374  0.0512 -0.4015  0.3171
17760TIP3    H174771   3.137   0.423   0.355  0.0745  1.3202  1.7522
17760TIP3    H274772   3.277   0.449   0.303 -0.1459  0.4431  0.7022
17761TIP3   OH274773   2.120   0.846   1.495  0.5792  0.1208 -0.0117
17761TIP3    H174774   2.133   0.911   1.426  2.0474  2.1531  2.1007
17761TIP3    H274775   2.067   0.891   1.561 -0.0589 -1.5033  0.6119
17762TIP3   OH274776   3.353   5.949   2.855  0.4795 -0.7566  0.0478
17762TIP3    H174777   3.310   5.927   2.772  1.6361  0.3125 -0.8399
17762TIP3    H274778   3.376   5.864   2.893 -1.1048 -1.3013 -0.1417
17763TIP3   OH274779   0.625   2.329   4.751 -0.3662  0.3417 -0.1270
17763TIP3    H174780   0.544   2.329   4.802  0.4207  2.2508  1.1734
17763TIP3    H274781   0.609   2.393   4.681 -0.8363 -1.0546 -1.3218
17764TIP3   OH274782   5.953   3.211  12.510  0.3159 -0.3573 -0.1486
17764TIP3    H174783   5.928   3.227  12.601 -0.5375 -0.0316 -0.4297
17764TIP3    H274784   6.040   3.250  12.501  0.6007 -0.8037  0.6477
17765TIP3   OH274785   6.081   3.522  11.599 -0.0744  0.2738  0.4207
17765TIP3    H174786   6.137   3.501  11.673  1.7763 -0.2347 -1.1030
17765TIP3    H274787   6.140   3.531  11.525 -1.9061  0.6236 -1.0466
17766TIP3   OH274788   2.588   5.392  15.702 -0.0929 -0.2261 -0.3830
17766TIP3    H174789   2.585   5.487  15.714 -0.4149 -0.2315 -0.4089
17766TIP3    H274790   2.636   5.380  15.620  1.2643 -0.1507  0.3952
17767TIP3   OH274791   3.877   3.231   2.318  0.0282  0.0438  0.5800
17767TIP3    H174792   3.840   3.296   2.377  1.3020  0.4424  0.9581
17767TIP3    H274793   3.802   3.180   2.288 -0.8403  0.9725  1.1521
17768TIP3   OH274794   6.582   3.530   3.418  0.5125 -0.5426 -0.4395
17768TIP3    H174795   6.508   3.500   3.470  0.1234  0.6656 -0.3030
17768TIP3    H274796   6.604   3.454   3.363 -1.2985 -0.6732 -1.0303
17769TIP3   OH274797   1.430   3.666   1.406 -0.2677 -0.3693 -0.3237
17769TIP3    H174798   1.365   3.730   1.376 -0.7133 -1.1022 -0.9473
17769TIP3    H274799   1.485   3.715   1.467 -0.1984  0.7978 -1.2922
17770TIP3   OH274800   1.964   5.160  16.917  0.0483  0.4543  0.3163
17770TIP3    H174801   1.959   5.095  16.847 -1.5881  1.1296 -0.2239
17770TIP3    H274802   2.048   5.204  16.904  1.1184 -1.4573  0.6170
17771TIP3   OH274803   1.111   3.343   4.480  0.0886  0.5326  0.4330
17771TIP3    H174804   1.165   3.325   4.404  0.4126  2.5431  0.1405
17771TIP3    H274805   1.168   3.393   4.539 -1.2240  2.2043  0.3471
17772TIP3   OH274806   3.629   0.448  14.349 -0.0115 -0.4781  0.3949
17772TIP3    H174807   3.538   0.418  14.346  0.3157 -1.4117 -1.1348
17772TIP3    H274808   3.625   0.539  14.318 -0.5715 -0.1150  1.5329
17773TIP3   OH274809   1.934   1.179  14.770  0.1753 -0.0525 -0.0665
17773TIP3    H174810   2.019   1.167  14.727  1.9265  0.7730  2.9728
17773TIP3    H274811   1.938   1.267  14.806 -2.3840  0.3450 -0.6582
17774TIP3   OH274812   0.167   6.325   2.067 -0.3847 -0.5551 -0.0207
17774TIP3    H174813   0.077   6.297   2.084 -0.7828  0.2901 -0.7347
17774TIP3    H274814   0.179   6.312   1.973 -0.6288  1.8110 -0.4096
17775TIP3   OH274815   3.744   3.903  13.721 -0.0779  0.1644  0.2772
17775TIP3    H174816   3.727   3.810  13.732  1.1795  0.0050  1.0512
17775TIP3    H274817   3.839   3.908  13.710 -0.2690  1.2452 -0.9974
17776TIP3   OH274818   1.601   1.550  10.363  0.7713  0.2021 -0.2084
17776TIP3    H174819   1.647   1.479  10.318 -0.9637 -0.6913 -0.6140
17776TIP3    H274820   1.615   1.627  10.307  1.8327 -0.0291 -0.2734
17777TIP3   OH274821   0.144   3.601  11.818 -0.1575  0.9392 -0.0539
17777TIP3    H174822   0.219   3.660  11.813  1.0828 -0.5805  0.3641
17777TIP3    H274823   0.166   3.528  11.760 -0.5351 -0.3685  1.4012
17778TIP3   OH274824   6.054   6.637  12.665 -0.6286 -0.4427  0.1695
17778TIP3    H174825   6.143   6.602  12.664 -0.5840 -0.4344  1.8229
17778TIP3    H274826   6.024   6.630  12.575  1.6138  1.0251 -0.7297
17779TIP3   OH274827   3.655   5.274   2.648 -0.1171 -1.0135  0.0630
17779TIP3    H174828   3.661   5.245   2.557  0.2596 -0.3465 -0.1283
17779TIP3    H274829   3.681   5.366   2.646 -0.8459 -0.7832  0.7333
17780TIP3   OH274830   3.496   4.111   0.099 -0.4752 -0.2432  0.0806
17780TIP3    H174831   3.543   4.187   0.134  0.3085 -0.5102 -0.3694
17780TIP3    H274832   3.410   4.145   0.075 -0.8274  0.0615  1.7248
17781TIP3   OH274833   6.174   2.081  15.398 -0.5795  0.1154 -0.1084
17781TIP3    H174834   6.232   2.031  15.456 -1.2242 -2.5885 -1.7288
17781TIP3    H274835   6.142   2.017  15.334 -4.8997  1.6299  0.3597
17782TIP3   OH274836   1.422   4.296   3.274 -0.0400 -0.0008  0.2115
17782TIP3    H174837   1.477   4.358   3.322 -0.9860  1.6100 -0.7156
17782TIP3    H274838   1.367   4.255   3.341 -0.8602  1.6980  0.5980
17783TIP3   OH274839   5.657   6.636   2.682 -0.5263 -0.0675  0.2264
17783TIP3    H174840   5.647   6.559   2.626 -1.5773  1.4273 -1.7341
17783TIP3    H274841   5.725   6.688   2.639  1.6802 -0.8427  2.6756
17784TIP3   OH274842   2.870   2.534  11.977  0.3006  0.1126  0.0759
17784TIP3    H174843   2.942   2.597  11.985  2.0651 -1.7762 -0.5885
17784TIP3    H274844   2.903   2.454  12.018 -0.2518 -1.7012 -2.8145
17785TIP3   OH274845   0.937   6.181  11.573  0.1308 -0.0795 -0.3043
17785TIP3    H174846   0.911   6.272  11.562  1.1929  0.3237  0.4170
17785TIP3    H274847   1.028   6.178  11.543 -0.1069 -1.0424 -0.9532
17786TIP3   OH274848   0.426   2.305   7.040 -0.1621  0.3537 -0.0118
17786TIP3    H174849   0.462   2.305   6.952 -0.5200  1.3702 -0.1642
17786TIP3    H274850   0.344   2.257   7.033 -0.3543  0.7240 -0.3013
17787TIP3   OH274851   5.644   4.701  13.916 -0.2167  0.5502  0.1152
17787TIP3    H174852   5.559   4.675  13.882  0.7343 -1.0768 -1.0945
17787TIP3    H274853   5.625   4.769  13.981 -2.2985  1.5384 -1.4788
17788TIP3   OH274854   3.234   5.420  16.314 -0.3382  0.1958 -0.2557
17788TIP3    H174855   3.230   5.353  16.382  0.3622 -0.6699 -1.0544
17788TIP3    H274856   3.310   5.396  16.261 -0.4486  1.2700 -0.9217
17789TIP3   OH274857   3.583   2.546  13.631 -0.0131 -0.3537 -0.0841
17789TIP3    H174858   3.631   2.627  13.647 -2.2618  0.7470  1.4493
17789TIP3    H274859   3.595   2.528  13.538 -0.8762  2.7337 -0.8505
17790TIP3   OH274860   3.992   3.405  16.768  0.1113  0.8193 -0.1105
17790TIP3    H174861   3.920   3.400  16.831  1.6967 -0.4681  1.6575
17790TIP3    H274862   3.990   3.322  16.721 -1.2412  1.8904 -1.9893
17791TIP3   OH274863   2.592   3.038   5.917 -0.4367 -0.6412 -0.2222
17791TIP3    H174864   2.522   3.038   5.982  0.7100 -1.1968  1.0406
17791TIP3    H274865   2.622   2.947   5.914  0.2667 -0.3984 -0.7150
17792TIP3   OH274866   2.302   2.930  16.788  0.3494  0.1227  0.0598
17792TIP3    H174867   2.294   2.913  16.882  0.6633  0.7279  0.1930
17792TIP3    H274868   2.348   2.853  16.755 -0.5226 -0.5068  0.2563
17793TIP3   OH274869   6.351   6.259  15.671 -0.4911 -0.2853 -0.1580
17793TIP3    H174870   6.335   6.261  15.576 -1.5425  0.0984  0.0282
17793TIP3    H274871   6.379   6.348  15.692 -0.2384 -0.3765 -0.1026
17794TIP3   OH274872   3.894   5.462  13.951  0.1699  0.0899 -0.0073
17794TIP3    H174873   3.859   5.388  14.000  0.8764 -0.9568 -1.0658
17794TIP3    H274874   3.884   5.437  13.859 -2.5027  2.6506 -0.4998
17795TIP3   OH274875   2.029   3.730   0.826  0.1924  0.2327 -0.2228
17795TIP3    H174876   2.086   3.680   0.884 -0.3613 -0.7997 -0.5590
17795TIP3    H274877   2.046   3.694   0.738 -0.1208  0.7151 -0.4840
17796TIP3   OH274878   5.130   4.786   1.206  0.2662  0.0189  0.2420
17796TIP3    H174879   5.225   4.774   1.195  0.2988  0.3847  0.1103
17796TIP3    H274880   5.120   4.879   1.226 -0.1829  0.3007 -1.2287
17797TIP3   OH274881   2.518   6.363  15.175 -0.0130  0.1041 -0.3703
17797TIP3    H174882   2.487   6.328  15.092  2.2097  0.6586 -1.4904
17797TIP3    H274883   2.544   6.453  15.155  0.7944  0.1667  0.8617
17798TIP3   OH274884   6.448   4.149   2.388  0.3896  0.6235  0.0715
17798TIP3    H174885   6.359   4.123   2.364  0.8729 -0.5544 -0.5003
17798TIP3    H274886   6.499   4.068   2.382  1.6939  1.4784 -0.5435
17799TIP3   OH274887   3.040   5.657   4.253 -0.4443  0.0057  0.2102
17799TIP3    H174888   3.005   5.591   4.313 -1.8366  0.0102 -0.5713
17799TIP3    H274889   3.081   5.606   4.183 -0.3838 -0.0070  0.2544
17800TIP3   OH274890   1.949   2.353   1.154 -0.0424  0.2559  0.0046
17800TIP3    H174891   1.959   2.399   1.237  2.3767  2.5103 -1.4867
17800TIP3    H274892   2.025   2.379   1.102 -0.6651 -2.3761 -2.3481
17801TIP3   OH274893   3.433   0.332  12.441 -0.0842 -0.7028  0.0893
17801TIP3    H174894   3.362   0.372  12.491  1.3233  0.6936  1.0206
17801TIP3    H274895   3.430   0.239  12.465 -0.6613 -0.3879  1.2664
17802TIP3   OH274896   4.604   1.756   1.430 -0.1666 -0.2488 -0.2452
17802TIP3    H174897   4.523   1.717   1.462  0.3368  0.6503  2.2273
17802TIP3    H274898   4.597   1.848   1.455  0.8576  0.2068 -1.5906
17803TIP3   OH274899   2.157   6.684   3.649  0.1808 -0.0993 -0.1784
17803TIP3    H174900   2.192   6.767   3.617 -0.0263  0.1787  0.3136
17803TIP3    H274901   2.093   6.709   3.716 -1.9463 -0.5356 -1.9662
17804TIP3   OH274902   2.014   2.684   3.477  0.6607 -0.3624  0.1913
17804TIP3    H174903   2.105   2.673   3.507  1.4556  1.0460 -1.6061
17804TIP3    H274904   2.017   2.759   3.417 -1.8050  0.0569  0.5353
17805TIP3   OH274905   0.039   0.479  15.646 -0.4702  0.3938  0.0871
17805TIP3    H174906  -0.015   0.434  15.710 -0.3371 -0.7421 -0.5816
17805TIP3    H274907  -0.009   0.470  15.563  0.3776  0.0029 -0.3746
17806TIP3   OH274908   1.373   5.278   0.627 -0.0017 -0.6141 -0.2711
17806TIP3    H174909   1.297   5.298   0.573  0.7429 -1.0703 -1.5046
17806TIP3    H274910   1.442   5.336   0.593  0.6893 -1.4796 -0.3491
17807TIP3   OH274911   3.939   0.705  16.768 -0.0345 -0.6886 -0.0143
17807TIP3    H174912   3.845   0.693  16.782 -0.0205 -1.3709 -0.5189
17807TIP3    H274913   3.980   0.634  16.816  0.2611 -0.0329  0.7174
17808TIP3   OH274914   4.643   1.919   4.832  0.2007  0.7343  0.2556
17808TIP3    H174915   4.729   1.948   4.864  1.7579 -0.4511 -2.6525
17808TIP3    H274916   4.658   1.828   4.804 -2.2729  0.1926  0.6234
17809TIP3   OH274917   0.731   4.776   0.626 -0.5397  0.3429 -0.0801
17809TIP3    H174918   0.678   4.855   0.611 -1.2969 -0.4222 -1.5088
17809TIP3    H274919   0.808   4.789   0.570 -0.4439  0.2741  0.0371
17810TIP3   OH274920   2.124   4.312   1.054  0.4878 -0.4662 -0.2722
17810TIP3    H174921   2.030   4.308   1.039  0.7218  0.1472 -1.9566
17810TIP3    H274922   2.162   4.261   0.983  1.4218 -1.0585  0.6296
17811TIP3   OH274923   0.051   0.757  11.429 -0.3415  1.1248  0.2631
17811TIP3    H174924   0.100   0.839  11.428 -0.7810  1.3908  0.2222
17811TIP3    H274925  -0.040   0.784  11.440 -0.5472  0.6755 -0.3057
17812TIP3   OH274926   1.105   5.615   0.216  0.0218  0.7175 -0.0427
17812TIP3    H174927   1.059   5.616   0.300  1.3224  0.1288  0.6940
17812TIP3    H274928   1.137   5.525   0.207  1.3996  1.2102 -0.3159
17813TIP3   OH274929   6.301   0.375   1.432  0.0615  0.1396 -0.5363
17813TIP3    H174930   6.222   0.337   1.393  0.8147 -0.0967 -1.8767
17813TIP3    H274931   6.282   0.382   1.525 -0.6549 -2.0929 -0.5040
17814TIP3   OH274932   2.177   3.455  15.531 -0.1047 -0.6382 -1.0085
17814TIP3    H174933   2.251   3.414  15.576 -1.1896 -1.7966 -0.2435
17814TIP3    H274934   2.217   3.509  15.463  1.5401  0.4920  0.7953
17815TIP3   OH274935   1.511   2.212   2.795 -0.1737  0.2841  0.2891
17815TIP3    H174936   1.452   2.262   2.739 -0.0569 -1.4201 -1.4122
17815TIP3    H274937   1.455   2.177   2.864 -0.8013  0.2529 -0.2351
17816TIP3   OH274938   1.051   5.274   0.768 -0.7102 -0.2104 -0.0129
17816TIP3    H174939   1.103   5.342   0.811 -0.1640 -0.7690  0.2096
17816TIP3    H274940   1.011   5.319   0.693  0.5570  0.0839 -0.5351
17817TIP3   OH274941   5.235   6.516  13.248  0.0038 -0.0545  0.3168
17817TIP3    H174942   5.212   6.451  13.314 -1.7752  1.2765  1.0472
17817TIP3    H274943   5.311   6.561  13.285 -0.0770 -0.2914  0.7786
17818TIP3   OH274944   2.227   1.454   2.274  0.6048  0.3810 -0.2388
17818TIP3    H174945   2.183   1.446   2.358  0.4990 -1.4357 -0.4498
17818TIP3    H274946   2.296   1.518   2.289  0.2200  0.4991  1.0817
17819TIP3   OH274947   2.570   0.433   1.863 -0.1737 -0.2676 -0.1120
17819TIP3    H174948   2.578   0.452   1.769 -0.2973  0.6990  0.0671
17819TIP3    H274949   2.644   0.477   1.903  1.6158 -3.2080 -0.0739
17820TIP3   OH274950   0.385   0.931   2.982 -0.2978  0.5068  0.4600
17820TIP3    H174951   0.434   0.850   2.962 -2.1367 -0.7178  0.7885
17820TIP3    H274952   0.335   0.909   3.061 -2.5942  1.1907 -0.7776
17821TIP3   OH274953   3.408   1.865   2.486  0.2782  0.7215  0.1442
17821TIP3    H174954   3.354   1.871   2.564  1.7316  1.6225  1.1101
17821TIP3    H274955   3.387   1.780   2.448  1.7405 -1.0759  3.1723
17822TIP3   OH274956   3.710   1.825   3.807 -0.3719 -0.3549  0.7085
17822TIP3    H174957   3.626   1.844   3.850  0.6782  1.6911  1.9001
17822TIP3    H274958   3.773   1.820   3.878  0.5774 -1.6713 -0.2113
17823TIP3   OH274959   0.881   2.032   6.413  0.0248 -0.1503 -0.1804
17823TIP3    H174960   0.896   2.111   6.361 -0.4249 -0.4518 -0.7721
17823TIP3    H274961   0.874   2.064   6.503 -0.1055  0.4821 -0.4077
17824TIP3   OH274962   5.130   4.411   4.534 -0.1378 -0.5108  0.6452
17824TIP3    H174963   5.099   4.343   4.594  0.3821 -0.9497  0.4128
17824TIP3    H274964   5.215   4.379   4.503 -0.4398 -0.3119 -0.3844
17825TIP3   OH274965   1.236   3.849   1.608 -0.4984  0.2266  0.2863
17825TIP3    H174966   1.241   3.888   1.521 -1.6321 -0.3384 -0.0412
17825TIP3    H274967   1.313   3.883   1.654  0.5327 -0.0646 -1.1708
17826TIP3   OH274968   0.109   0.200   0.317 -0.1669  0.1023  0.0600
17826TIP3    H174969   0.058   0.141   0.262 -1.1580  0.5275  0.5028
17826TIP3    H274970   0.177   0.144   0.355 -1.1879 -0.8039  0.5957
17827TIP3   OH274971   4.704   0.850  15.160 -0.6643  0.0281 -0.0391
17827TIP3    H174972   4.657   0.902  15.095  0.8702  2.7268  0.9447
17827TIP3    H274973   4.645   0.844  15.234 -0.9318  0.1971 -0.2408
17828TIP3   OH274974   3.443   2.931  15.674 -0.2644 -1.2523  0.5554
17828TIP3    H174975   3.357   2.972  15.679  0.3157  0.2145 -0.9880
17828TIP3    H274976   3.457   2.892  15.761 -2.3053 -1.1729  0.9261
17829TIP3   OH274977   6.305   0.666  15.024 -0.2927 -0.1384 -0.4805
17829TIP3    H174978   6.382   0.635  14.977  0.1904 -0.4453  0.4919
17829TIP3    H274979   6.338   0.738  15.078 -1.0091  0.7777 -1.2446
17830TIP3   OH274980   2.533   3.345   5.507 -0.5340 -0.1987  0.0845
17830TIP3    H174981   2.601   3.396   5.550 -0.2310 -0.6892  0.1947
17830TIP3    H274982   2.540   3.258   5.547 -1.3747 -0.1920  0.2623
17831TIP3   OH274983   2.303   3.493  11.498  0.5467 -0.3401 -0.1296
17831TIP3    H174984   2.359   3.548  11.443  1.0002 -2.6363 -2.0515
17831TIP3    H274985   2.231   3.551  11.524  1.1147  1.2313 -1.9207
17832TIP3   OH274986   3.242   6.535  14.037 -0.3280 -0.0016 -0.4572
17832TIP3    H174987   3.263   6.477  14.110  0.1353  0.9647  0.1834
17832TIP3    H274988   3.271   6.488  13.960  1.1485 -0.1201  0.1510
17833TIP3   OH274989   1.008   6.116  16.184 -0.1191  0.6948 -0.3433
17833TIP3    H174990   1.031   6.203  16.150  2.3303  0.9844  1.8953
17833TIP3    H274991   1.085   6.062  16.166 -1.4464 -0.9349 -1.2947
17834TIP3   OH274992   6.742   2.778   2.719 -0.3535  0.0161  0.7067
17834TIP3    H174993   6.676   2.756   2.653  0.9335 -0.0684 -0.5776
17834TIP3    H274994   6.722   2.868   2.746 -1.4701 -0.2945  0.9274
17835TIP3   OH274995   0.704   5.054   2.882 -0.2641 -0.3491  0.1435
17835TIP3    H174996   0.748   4.978   2.919 -1.1682 -0.0126  1.9448
17835TIP3    H274997   0.722   5.049   2.788 -0.2167 -2.7125  0.2620
17836TIP3   OH274998   2.438   5.755  10.341 -0.4102  0.0177 -0.1563
17836TIP3    H174999   2.524   5.765  10.300 -0.9082  1.5839 -0.8341
17836TIP3    H275000   2.450   5.790  10.430  0.1677 -1.6518  0.4559
17837TIP3   OH275001   0.624   1.266  14.324 -0.0130 -0.5359 -0.2749
17837TIP3    H175002   0.534   1.297  14.325  0.0347 -0.4166  0.3737
17837TIP3    H275003   0.645   1.257  14.231 -0.4223  0.2211 -0.4461
17838TIP3   OH275004   4.599   2.934   3.200 -0.1017 -0.2225 -0.7159
17838TIP3    H175005   4.680   2.985   3.189 -0.4419  0.6555  0.7146
17838TIP3    H275006   4.535   2.979   3.143  0.7455 -1.7461 -2.9363
17839TIP3   OH275007   5.768   6.433  11.587 -0.1290  0.0703 -0.3593
17839TIP3    H175008   5.728   6.489  11.653 -1.5787 -2.0121  0.5911
17839TIP3    H275009   5.852   6.406  11.625 -0.7481 -0.7417  0.4256
17840TIP3   OH275010   2.790   1.442  13.194 -0.5183 -0.6761 -0.2677
17840TIP3    H175011   2.723   1.375  13.189 -1.0152 -0.2408  0.3865
17840TIP3    H275012   2.781   1.492  13.113 -2.4289  0.7049  0.7278
17841TIP3   OH275013   0.390   1.092  13.223 -0.0305 -0.1263 -0.2672
17841TIP3    H175014   0.393   1.158  13.293  2.7738 -2.2782  1.7719
17841TIP3    H275015   0.481   1.085  13.193 -0.1032 -3.5728  0.1062
17842TIP3   OH275016   5.088   6.764  14.991 -0.1836 -0.2543  0.3042
17842TIP3    H175017   5.131   6.683  15.017 -0.4998  0.3492  2.8573
17842TIP3    H275018   5.155   6.832  15.004 -0.8509  0.2647  1.1018
17843TIP3   OH275019   3.745   3.975  15.566  0.1648  0.0827 -0.3902
17843TIP3    H175020   3.778   3.917  15.634 -1.7418 -0.5200  0.0669
17843TIP3    H275021   3.763   4.064  15.599  0.8838 -0.2249  0.0517
17844TIP3   OH275022   3.076   4.929   6.329  0.2399  0.0201 -0.1448
17844TIP3    H175023   3.159   4.903   6.289  0.1195  0.2732 -0.5640
17844TIP3    H275024   3.098   5.004   6.383  0.2639  0.1672 -0.3576
17845TIP3   OH275025   3.972   3.682  15.976 -0.5860 -0.4129  0.0054
17845TIP3    H175026   4.036   3.668  15.907 -0.4949  0.4048 -0.0749
17845TIP3    H275027   3.888   3.693  15.930 -0.5585 -0.0722  0.0388
17846TIP3   OH275028   4.864   2.268   3.369  0.2166  0.4753 -0.0836
17846TIP3    H175029   4.871   2.363   3.362  0.8269  0.3497 -1.2878
17846TIP3    H275030   4.838   2.253   3.460 -1.2037  1.8439 -0.2523
17847TIP3   OH275031   0.172   6.127  14.501 -0.2632  0.1653  0.5821
17847TIP3    H175032   0.257   6.143  14.542 -0.3811 -0.1660  0.9536
17847TIP3    H275033   0.123   6.077  14.566 -0.9824  0.9455  0.6475
17848TIP3   OH275034   5.808   0.041   1.776 -0.0200  0.0901 -0.3047
17848TIP3    H175035   5.725   0.048   1.728 -0.4945 -1.2195  0.3021
17848TIP3    H275036   5.792   0.088   1.858  0.3183  1.0797 -0.7972
17849TIP3   OH275037   4.035   4.157  14.447  0.2058  0.2902 -0.3031
17849TIP3    H175038   4.131   4.150  14.443  0.1517 -0.8667  0.3628
17849TIP3    H275039   4.005   4.067  14.455 -1.0069  0.5450 -1.7087
17850TIP3   OH275040   2.109   5.130   4.167  0.2196  0.2111  0.2585
17850TIP3    H175041   2.033   5.072   4.158 -0.2958  0.7706  0.9544
17850TIP3    H275042   2.080   5.213   4.130  0.8268  0.1373 -0.3814
17851TIP3   OH275043   3.196   1.605  17.165 -0.1645 -0.4203 -0.2336
17851TIP3    H175044   3.275   1.657  17.180  0.5996 -1.4193 -0.8049
17851TIP3    H275045   3.214   1.556  17.085 -0.1973 -2.8840  1.2236
17852TIP3   OH275046   6.439   6.177  12.673  0.1273 -0.0799  0.2044
17852TIP3    H175047   6.439   6.205  12.581 -0.2272  2.3352  0.9003
17852TIP3    H275048   6.474   6.088  12.671  0.6051  0.1222 -2.2118
17853TIP3   OH275049   6.763   4.255   4.003 -0.1574  0.2872 -0.2027
17853TIP3    H175050   6.754   4.231   4.095 -1.2495 -0.1767 -0.4270
17853TIP3    H275051   6.689   4.313   3.986 -0.4506 -0.3310 -1.0299
17854TIP3   OH275052   1.610   3.001   4.751  0.1639  0.1352  0.4862
17854TIP3    H175053   1.539   3.053   4.714 -0.1752 -0.3634  0.4333
17854TIP3    H275054   1.688   3.029   4.704  0.1490  1.3065  1.1432
17855TIP3   OH275055   0.659   4.456   6.438 -0.0546  0.2448  0.6551
17855TIP3    H175056   0.749   4.425   6.449  0.0202  0.1580 -0.1653
17855TIP3    H275057   0.616   4.388   6.386  0.0582  1.4071 -0.9850
17856TIP3   OH275058   3.504   5.062   3.639  0.5977 -0.2415  0.2545
17856TIP3    H175059   3.536   4.975   3.663  1.2617  0.2632  1.1976
17856TIP3    H275060   3.411   5.060   3.661  0.8431 -0.3510  1.3317
17857TIP3   OH275061   6.577   6.787  10.604  0.0113 -0.4372 -1.1665
17857TIP3    H175062   6.581   6.849  10.532 -0.5320 -1.5772 -2.1878
17857TIP3    H275063   6.655   6.732  10.593 -0.0082 -0.5380 -0.8163
17858TIP3   OH275064   2.093   5.691  14.825  0.4225 -0.5200 -0.2244
17858TIP3    H175065   2.035   5.765  14.805  1.0466 -0.1393 -0.6152
17858TIP3    H275066   2.038   5.613  14.809 -0.0015 -0.1625 -0.5247
17859TIP3   OH275067   5.088   0.121  16.768 -0.3950  0.8737  0.0082
17859TIP3    H175068   5.098   0.089  16.857 -1.8596  3.1712  1.0392
17859TIP3    H275069   5.047   0.207  16.777 -0.2782  1.2994 -2.8609
17860TIP3   OH275070   2.120   3.027   4.064  0.3310 -0.3418  0.4058
17860TIP3    H175071   2.123   2.938   4.029 -1.6061 -1.0460  1.9087
17860TIP3    H275072   2.146   3.082   3.991 -0.8638 -1.9766 -1.3108
17861TIP3   OH275073   2.673   1.360   0.766  0.1272  0.3071  0.5326
17861TIP3    H175074   2.748   1.420   0.763 -1.1517  1.9462  0.1199
17861TIP3    H275075   2.615   1.397   0.832 -0.2502 -1.0439  0.9767
17862TIP3   OH275076   3.509   4.176  11.174 -0.2376 -0.2384 -0.4469
17862TIP3    H175077   3.431   4.185  11.229  0.7165  0.2523  0.8489
17862TIP3    H275078   3.486   4.108  11.110 -1.7563 -0.0221 -0.1504
17863TIP3   OH275079   3.474   6.568  15.144 -0.1823  0.1794  0.2694
17863TIP3    H175080   3.543   6.539  15.203 -0.5931 -0.8557  0.2441
17863TIP3    H275081   3.455   6.658  15.171 -0.3803 -0.2908  1.7130
17864TIP3   OH275082   2.556   1.193   0.976 -0.6158  0.1950 -0.0165
17864TIP3    H175083   2.591   1.232   0.896  0.0642  3.3681  1.7467
17864TIP3    H275084   2.632   1.181   1.032 -1.3993  0.4643  1.1217
17865TIP3   OH275085   2.466   1.752   2.214  0.7807  0.0803  0.1266
17865TIP3    H175086   2.391   1.783   2.265 -0.2454 -2.4331  0.1988
17865TIP3    H275087   2.542   1.784   2.263 -0.2158  0.6682  1.3235
17866TIP3   OH275088   4.705   2.462   6.316 -0.1578 -0.3266 -0.0154
17866TIP3    H175089   4.767   2.389   6.316 -0.9338 -1.0175 -2.4742
17866TIP3    H275090   4.698   2.487   6.408  1.6132 -2.0718  0.6273
17867TIP3   OH275091   3.596   3.615   0.251 -0.6768 -0.6525  0.1348
17867TIP3    H175092   3.680   3.570   0.251  2.2674  4.3715 -1.7161
17867TIP3    H275093   3.572   3.621   0.158 -0.8711  1.6169  0.2917
17868TIP3   OH275094   0.296   1.904  17.124  0.0552 -0.0120  0.2379
17868TIP3    H175095   0.390   1.891  17.131  0.2335  1.8919  1.9393
17868TIP3    H275096   0.276   1.891  17.031  1.6548 -2.3748  0.1881
17869TIP3   OH275097   3.552   0.040  10.410  1.0525  0.0272 -0.5852
17869TIP3    H175098   3.647   0.042  10.398  0.7797  1.8238 -2.7615
17869TIP3    H275099   3.533   0.121  10.458  0.7018 -0.7873  0.6795
17870TIP3   OH275100   1.166   6.307   0.687 -0.9522 -0.3236 -0.2676
17870TIP3    H175101   1.239   6.309   0.625  0.1171  0.0149  0.9863
17870TIP3    H275102   1.139   6.215   0.689 -0.0206 -0.5979 -0.1194
17871TIP3   OH275103   4.406   6.684   3.900 -0.2189 -0.2936 -0.0084
17871TIP3    H175104   4.419   6.622   3.828  0.4795  1.6960 -1.6569
17871TIP3    H275105   4.312   6.701   3.901 -0.1704  0.0492 -0.8028
17872TIP3   OH275106   6.272   5.803   1.100 -0.1416  0.6154 -0.0883
17872TIP3    H175107   6.285   5.865   1.171 -0.2412  1.0391 -0.4381
17872TIP3    H275108   6.282   5.855   1.020  2.3238 -0.2995 -0.4251
17873TIP3   OH275109   2.159   4.735   4.810 -0.2077 -0.2504  0.0927
17873TIP3    H175110   2.203   4.785   4.879  0.2581 -0.6735  0.1063
17873TIP3    H275111   2.112   4.666   4.857 -0.4896 -0.0958  0.0400
17874TIP3   OH275112   4.403   5.091   5.184  0.5521 -0.3181  0.2774
17874TIP3    H175113   4.410   5.082   5.089  2.6898  0.2667  0.3622
17874TIP3    H275114   4.310   5.077   5.202  0.3922 -2.1450 -1.7092
17875TIP3   OH275115   5.779   3.438   5.722 -0.6922 -0.1980  0.0786
17875TIP3    H175116   5.774   3.342   5.721 -0.3853 -0.2109 -0.3255
17875TIP3    H275117   5.703   3.465   5.773 -1.5434 -0.6046 -0.9705
17876TIP3   OH275118   0.854   5.712   2.461  0.5036 -0.4059 -0.7428
17876TIP3    H175119   0.796   5.788   2.470 -1.7738 -2.2905  1.0916
17876TIP3    H275120   0.923   5.727   2.525 -0.2660 -0.1686  0.0364
17877TIP3   OH275121   1.931   6.712   2.579 -0.3215  0.0327 -0.4131
17877TIP3    H175122   1.978   6.792   2.556  2.9534 -1.5753  0.3781
17877TIP3    H275123   1.964   6.647   2.518 -1.9898 -1.0217 -0.2052
17878TIP3   OH275124   2.425   6.273   4.619 -0.6831 -0.9206  0.2641
17878TIP3    H175125   2.467   6.238   4.697  0.1978 -1.1268 -0.2888
17878TIP3    H275126   2.495   6.320   4.573 -1.1674 -0.8865 -0.4503
17879TIP3   OH275127   3.224   3.335  17.191  0.0722 -0.4168  0.1391
17879TIP3    H175128   3.254   3.292  17.111  0.5569 -0.9022  0.5823
17879TIP3    H275129   3.198   3.263  17.248 -2.5885 -0.0139 -0.4805
17880TIP3   OH275130   2.886   6.663   3.663 -0.5456  0.2388  0.4023
17880TIP3    H175131   2.892   6.579   3.617  1.7042  0.6865 -0.1859
17880TIP3    H275132   2.802   6.659   3.709 -1.9848 -1.0049 -2.2173
17881TIP3   OH275133   2.910   6.075   4.791 -0.2030  0.5547 -0.1464
17881TIP3    H175134   2.829   6.053   4.837 -0.4186  0.2997 -0.6487
17881TIP3    H275135   2.941   6.155   4.834 -0.2265  0.1401  0.6638
17882TIP3   OH275136   4.713   5.878   4.572  0.1419 -0.0628 -0.5934
17882TIP3    H175137   4.688   5.969   4.586 -0.2615 -0.0382 -1.4730
17882TIP3    H275138   4.765   5.879   4.492 -0.0551 -0.6374 -0.7289
17883TIP3   OH275139   0.207   4.654   1.049 -0.0047 -0.0064 -0.3144
17883TIP3    H175140   0.139   4.595   1.015 -0.9144  1.4917 -1.1233
17883TIP3    H275141   0.231   4.615   1.133 -1.1752 -1.0956 -0.4558
17884TIP3   OH275142   2.645   0.521   0.813  0.0867 -0.5620  0.0090
17884TIP3    H175143   2.732   0.482   0.819 -0.4307 -1.5431  1.2392
17884TIP3    H275144   2.634   0.571   0.894  0.1307  0.9208 -0.8659
17885TIP3   OH275145   4.368   0.100   6.100  0.0220  0.3426 -0.5041
17885TIP3    H175146   4.388   0.191   6.077  0.4609  0.8144  1.6939
17885TIP3    H275147   4.426   0.081   6.174  0.5362 -1.9974 -1.4646
17886TIP3   OH275148   3.250   1.584   4.660  0.0454  0.0518 -0.0536
17886TIP3    H175149   3.297   1.662   4.689  0.3517  0.1463 -0.7950
17886TIP3    H275150   3.177   1.617   4.608  0.1876 -0.1486 -0.3886
17887TIP3   OH275151   6.636   3.114   4.979 -0.2609  0.3398 -0.4367
17887TIP3    H175152   6.623   3.110   4.885 -0.8734 -0.1207 -0.3389
17887TIP3    H275153   6.727   3.141   4.990 -0.3565  0.9633 -1.1548
17888TIP3   OH275154   1.779   0.078  16.141 -0.3007 -0.1634  0.4550
17888TIP3    H175155   1.807   0.048  16.228 -3.7128  0.8893  2.0362
17888TIP3    H275156   1.752  -0.002  16.096 -0.6327 -0.5013  1.2308
17889TIP3   OH275157   6.137   2.287   5.983  0.1329 -0.1818  0.0046
17889TIP3    H175158   6.148   2.204   6.031  0.3439 -1.5717 -2.3610
17889TIP3    H275159   6.055   2.276   5.935 -0.4658  1.5025  0.6077
17890TIP3   OH275160   1.130   4.398  15.509  0.4828  0.1859  0.2674
17890TIP3    H175161   1.106   4.308  15.488  1.4109 -0.4063  1.6802
17890TIP3    H275162   1.220   4.392  15.540  0.5247  1.5970  0.4278
17891TIP3   OH275163   1.440   0.368   6.103  0.2880 -0.1108  0.0449
17891TIP3    H175164   1.503   0.312   6.057  1.7661  1.0540  0.6088
17891TIP3    H275165   1.397   0.419   6.034  1.1984  0.3226 -0.2070
17892TIP3   OH275166   1.750   4.578  12.979 -1.1103 -0.2097  0.1692
17892TIP3    H175167   1.667   4.624  12.988  0.3329  2.7440 -0.7512
17892TIP3    H275168   1.749   4.542  12.890 -0.4250  1.9998 -0.7729
17893TIP3   OH275169   0.112   5.730  13.595 -0.2967 -0.1504 -0.0391
17893TIP3    H175170   0.192   5.783  13.593 -1.4251  1.5975 -1.4691
17893TIP3    H275171   0.114   5.681  13.513 -0.7911  0.0939 -0.2035
17894TIP3   OH275172   3.576   4.137  14.537 -0.5184 -0.0144 -0.3193
17894TIP3    H175173   3.492   4.168  14.572 -0.9384 -0.0154 -1.2998
17894TIP3    H275174   3.589   4.188  14.457  0.9775  0.7809  0.4220
17895TIP3   OH275175   5.104   1.362   0.640  0.4005  0.3068 -0.8752
17895TIP3    H175176   5.059   1.433   0.593 -0.9908 -1.2479 -1.9656
17895TIP3    H275177   5.115   1.293   0.574  1.4286 -0.6215  0.2516
17896TIP3   OH275178   4.768   0.704   5.212 -0.1454 -0.2215  0.1384
17896TIP3    H175179   4.827   0.742   5.147 -0.1173 -2.6173 -1.3002
17896TIP3    H275180   4.814   0.714   5.295  1.7973 -1.0600 -0.8166
17897TIP3   OH275181   1.889   1.747   2.650 -0.1611  0.4247  0.5173
17897TIP3    H175182   1.930   1.765   2.565 -0.1500 -0.1054  0.4104
17897TIP3    H275183   1.796   1.767   2.636  0.1085  1.9845  0.8631
17898TIP3   OH275184   3.880   0.020   2.215  0.2109  0.0510  0.1771
17898TIP3    H175185   3.841   0.092   2.165 -3.2096 -0.7252  1.5391
17898TIP3    H275186   3.805  -0.020   2.261  2.7370 -1.2713  3.3359
17899TIP3   OH275187   5.174   5.926  17.119  0.0035  0.1998  0.1154
17899TIP3    H175188   5.238   5.991  17.149  1.3437 -1.6570  1.3421
17899TIP3    H275189   5.171   5.938  17.024  0.9602  1.3726  0.2229
17900TIP3   OH275190   2.605   1.583   4.562  0.3673  0.0686  0.0604
17900TIP3    H175191   2.644   1.505   4.522 -0.9293 -0.1240 -0.8624
17900TIP3    H275192   2.538   1.549   4.620 -1.3802  0.5293 -1.6376
17901TIP3   OH275193   6.062   3.788   2.109 -0.5664  0.0116 -0.1455
17901TIP3    H175194   6.116   3.776   2.187  0.8448  4.3737 -0.2967
17901TIP3    H275195   5.972   3.780   2.141 -0.0455  2.4444  2.1672
17902TIP3   OH275196   0.505   3.972   0.967  0.1194 -0.0564 -0.5454
17902TIP3    H175197   0.453   4.046   0.999 -1.5981 -1.0272 -0.9895
17902TIP3    H275198   0.519   3.990   0.874  4.5041  2.4140  0.4542
17903TIP3   OH275199   2.469   0.130   2.270  0.2529  0.7312 -0.6795
17903TIP3    H175200   2.437   0.169   2.352  3.3526  1.3081  0.3235
17903TIP3    H275201   2.424   0.045   2.265 -0.6467  1.0577  1.1712
17904TIP3   OH275202   3.867   6.605   4.899 -0.1105  0.0676  0.0761
17904TIP3    H175203   3.881   6.530   4.957 -1.2368  1.3400  2.0422
17904TIP3    H275204   3.947   6.609   4.846  1.3031 -0.6270  2.0867
17905TIP3   OH275205   3.130   4.720  15.691 -0.1545 -0.0371 -0.4604
17905TIP3    H175206   3.041   4.723  15.727 -0.1909 -1.8866 -0.3748
17905TIP3    H275207   3.182   4.774  15.751 -0.6526 -1.2972  1.1194
17906TIP3   OH275208   4.791   2.724   1.904 -0.1308 -0.6744  0.7314
17906TIP3    H175209   4.762   2.815   1.895 -2.4765 -1.3404  1.3885
17906TIP3    H275210   4.776   2.685   1.818  2.2345 -0.1230  0.0033
17907TIP3   OH275211   2.379   2.285   5.295  0.4200 -0.3614 -0.1044
17907TIP3    H175212   2.322   2.228   5.347  0.3594 -1.5387 -1.4452
17907TIP3    H275213   2.454   2.303   5.353  0.4353 -1.7835  0.3202
17908TIP3   OH275214   4.211   2.641   2.930  0.1597 -0.0629  0.2117
17908TIP3    H175215   4.266   2.694   2.873  0.0185 -0.2510 -0.1034
17908TIP3    H275216   4.203   2.692   3.011  0.4263  0.1669  0.0936
17909TIP3   OH275217   6.784   1.488   1.248 -0.6112 -0.1634 -0.2122
17909TIP3    H175218   6.774   1.393   1.243 -0.5191 -0.1425 -0.8266
17909TIP3    H275219   6.878   1.503   1.237 -0.7104  0.0399 -0.7818
17910TIP3   OH275220   3.239   6.386   4.639 -0.1271  0.4296 -0.1031
17910TIP3    H175221   3.305   6.419   4.578 -1.3219  1.7785 -0.6925
17910TIP3    H275222   3.276   6.402   4.726  1.9026 -2.1474 -0.4302
17911TIP3   OH275223   0.986   5.745  16.920 -0.1450  0.1926  0.1479
17911TIP3    H175224   1.033   5.720  17.000 -0.7323 -1.3142  0.0189
17911TIP3    H275225   0.898   5.766  16.950 -0.0138  0.8671  0.0727
17912TIP3   OH275226   1.771   1.947   0.634 -0.3532  0.3144 -0.2946
17912TIP3    H175227   1.771   1.855   0.609  0.7041  0.1661  0.2059
17912TIP3    H275228   1.702   1.954   0.700  1.9133 -0.9057  2.3201
17913TIP3   OH275229   0.434   0.420  13.996 -0.8189  0.2408  0.3010
17913TIP3    H175230   0.439   0.447  14.087  1.7464 -2.5194  1.0602
17913TIP3    H275231   0.351   0.373  13.989  1.6861 -5.0016  2.9406
17914TIP3   OH275232   3.938   4.549   3.685 -0.1519 -0.3841  0.1586
17914TIP3    H175233   3.923   4.622   3.625  1.4847  0.4917  0.7762
17914TIP3    H275234   3.985   4.484   3.632 -0.2533 -0.3399  0.0144
17915TIP3   OH275235   1.770   5.570   0.476  0.9990 -0.1770 -0.2914
17915TIP3    H175236   1.827   5.538   0.546  0.7191 -0.1055 -0.0283
17915TIP3    H275237   1.787   5.664   0.472  0.3343 -0.0277  0.3136
17916TIP3   OH275238   6.341   6.265   3.287 -0.2940 -0.1278  0.2644
17916TIP3    H175239   6.253   6.255   3.251 -1.6274  1.5122  2.9787
17916TIP3    H275240   6.348   6.198   3.354  0.7308 -0.5620 -0.2542
17917TIP3   OH275241   6.002   5.285  14.862 -0.1371 -0.2736  0.0242
17917TIP3    H175242   5.928   5.341  14.885  0.4300  0.2809  0.5161
17917TIP3    H275243   5.987   5.262  14.770  0.4051  1.9321 -0.6656
17918TIP3   OH275244   3.518   1.570  13.633 -0.3413  0.1928 -0.1185
17918TIP3    H175245   3.511   1.563  13.728  0.5607 -0.6443 -0.0998
17918TIP3    H275246   3.592   1.628  13.618  0.2677 -0.6141 -0.2981
17919TIP3   OH275247   0.029   0.571   3.577  0.3599  0.5729 -0.0946
17919TIP3    H175248   0.022   0.476   3.586  2.7585  0.2549 -1.1926
17919TIP3    H275249   0.069   0.600   3.659  1.2877  0.4183 -0.4929
17920TIP3   OH275250   0.622   4.047   3.110 -0.1012  0.1508 -0.2507
17920TIP3    H175251   0.568   3.973   3.082  0.5629  0.0387 -1.2785
17920TIP3    H275252   0.694   4.049   3.046  0.4617  1.0203  0.4056
17921TIP3   OH275253   4.837   3.632  12.363 -0.1355  0.5483 -0.7562
17921TIP3    H175254   4.900   3.644  12.292  1.3960 -0.6126  0.3736
17921TIP3    H275255   4.767   3.580  12.325 -1.9658  4.3048 -2.8924
17922TIP3   OH275256   4.562   1.120  17.144  0.4037 -0.4100 -0.3584
17922TIP3    H175257   4.546   1.199  17.092  0.0572 -1.2797 -1.6069
17922TIP3    H275258   4.511   1.052  17.100 -1.2201 -0.8416  2.0915
17923TIP3   OH275259   6.565   6.213   5.544  0.3828  0.2737  0.0189
17923TIP3    H175260   6.658   6.210   5.564  0.5741  0.0663 -0.8551
17923TIP3    H275261   6.550   6.136   5.488 -0.5976 -0.5061  1.3272
17924TIP3   OH275262   0.915   1.863  12.396 -0.1418  0.0196  0.2628
17924TIP3    H175263   0.901   1.923  12.469  1.3701  0.1580  0.4422
17924TIP3    H275264   0.922   1.920  12.319 -0.0254 -0.0189  0.2454
17925TIP3   OH275265   4.430   5.908   3.460 -0.4078 -0.0147 -0.0118
17925TIP3    H175266   4.506   5.882   3.512  1.2108  1.5525 -1.5396
17925TIP3    H275267   4.398   5.987   3.504 -1.7055 -1.1265  1.1137
17926TIP3   OH275268   2.058   4.605   0.132 -0.5468  0.6881 -0.3683
17926TIP3    H175269   1.966   4.598   0.155 -0.5871  2.3326  0.0935
17926TIP3    H275270   2.066   4.692   0.091  0.5734  0.0840 -1.4761
17927TIP3   OH275271   4.984   5.083  15.431  0.1391 -0.2703  0.5495
17927TIP3    H175272   5.077   5.098  15.445  0.4852 -1.8360  0.0755
17927TIP3    H275273   4.964   5.128  15.349  0.5175 -0.0535  0.5776
17928TIP3   OH275274   3.453   0.764   1.010  0.4819 -0.3543 -0.6007
17928TIP3    H175275   3.512   0.688   1.001  2.0771  0.1643  4.0717
17928TIP3    H275276   3.492   0.831   0.954  2.6550 -1.0229  0.0501
17929TIP3   OH275277   2.244   0.595  11.204 -0.2611 -0.4341  0.5996
17929TIP3    H175278   2.247   0.507  11.241  0.7376  0.0992  1.8317
17929TIP3    H275279   2.263   0.653  11.278 -1.3086  0.8472 -0.1001
17930TIP3   OH275280   3.586   0.967  12.208 -0.4021 -0.3093  0.1498
17930TIP3    H175281   3.625   0.983  12.122 -0.1474 -1.0500  0.1300
17930TIP3    H275282   3.517   1.034  12.215 -1.2208 -0.9900 -1.1302
17931TIP3   OH275283   5.235   6.049   4.941  0.2279 -0.4549  0.1507
17931TIP3    H175284   5.238   6.133   4.895  1.7520 -1.9162 -2.5740
17931TIP3    H275285   5.183   5.992   4.884  1.0097 -1.9374  0.8799
17932TIP3   OH275286   2.520   2.541  17.139  0.0321  0.5177 -0.0588
17932TIP3    H175287   2.479   2.500  17.215  0.0252  0.8859  0.1373
17932TIP3    H275288   2.595   2.589  17.175 -0.0754  0.8396 -0.2571
17933TIP3   OH275289   1.801   4.465  14.696  0.0502 -0.1289 -0.5031
17933TIP3    H175290   1.706   4.460  14.692  0.0933 -0.3739 -1.3146
17933TIP3    H275291   1.828   4.486  14.607  0.9096 -3.0621 -1.0093
17934TIP3   OH275292   4.443   0.679  11.119 -0.3061  0.1433 -0.2312
17934TIP3    H175293   4.529   0.702  11.082  0.5100 -2.4324 -0.0109
17934TIP3    H275294   4.438   0.728  11.201  0.7447  0.6895 -0.4847
17935TIP3   OH275295   4.249   0.285  14.315  0.2297  0.0263  0.1976
17935TIP3    H175296   4.178   0.339  14.279 -0.9015 -1.0809  0.7185
17935TIP3    H275297   4.244   0.203  14.265  0.5124 -0.4143  0.8828
17936TIP3   OH275298   3.279   1.756  11.213 -0.0738  0.0722 -0.0679
17936TIP3    H175299   3.336   1.791  11.282  0.9746 -0.7640 -0.5135
17936TIP3    H275300   3.297   1.663  11.211 -1.1837 -0.1447 -0.4847
17937TIP3   OH275301   6.292   4.405  13.654 -0.1156 -0.2090  0.3692
17937TIP3    H175302   6.206   4.368  13.636 -0.2492  0.4240 -0.2993
17937TIP3    H275303   6.274   4.495  13.679  0.5687  0.8086 -2.6565
17938TIP3   OH275304   5.789   4.805  16.450 -0.1375  0.1842  0.2288
17938TIP3    H175305   5.769   4.713  16.430 -1.0248  0.3430  0.3649
17938TIP3    H275306   5.861   4.827  16.391 -0.1999 -0.4806 -0.1045
17939TIP3   OH275307   1.148   6.181   5.704  0.1106 -0.8695  0.5067
17939TIP3    H175308   1.218   6.133   5.747  0.7328 -0.0870  0.3701
17939TIP3    H275309   1.181   6.271   5.696  0.0058 -0.9747 -1.5417
17940TIP3   OH275310   2.960   5.640  12.591 -0.1301  0.6078  0.3523
17940TIP3    H175311   3.041   5.655  12.640 -0.1334  0.4414  0.4096
17940TIP3    H275312   2.988   5.604  12.507 -0.1807 -0.0315  0.6118
17941TIP3   OH275313   0.092   3.843   2.763  0.3166  0.5286 -0.2190
17941TIP3    H175314   0.090   3.880   2.851  0.0673 -0.2893  0.1288
17941TIP3    H275315   0.107   3.918   2.705 -2.0851  1.4530  0.2898
17942TIP3   OH275316   6.035   6.484   2.074  0.4658  0.3814  0.3843
17942TIP3    H175317   6.035   6.558   2.013  0.3289 -0.5770 -0.7890
17942TIP3    H275318   6.076   6.413   2.025  2.3345  0.1901  2.1500
17943TIP3   OH275319   1.694   4.710  14.441 -0.3120  0.4666 -0.5380
17943TIP3    H175320   1.766   4.647  14.442 -1.5387 -0.9741 -0.8149
17943TIP3    H275321   1.659   4.708  14.530  1.4821  2.9734  0.2839
17944TIP3   OH275322   4.397   3.690   1.425  0.1290  0.1577 -0.4051
17944TIP3    H175323   4.332   3.628   1.390 -0.3123  0.0183  0.6424
17944TIP3    H275324   4.387   3.768   1.371 -0.8416  0.1030 -0.3110
17945TIP3   OH275325   0.632   3.509  12.590  0.5831 -0.0978  0.5143
17945TIP3    H175326   0.566   3.516  12.521  0.6719 -2.0722  0.1816
17945TIP3    H275327   0.702   3.569  12.563 -0.4710  0.9796  0.1636
17946TIP3   OH275328   1.716   5.065   3.709 -0.3583 -0.5515  0.1043
17946TIP3    H175329   1.669   5.139   3.673 -0.6645 -0.9723 -0.3679
17946TIP3    H275330   1.804   5.071   3.672 -0.3790 -0.4143  0.0791
17947TIP3   OH275331   6.676   0.938   3.317  0.2428  0.3559 -0.1423
17947TIP3    H175332   6.728   0.908   3.392 -1.9031  0.8157  1.5681
17947TIP3    H275333   6.711   0.888   3.243  2.2253 -0.3124  1.1999
17948TIP3   OH275334   3.002   5.294  14.607  0.0012 -0.6519 -0.1562
17948TIP3    H175335   3.028   5.306  14.698  0.0517 -1.1988 -0.0975
17948TIP3    H275336   3.003   5.382  14.570  2.4700 -0.7190 -0.3094
17949TIP3   OH275337   3.662   2.765   1.693 -0.0420  0.2259  0.2831
17949TIP3    H175338   3.652   2.846   1.643 -0.0196  0.5036  0.7300
17949TIP3    H275339   3.704   2.704   1.631  0.4838  0.7370  0.1330
17950TIP3   OH275340   2.341   5.589  16.058 -0.1809  0.1951 -0.0603
17950TIP3    H175341   2.325   5.495  16.046  0.3618  0.2495 -1.3250
17950TIP3    H275342   2.258   5.623  16.092 -0.6799 -0.5991 -0.4495
17951TIP3   OH275343   3.403   5.302  12.923  0.4378  0.2461  0.3987
17951TIP3    H175344   3.413   5.361  12.848  0.7604 -0.1387  0.1398
17951TIP3    H275345   3.349   5.230  12.891 -0.7172  0.8492  0.9696
17952TIP3   OH275346   5.872   2.129  16.918  0.8195  0.4334  0.3783
17952TIP3    H175347   5.944   2.191  16.909  2.8263 -1.6355  1.6118
17952TIP3    H275348   5.824   2.160  16.995  1.1760  1.0516  0.3569
17953TIP3   OH275349   6.609   5.177  13.250  0.1230 -0.1395 -0.2355
17953TIP3    H175350   6.618   5.213  13.162 -1.0571  0.5659 -0.0821
17953TIP3    H275351   6.675   5.223  13.302 -2.0622  2.6283  0.1926
17954TIP3   OH275352   1.002   4.115   1.011  0.0556 -0.0338 -0.1456
17954TIP3    H175353   0.933   4.098   0.947  0.0383  0.3705 -0.2352
17954TIP3    H275354   1.036   4.201   0.987  0.5956 -0.2361 -0.1068
17955TIP3   OH275355   5.902   1.424  16.970  0.3732 -0.1277  0.3054
17955TIP3    H175356   5.937   1.482  17.037 -1.1987  1.2907 -0.0710
17955TIP3    H275357   5.873   1.347  17.019  1.2407 -0.0391  0.9770
17956TIP3   OH275358   5.206   2.916   3.770 -0.3997 -0.2297 -0.1208
17956TIP3    H175359   5.125   2.883   3.731 -0.4867  0.2887 -0.3846
17956TIP3    H275360   5.276   2.873   3.721 -0.4845  1.7279 -2.0284
17957TIP3   OH275361   6.534   0.675  17.251 -0.1461  0.2356 -0.5812
17957TIP3    H175362   6.501   0.588  17.271 -0.1191  0.2959 -0.2574
17957TIP3    H275363   6.611   0.661  17.197  0.3070  0.0332  0.1151
17958TIP3   OH275364   4.514   5.975   3.057 -0.4292 -0.2511  0.1525
17958TIP3    H175365   4.531   5.979   2.963  0.2347  0.3226  0.2880
17958TIP3    H275366   4.420   5.984   3.065 -0.4554  0.0446 -0.4384
17959TIP3   OH275367   0.203   0.846  14.844  0.5207 -0.5451 -0.1725
17959TIP3    H175368   0.112   0.828  14.820  0.9308 -1.1521 -1.3194
17959TIP3    H275369   0.201   0.930  14.890 -0.9598 -1.7298  2.0218
17960TIP3   OH275370   6.308   1.863   2.707 -0.2452 -0.0978  0.2512
17960TIP3    H175371   6.318   1.769   2.721  1.3762 -0.0741 -0.6420
17960TIP3    H275372   6.358   1.904   2.778  1.1730  0.0633 -0.8237
17961TIP3   OH275373   1.212   3.165   5.344  0.4862 -0.5394  0.1007
17961TIP3    H175374   1.224   3.219   5.266 -2.8138  0.3248  0.0872
17961TIP3    H275375   1.162   3.089   5.313  0.4650 -0.9342  1.0913
17962TIP3   OH275376   2.784   0.269   1.224 -0.3433 -0.3890  0.1679
17962TIP3    H175377   2.723   0.213   1.272 -2.8998  1.3244 -0.9592
17962TIP3    H275378   2.858   0.281   1.283 -1.0138 -2.6298  1.5186
17963TIP3   OH275379   2.121   5.825  16.878  0.1405 -0.1660  0.2104
17963TIP3    H175380   2.042   5.871  16.851  0.8345  0.1657 -1.3083
17963TIP3    H275381   2.154   5.875  16.953  2.2319  3.3808 -2.8965
17964TIP3   OH275382   1.690   2.224   0.554  0.0204 -0.4574 -0.8354
17964TIP3    H175383   1.755   2.293   0.542 -0.9555  0.6683  0.1520
17964TIP3    H275384   1.741   2.146   0.576  1.0593  0.3447 -0.3644
17965TIP3   OH275385   4.976   2.298  15.069 -0.7230  0.0274 -0.0254
17965TIP3    H175386   4.988   2.261  15.156 -0.3873  0.0866 -0.0439
17965TIP3    H275387   4.895   2.259  15.036 -1.0032  0.2252  0.4264
17966TIP3   OH275388   0.875   0.354   1.132 -0.2290  0.0529  0.6563
17966TIP3    H175389   0.871   0.258   1.138  0.2891  0.1007  1.8762
17966TIP3    H275390   0.842   0.384   1.217 -0.0229  0.9496  0.4171
17967TIP3   OH275391   6.365   2.516  15.983  0.6587 -0.3667 -0.2861
17967TIP3    H175392   6.291   2.467  16.018 -0.1412  1.0929  0.0770
17967TIP3    H275393   6.426   2.523  16.056 -0.0700  0.8327  0.2105
17968TIP3   OH275394   4.938   1.302  12.958 -0.1029  0.2902  0.2684
17968TIP3    H175395   5.023   1.299  12.914 -1.1680 -1.4076 -1.7282
17968TIP3    H275396   4.925   1.214  12.991 -1.7672  0.1348 -0.7576
17969TIP3   OH275397   0.409   0.626  16.433  0.5791  0.5365  0.3489
17969TIP3    H175398   0.374   0.715  16.432 -1.0660 -0.0870 -1.0620
17969TIP3    H275399   0.493   0.634  16.388 -1.2450  0.8033 -3.2693
17970TIP3   OH275400   5.488   3.471  14.598  0.2222 -0.4011 -0.5013
17970TIP3    H175401   5.443   3.511  14.524 -1.3831 -2.4479 -0.6939
17970TIP3    H275402   5.535   3.396  14.561  1.3696 -0.0291  0.1764
17971TIP3   OH275403   4.724   2.257  14.910  0.2547 -0.2218  0.2591
17971TIP3    H175404   4.699   2.197  14.840 -1.2074  1.0999 -0.4112
17971TIP3    H275405   4.689   2.217  14.989  2.5313 -2.0833  0.3663
17972TIP3   OH275406   1.702   3.623   2.109  0.0813  0.3788 -0.0713
17972TIP3    H175407   1.735   3.628   2.020 -1.0909  1.5852 -0.4497
17972TIP3    H275408   1.764   3.675   2.161 -0.9415  2.2555 -0.7016
17973TIP3   OH275409   1.335   4.819   5.969 -0.1536  0.2752  0.3633
17973TIP3    H175410   1.300   4.804   6.057  0.2071  2.1893  0.8536
17973TIP3    H275411   1.259   4.814   5.912 -0.6785  0.8274  1.0062
17974TIP3   OH275412   0.526   0.282  12.198  0.8424 -0.0521  0.0085
17974TIP3    H175413   0.587   0.214  12.226  0.8890 -0.3933 -0.9153
17974TIP3    H275414   0.544   0.294  12.105 -1.2607 -0.9564 -0.5588
17975TIP3   OH275415   5.841   3.314   6.329 -0.0730 -0.0768 -0.5628
17975TIP3    H175416   5.804   3.259   6.399  0.2315  0.4569  0.0282
17975TIP3    H275417   5.765   3.355   6.289 -0.0446  3.5756  2.7745
17976TIP3   OH275418   0.744   2.077  14.177 -0.2267  0.5771 -0.3717
17976TIP3    H175419   0.807   2.027  14.229 -0.8681  1.2390  1.0636
17976TIP3    H275420   0.741   2.031  14.093  0.1827 -1.0157  0.4656
17977TIP3   OH275421   0.965   4.784   5.930  0.4381  0.0166  0.3671
17977TIP3    H175422   1.008   4.703   5.956 -2.4970 -1.5503  0.5676
17977TIP3    H275423   0.977   4.843   6.005  3.4044  0.1408 -0.1689
17978TIP3   OH275424   5.589   3.214   1.828 -0.1772 -0.4498  0.8071
17978TIP3    H175425   5.541   3.197   1.747  0.2881  0.3740  0.3519
17978TIP3    H275426   5.622   3.304   1.818  2.2056 -1.3186  0.7547
17979TIP3   OH275427   1.882   6.016  12.466  0.8261 -0.2798  0.1967
17979TIP3    H175428   1.910   5.934  12.426  1.6302 -0.8913  1.9356
17979TIP3    H275429   1.787   6.013  12.464  0.8552 -0.6549 -0.9119
17980TIP3   OH275430   0.058   0.810  12.526 -0.3037  0.4669 -0.6672
17980TIP3    H175431   0.126   0.876  12.543  0.7737  0.1347 -3.3969
17980TIP3    H275432   0.098   0.728  12.555 -0.5282  0.6064  0.0507
17981TIP3   OH275433   1.065   6.032  16.934 -0.4224 -0.4301  0.9619
17981TIP3    H175434   1.006   6.090  16.982 -2.4601 -0.9745 -0.8025
17981TIP3    H275435   1.039   5.944  16.962  0.4346 -0.6179  1.1569
17982TIP3   OH275436   4.516   5.749   1.177 -0.3531 -0.0333  0.8401
17982TIP3    H175437   4.494   5.800   1.099  0.7567  2.6762  2.2322
17982TIP3    H275438   4.432   5.713   1.206 -0.9878  0.0488 -0.8055
17983TIP3   OH275439   3.410   3.981  12.053 -0.6010 -0.2245 -0.1288
17983TIP3    H175440   3.375   3.946  12.135  0.8797  0.2860  0.7500
17983TIP3    H275441   3.333   3.993  11.997 -1.6600 -0.3383  1.2733
17984TIP3   OH275442   1.414   4.159  16.169  0.7111  0.0698 -0.3971
17984TIP3    H175443   1.371   4.081  16.203  0.5150 -0.0135 -0.8432
17984TIP3    H275444   1.471   4.127  16.099  1.8431  0.1135  0.4838
17985TIP3   OH275445   3.982   3.583   2.096  0.1674  0.2823  0.5524
17985TIP3    H175446   4.017   3.630   2.020 -0.7391  1.7595  1.0342
17985TIP3    H275447   3.941   3.505   2.058  0.1911  0.7384 -0.4346
17986TIP3   OH275448   4.592   4.953  13.182 -0.0935  0.2140  0.0348
17986TIP3    H175449   4.655   4.995  13.240 -1.2878  2.4592 -0.2469
17986TIP3    H275450   4.561   4.877  13.230  1.9882 -0.3009  0.6210
17987TIP3   OH275451   0.414   4.207   3.883  0.0870 -0.3354 -0.3098
17987TIP3    H175452   0.470   4.212   3.806 -0.6285  0.5961 -0.7813
17987TIP3    H275453   0.326   4.226   3.850  0.1843  2.9878  1.1927
17988TIP3   OH275454   0.304   4.795   5.048  0.0324 -0.2893  0.0042
17988TIP3    H175455   0.306   4.775   5.142 -0.7676  0.2288  0.1392
17988TIP3    H275456   0.232   4.857   5.038 -2.2704 -3.0817 -1.4511
17989TIP3   OH275457   2.859   3.276   4.200 -0.0233 -0.5999 -0.3530
17989TIP3    H175458   2.900   3.301   4.117 -0.2862  0.8863 -0.0468
17989TIP3    H275459   2.774   3.240   4.175  0.4887 -1.4999 -0.8222
17990TIP3   OH275460   5.223   6.225   3.735  0.2033  0.4612 -0.1924
17990TIP3    H175461   5.296   6.180   3.776  0.1028  1.6539  1.3313
17990TIP3    H275462   5.263   6.296   3.685  0.2486 -0.3648 -1.3517
17991TIP3   OH275463   5.691   5.225   3.990 -0.5468 -0.1717  0.5119
17991TIP3    H175464   5.780   5.251   4.017 -1.4794  1.8153  1.8472
17991TIP3    H275465   5.703   5.144   3.942  1.9637 -0.1712  1.0619
17992TIP3   OH275466   1.912   6.016  17.289 -0.3312  0.2216 -0.2787
17992TIP3    H175467   1.819   6.034  17.302 -0.1323  0.1620  1.4083
17992TIP3    H275468   1.915   5.928  17.252 -0.9118 -0.4305  1.1609
17993TIP3   OH275469   1.451   2.861  17.261 -0.5996  0.1319 -0.7092
17993TIP3    H175470   1.517   2.845  17.194 -0.4625  0.8805 -0.7578
17993TIP3    H275471   1.368   2.852  17.214 -0.5136  0.2014 -0.8764
17994TIP3   OH275472   3.595   6.007  13.651  0.0247 -0.0952 -0.1923
17994TIP3    H175473   3.544   6.034  13.575 -0.5949  1.5646  0.7705
17994TIP3    H275474   3.549   5.930  13.684  0.9043 -1.4393 -2.0882
17995TIP3   OH275475   4.289   1.775   5.427 -0.3506 -0.6899 -0.5972
17995TIP3    H175476   4.232   1.771   5.504 -0.2943  2.2352 -0.3456
17995TIP3    H275477   4.372   1.736   5.456 -0.1181  0.9718  1.0621
17996TIP3   OH275478   1.364   2.196  12.736  0.1017  0.0945 -0.1352
17996TIP3    H175479   1.405   2.176  12.652 -0.7380 -1.7091 -0.1426
17996TIP3    H275480   1.423   2.259  12.778  0.8836  0.4674 -1.7642
17997TIP3   OH275481   1.386   0.474   3.672 -0.1037  0.7355  0.4310
17997TIP3    H175482   1.321   0.472   3.602  0.2554 -1.8920  0.1359
17997TIP3    H275483   1.359   0.403   3.731  3.1731 -1.2074 -0.3142
17998TIP3   OH275484   2.103   6.165  15.793 -0.2342 -0.1683  0.5236
17998TIP3    H175485   2.032   6.143  15.733 -0.4729  0.4525  0.5691
17998TIP3    H275486   2.181   6.126  15.754 -0.5059 -0.3752  0.1820
17999TIP3   OH275487   0.229   5.110  12.522  0.2390 -0.3383 -0.1373
17999TIP3    H175488   0.319   5.105  12.553  0.5288 -2.5253 -1.2734
17999TIP3    H275489   0.176   5.082  12.596  0.5467 -0.0998  0.1752
18000TIP3   OH275490   6.305   4.675  11.758  0.2769  0.0770 -0.1575
18000TIP3    H175491   6.274   4.660  11.668 -0.6115  0.7640  0.0254
18000TIP3    H275492   6.400   4.676  11.751  0.2071  2.3701 -1.4802
18001TIP3   OH275493   2.185   6.284  13.473 -0.1963 -0.3432  0.9300
18001TIP3    H175494   2.108   6.228  13.485 -0.3886  0.1266  1.9353
18001TIP3    H275495   2.149   6.370  13.450  0.1172 -0.8077 -1.4750
18002TIP3   OH275496   5.983   3.759   0.183  0.1667  0.5969  0.3324
18002TIP3    H175497   5.896   3.729   0.212  0.0055  0.2804 -0.4894
18002TIP3    H275498   6.027   3.783   0.265 -0.0028 -1.0659  0.9504
18003TIP3   OH275499   5.833   3.083   2.850  0.2352 -0.2414 -0.1582
18003TIP3    H175500   5.801   3.092   2.940  0.9150  0.2597  0.0390
18003TIP3    H275501   5.777   3.017   2.811 -1.9575  1.6375 -0.2520
18004TIP3   OH275502   2.742   2.060  14.633  0.4181 -0.0960  0.3165
18004TIP3    H175503   2.668   2.089  14.688  1.6915  1.6935  1.1407
18004TIP3    H275504   2.817   2.109  14.667  1.6415 -0.5494 -1.6797
18005TIP3   OH275505   0.886   0.694  16.138 -0.1568  0.4451  0.2398
18005TIP3    H175506   0.937   0.774  16.148 -1.0597  1.5848 -3.4651
18005TIP3    H275507   0.939   0.638  16.082 -0.0231 -1.1839  1.9168
18006TIP3   OH275508   0.201   4.068  15.191 -0.5816 -0.3593 -0.1194
18006TIP3    H175509   0.173   4.060  15.282 -1.8949 -0.6714 -0.5420
18006TIP3    H275510   0.220   4.161  15.179 -4.2913  0.4247 -0.6187
18007TIP3   OH275511   0.935   4.391   2.056  0.8613  0.1024  0.2290
18007TIP3    H175512   1.012   4.444   2.078  0.5230  0.2734  1.0231
18007TIP3    H275513   0.966   4.301   2.061  1.2408  0.1986 -0.3541
18008TIP3   OH275514   0.122   2.299  11.809  0.0230 -0.2219 -0.0592
18008TIP3    H175515   0.076   2.368  11.762 -0.4200 -0.5034 -0.0449
18008TIP3    H275516   0.159   2.343  11.886 -0.2967 -0.0126 -0.0249
18009TIP3   OH275517   6.417   2.543  16.282  0.2534  0.2960 -0.1143
18009TIP3    H175518   6.513   2.549  16.286  0.3121 -0.1891 -0.7240
18009TIP3    H275519   6.395   2.477  16.348  0.1895  1.7231  1.3206
18010TIP3   OH275520   1.183   2.513   3.819 -0.1401 -0.1925  0.6240
18010TIP3    H175521   1.157   2.524   3.910 -0.3663  1.5736  0.3774
18010TIP3    H275522   1.190   2.603   3.785  0.7315 -0.7988 -0.8711
18011TIP3   OH275523   0.115   1.610   2.754  0.0144 -0.3267 -0.2264
18011TIP3    H175524   0.031   1.582   2.790 -0.5979  1.4070 -0.2723
18011TIP3    H275525   0.129   1.552   2.679 -0.9286 -0.9198  0.0444
18012TIP3   OH275526   2.030   0.426  14.779  0.2372  0.2281 -0.2228
18012TIP3    H175527   2.118   0.416  14.743 -0.1150 -1.8016 -0.6195
18012TIP3    H275528   2.031   0.376  14.861 -0.8534 -0.8633 -0.8423
18013TIP3   OH275529   1.929   5.310   3.972 -0.6413  0.0490  0.1118
18013TIP3    H175530   1.853   5.360   3.942 -0.3061  0.2912 -0.3514
18013TIP3    H275531   1.952   5.254   3.897 -0.3697 -0.0247  0.2498
18014TIP3   OH275532   0.713   2.440   0.934 -0.4646 -0.2521 -0.2608
18014TIP3    H175533   0.735   2.520   0.982  1.1420 -0.7128 -0.1771
18014TIP3    H275534   0.669   2.470   0.855  0.6070  0.7594 -0.4893
18015TIP3   OH275535   5.405   2.031   1.280 -0.4083 -0.0049 -0.5773
18015TIP3    H175536   5.446   2.082   1.350  0.5866 -2.8532  0.9831
18015TIP3    H275537   5.373   1.952   1.323 -2.1669 -0.6214 -2.8926
18016TIP3   OH275538   4.286   6.234   6.037 -0.1883 -0.0786 -0.4102
18016TIP3    H175539   4.242   6.279   5.964 -0.2344 -0.6780 -0.7576
18016TIP3    H275540   4.215   6.193   6.086 -0.1000 -0.2179 -0.3996
18017TIP3   OH275541   5.243   6.771  11.675 -0.0166  0.0874  0.4263
18017TIP3    H175542   5.231   6.822  11.595  0.6493  1.4506  1.1833
18017TIP3    H275543   5.330   6.733  11.665 -0.5044 -0.9143 -0.1285
18018TIP3   OH275544   2.632   6.618  11.419  0.1856  0.5055 -0.1497
18018TIP3    H175545   2.722   6.623  11.386  0.1170  0.6984 -0.3139
18018TIP3    H275546   2.583   6.580  11.346 -0.1042  1.6373 -0.5500
18019TIP3   OH275547   4.956   1.391  11.709  0.2648  0.2137 -0.1829
18019TIP3    H175548   4.951   1.431  11.796 -0.8546  0.3204 -0.2855
18019TIP3    H275549   5.044   1.355  11.703 -0.7029 -2.7666  2.3067
18020TIP3   OH275550   1.388   6.424  12.149  0.0048 -0.0212 -0.8855
18020TIP3    H175551   1.355   6.337  12.128 -2.6877  0.8161 -0.3350
18020TIP3    H275552   1.431   6.453  12.069 -0.9475 -1.0112 -1.7780
18021TIP3   OH275553   3.929   4.570   6.537  0.4040 -0.1857  0.2897
18021TIP3    H175554   4.005   4.589   6.483 -1.0457  3.3054 -0.6909
18021TIP3    H275555   3.955   4.597   6.625  0.1489  1.5114 -0.1412
18022TIP3   OH275556   2.620   4.980  12.377 -0.6970 -0.4340  0.1498
18022TIP3    H175557   2.611   4.970  12.472 -1.5841 -1.2356 -0.0101
18022TIP3    H275558   2.556   4.919  12.340  0.0941 -0.6060 -0.9723
18023TIP3   OH275559   6.044   1.062  14.135  0.0640 -0.5091 -0.3910
18023TIP3    H175560   6.069   1.113  14.212 -2.0585 -1.3292  0.8913
18023TIP3    H275561   6.091   0.979  14.145 -1.3638 -1.2011  0.8622
18024TIP3   OH275562   3.669   5.594   3.483  0.1681  0.1917 -0.5265
18024TIP3    H175563   3.621   5.676   3.477 -0.0732  0.1463  0.6761
18024TIP3    H275564   3.663   5.569   3.575  0.6674 -0.9154 -0.7835
18025TIP3   OH275565   4.497   5.838  14.413 -0.8464 -0.2783 -0.3775
18025TIP3    H175566   4.516   5.852  14.506 -0.5009  0.5102 -0.5649
18025TIP3    H275567   4.427   5.772  14.412 -1.1627  0.0510  0.4528
18026TIP3   OH275568   2.881   1.507  12.666  0.3039  0.0878 -0.1102
18026TIP3    H175569   2.899   1.432  12.723  1.9013  0.3579 -0.2370
18026TIP3    H275570   2.950   1.570  12.687 -0.8329  1.4016 -0.2435
18027TIP3   OH275571   0.549   3.341  14.613 -0.4157 -0.2330  0.4826
18027TIP3    H175572   0.634   3.297  14.614 -0.0383  0.4559 -0.2714
18027TIP3    H275573   0.569   3.432  14.635 -0.9494 -0.0656  0.2782
18028TIP3   OH275574   6.596   1.361   4.241  0.0110 -0.1534  0.2762
18028TIP3    H175575   6.502   1.355   4.255  0.2080 -1.2539  1.2704
18028TIP3    H275576   6.634   1.315   4.316  1.3251  0.0310 -0.2632
18029TIP3   OH275577   5.171   3.416  12.666  0.3437 -0.6558  0.8784
18029TIP3    H175578   5.259   3.378  12.671  0.4199 -0.4112  1.4455
18029TIP3    H275579   5.117   3.356  12.718  0.3173 -0.4006  1.1424
18030TIP3   OH275580   2.887   5.435  12.943 -0.0537  0.3153 -0.4099
18030TIP3    H175581   2.840   5.518  12.953  2.0599  1.5988 -0.7844
18030TIP3    H275582   2.934   5.443  12.859 -0.0263 -1.3663 -0.5866
18031TIP3   OH275583   6.437   1.851  17.276 -0.1977  0.9352  0.0744
18031TIP3    H175584   6.447   1.838  17.370 -2.5276  0.4068  0.2820
18031TIP3    H275585   6.490   1.783  17.236  1.4744  1.6761  0.9865
18032TIP3   OH275586   1.678   5.737  10.685 -0.6572 -0.1347  0.2225
18032TIP3    H175587   1.657   5.817  10.638  0.6499 -0.3634 -0.7720
18032TIP3    H275588   1.669   5.760  10.778 -0.2896  1.1468 -0.0642
18033TIP3   OH275589   1.897   5.897   1.337  0.0018 -0.0096  0.1648
18033TIP3    H175590   1.803   5.886   1.319 -0.0289 -0.2617  0.4786
18033TIP3    H275591   1.902   5.917   1.430  0.3556 -1.3822  0.4506
18034TIP3   OH275592   6.525   1.959   1.041 -0.6955  0.6295  0.2383
18034TIP3    H175593   6.592   1.948   1.108  0.9259 -0.1099 -1.4660
18034TIP3    H275594   6.535   1.883   0.983 -0.1424  2.6451 -2.4536
18035TIP3   OH275595   6.808   5.551  12.164 -0.6364  0.3910 -0.5600
18035TIP3    H175596   6.765   5.472  12.196 -0.5662 -0.2264 -1.9171
18035TIP3    H275597   6.852   5.523  12.083 -3.1881  2.5026 -2.7556
18036TIP3   OH275598   5.256   4.639  16.898  0.0882 -0.2471  0.2417
18036TIP3    H175599   5.256   4.717  16.953 -1.6876 -0.4652  0.6029
18036TIP3    H275600   5.165   4.608  16.901  1.0144 -3.0123  1.0857
18037TIP3   OH275601   5.872   2.332   2.870  0.0716  0.4065 -0.1619
18037TIP3    H175602   5.835   2.289   2.792  0.7117 -0.6862  0.1192
18037TIP3    H275603   5.857   2.270   2.941 -0.5995  1.4472  0.6200
18038TIP3   OH275604   3.878   4.743  14.846 -0.2838 -0.0233  0.6921
18038TIP3    H175605   3.941   4.705  14.908 -0.1588 -1.7111 -0.4362
18038TIP3    H275606   3.860   4.672  14.784 -0.8814  1.4506 -0.8481
18039TIP3   OH275607   4.906   0.856  11.928 -0.1448  0.0273  0.0687
18039TIP3    H175608   4.865   0.799  11.994  0.9200 -0.0198  0.7126
18039TIP3    H275609   4.949   0.924  11.980 -0.1935  0.5866 -0.6348
18040TIP3   OH275610   4.360   0.060   0.177  0.2085 -0.3876 -0.4854
18040TIP3    H175611   4.346   0.152   0.155 -2.1376 -0.6542 -0.2345
18040TIP3    H275612   4.291   0.013   0.131  1.0518 -1.9735 -0.1740
18041TIP3   OH275613   5.133   2.259  12.118 -0.1620  0.1664  0.0686
18041TIP3    H175614   5.071   2.326  12.148  1.3482 -0.3278  4.6766
18041TIP3    H275615   5.214   2.307  12.101 -0.0457 -0.0183  0.1027
18042TIP3   OH275616   5.783   1.948   0.171  0.2172  0.9706  0.2884
18042TIP3    H175617   5.774   1.853   0.180 -0.1772  0.8069 -1.5161
18042TIP3    H275618   5.737   1.984   0.247  0.0869 -0.2720  0.8161
18043TIP3   OH275619   5.176   3.787   3.190  0.1432 -0.4357  0.1870
18043TIP3    H175620   5.233   3.844   3.139  0.9346 -1.9283 -0.6490
18043TIP3    H275621   5.088   3.808   3.160  0.3515  0.8966  0.4700
18044TIP3   OH275622   3.657   0.997  14.633 -0.4512  0.0330  0.4198
18044TIP3    H175623   3.626   0.913  14.667  1.5810 -0.2908  1.5991
18044TIP3    H275624   3.662   1.054  14.710  1.9703  0.0109  0.3144
18045TIP3   OH275625   0.658   0.102  15.061  0.1627  0.0475  0.3245
18045TIP3    H175626   0.651   0.024  15.005  2.6113 -0.2461  0.3286
18045TIP3    H275627   0.653   0.068  15.150 -3.8486  0.5292  0.3372
18046TIP3   OH275628   3.790   4.531  13.010  0.2871 -0.3619 -0.1453
18046TIP3    H175629   3.752   4.532  12.922 -0.8445  0.8202  0.3371
18046TIP3    H275630   3.821   4.441  13.022 -0.8910 -0.9250 -1.1831
18047TIP3   OH275631   6.502   4.420   5.024  0.2707 -0.0165 -0.8773
18047TIP3    H175632   6.445   4.405   5.099 -1.1994  0.0919 -1.9599
18047TIP3    H275633   6.475   4.355   4.959  0.7445  0.6361 -1.7451
18048TIP3   OH275634   2.664   3.683   0.021 -0.5619 -0.2012 -0.3906
18048TIP3    H175635   2.684   3.688  -0.073 -1.7241 -0.0923 -0.6481
18048TIP3    H275636   2.730   3.624   0.057  1.6697  1.9878 -0.7466
18049TIP3   OH275637   2.925   0.101  10.769  0.0943 -0.5372 -0.6058
18049TIP3    H175638   2.853   0.073  10.713  0.8429 -2.0581 -0.8224
18049TIP3    H275639   2.980   0.156  10.713 -2.2023  2.8075  0.2430
18050TIP3   OH275640   0.154   0.106  13.835  0.4951 -0.0967 -0.8978
18050TIP3    H175641   0.100   0.115  13.757  0.6831 -1.6047 -1.2079
18050TIP3    H275642   0.103   0.048  13.893  0.7603  0.2965 -0.2574
18051TIP3   OH275643   4.044   2.718  12.483  0.1244 -0.4790  0.1783
18051TIP3    H175644   4.026   2.626  12.500 -0.2217 -0.6364 -0.9810
18051TIP3    H275645   4.064   2.755  12.569 -1.4996 -1.2360  0.9092
18052TIP3   OH275646   0.758   2.217  16.897 -0.3983  0.7358 -0.0130
18052TIP3    H175647   0.720   2.295  16.857  0.6730  1.1677 -0.2030
18052TIP3    H275648   0.807   2.175  16.826 -0.0768  0.4783  0.3568
18053TIP3   OH275649   4.166   5.341  13.967  0.1856  0.1057  0.5465
18053TIP3    H175650   4.193   5.318  13.878  0.0843 -1.0625  0.8026
18053TIP3    H275651   4.080   5.298  13.977  0.3531 -0.0455  1.3175
18054TIP3   OH275652   6.480   0.985  12.971  0.1420  0.2603  0.6609
18054TIP3    H175653   6.464   1.012  12.881 -0.1970 -0.1910  0.5851
18054TIP3    H275654   6.561   1.030  12.995  1.1271 -0.8934 -0.4078
18055TIP3   OH275655   3.203   5.101  14.521  0.0251 -0.5165 -0.0852
18055TIP3    H175656   3.121   5.150  14.516  1.6082  2.2552 -0.0474
18055TIP3    H275657   3.221   5.074  14.431 -0.8977 -1.1061 -0.0962
18056TIP3   OH275658   0.343   1.375   2.585 -0.2728 -0.4435  0.0927
18056TIP3    H175659   0.298   1.308   2.535 -1.4514  0.8011 -0.5661
18056TIP3    H275660   0.309   1.458   2.550  2.8207  0.5614 -0.6916
18057TIP3   OH275661   0.481   6.508  15.162  0.0223 -0.3819  0.3479
18057TIP3    H175662   0.510   6.462  15.241  0.1323 -1.1941 -0.1683
18057TIP3    H275663   0.562   6.530  15.116 -0.0416  0.1247  0.4733
18058TIP3   OH275664   2.749   6.212   0.339  0.4831 -0.4077 -0.6386
18058TIP3    H175665   2.669   6.229   0.388  0.3278  0.9619 -1.3271
18058TIP3    H275666   2.728   6.138   0.283  0.2933 -1.2258  0.4923
18059TIP3   OH275667   2.468   1.328  16.064  0.4309 -0.2128  0.5801
18059TIP3    H175668   2.562   1.348  16.065  0.5742 -0.8727  0.9433
18059TIP3    H275669   2.462   1.241  16.104 -0.5747  0.7731  2.6108
18060TIP3   OH275670   0.655   6.543  12.089  0.0808  0.4302  0.5005
18060TIP3    H175671   0.658   6.586  12.003  1.5322 -0.0245  0.3155
18060TIP3    H275672   0.647   6.450  12.069 -1.8275  0.4879  0.8960
18061TIP3   OH275673   6.321   2.295  12.355  0.4666  0.1060 -0.0928
18061TIP3    H175674   6.289   2.234  12.421  2.2570 -1.6852 -0.8298
18061TIP3    H275675   6.301   2.253  12.271  0.9236  0.9439 -0.6382
18062TIP3   OH275676   0.739   1.121  16.763  0.3133 -0.4945  0.2184
18062TIP3    H175677   0.750   1.201  16.711  0.7338 -0.5675  0.1921
18062TIP3    H275678   0.645   1.113  16.775  0.2668  0.0007  0.2103
18063TIP3   OH275679   2.852   1.917  15.890 -0.0607 -0.2058  0.3313
18063TIP3    H175680   2.805   1.835  15.908  0.8895 -0.5830  1.1365
18063TIP3    H275681   2.914   1.925  15.962  0.2923  0.9036 -0.0914
18064TIP3   OH275682   0.779   5.135  11.554 -0.2981  0.2066  0.0131
18064TIP3    H175683   0.752   5.195  11.623 -0.2638 -1.7834  1.7943
18064TIP3    H275684   0.709   5.141  11.488 -0.8129  1.3908  0.6713
18065TIP3   OH275685   1.136   3.511  16.046 -0.1806 -0.0505 -0.0256
18065TIP3    H175686   1.108   3.427  16.081 -1.1580  0.2427 -0.0764
18065TIP3    H275687   1.181   3.554  16.120 -0.7736 -0.1129  0.3745
18066TIP3   OH275688   2.974   6.414   0.693 -0.3105 -0.1698 -0.2559
18066TIP3    H175689   2.980   6.363   0.613  1.9429 -1.5147  0.7330
18066TIP3    H275690   3.061   6.453   0.703 -0.7093  0.3608  1.2764
18067TIP3   OH275691   2.419   2.765  11.457 -0.7449 -0.1358  0.1507
18067TIP3    H175692   2.506   2.767  11.496 -0.6751  1.6625 -0.0318
18067TIP3    H275693   2.388   2.676  11.470  1.2794 -0.9023 -0.1291
18068TIP3   OH275694   5.982   6.556  12.147 -0.0773 -0.1449 -0.4948
18068TIP3    H175695   6.067   6.556  12.102  0.0249  0.3800 -0.3044
18068TIP3    H275696   5.918   6.574  12.078 -0.0687 -0.8797 -0.6994
18069TIP3   OH275697   3.611   1.743   1.287  0.4503  0.4187 -0.1688
18069TIP3    H175698   3.526   1.753   1.329  0.4654 -1.9010  0.4845
18069TIP3    H275699   3.656   1.826   1.305 -1.0274  1.0035  0.9664
18070TIP3   OH275700   3.052   5.812   2.072 -0.5528  0.6643 -0.0708
18070TIP3    H175701   2.982   5.836   2.133  0.6081  1.3373  1.0262
18070TIP3    H275702   3.083   5.895   2.038  1.6783  0.6062  1.6948
18071TIP3   OH275703   0.910   0.808   4.368 -0.7833 -0.5926  0.6529
18071TIP3    H175704   1.001   0.778   4.377 -0.9454 -1.8612 -1.6400
18071TIP3    H275705   0.912   0.899   4.400  1.5884 -0.1515 -0.5647
18072TIP3   OH275706   0.955   5.419   1.991  0.1181 -0.3053 -0.4962
18072TIP3    H175707   1.045   5.446   1.974  0.5102 -1.0094  0.4262
18072TIP3    H275708   0.902   5.495   1.967  1.0740  0.6534  0.3637
18073TIP3   OH275709   0.065   5.273   4.330 -0.0076  0.3291 -0.2084
18073TIP3    H175710   0.137   5.312   4.381 -0.4963 -0.4384  1.0816
18073TIP3    H275711   0.027   5.347   4.283 -0.6568  1.4032  1.8915
18074TIP3   OH275712   0.764   6.703   1.654 -0.0360  0.5164 -0.0978
18074TIP3    H175713   0.856   6.690   1.632  0.0366  1.4041 -0.3419
18074TIP3    H275714   0.764   6.724   1.748  0.0055  0.4246 -0.0781
18075TIP3   OH275715   3.436   5.857   5.194  0.2356 -0.6927  0.3405
18075TIP3    H175716   3.509   5.878   5.251 -0.0615 -0.6072  0.6930
18075TIP3    H275717   3.399   5.941   5.169 -0.1526 -0.7520  0.7038
18076TIP3   OH275718   3.620   2.250   3.108 -0.9737  0.1981  0.0688
18076TIP3    H175719   3.684   2.263   3.177  2.3974  0.3836 -2.9704
18076TIP3    H275720   3.579   2.166   3.128 -0.6862  0.6678  2.7084
18077TIP3   OH275721   2.211   6.370   2.828  0.2307  0.0969 -0.6056
18077TIP3    H175722   2.145   6.428   2.791 -1.2672 -0.3359  1.2760
18077TIP3    H275723   2.225   6.403   2.917  1.7305 -0.4905 -0.6064
18078TIP3   OH275724   1.668   1.727   3.251  0.5475  0.0118 -0.0666
18078TIP3    H175725   1.588   1.714   3.200  0.8341 -1.5405 -0.1490
18078TIP3    H275726   1.727   1.658   3.221  1.0426 -0.3601  1.6794
18079TIP3   OH275727   4.060   0.085  13.458  0.3048  0.4460  0.2538
18079TIP3    H175728   3.969   0.103  13.437 -0.1551  0.2186  2.0195
18079TIP3    H275729   4.065   0.089  13.553  2.4346  1.8301  0.1241
18080TIP3   OH275730   5.735   5.727   5.294 -0.3616 -0.3253 -0.0454
18080TIP3    H175731   5.684   5.705   5.372 -2.1886  1.0813 -0.7788
18080TIP3    H275732   5.770   5.814   5.312  0.6113 -0.7066 -0.1099
18081TIP3   OH275733   4.649   6.466   5.835  0.3057 -0.1695  0.0702
18081TIP3    H175734   4.702   6.513   5.900 -0.1581  1.4565 -0.7164
18081TIP3    H275735   4.655   6.374   5.862  1.8075  0.2415  1.2089
18082TIP3   OH275736   1.744   0.249  14.292  0.4956 -0.1295 -0.5080
18082TIP3    H175737   1.665   0.248  14.347  0.6699 -0.8421 -0.2646
18082TIP3    H275738   1.814   0.218  14.349  0.7892 -0.3200 -0.9665
18083TIP3   OH275739   2.564   1.511   0.986  0.6106  0.0174  1.2432
18083TIP3    H175740   2.565   1.606   0.993  0.5429  0.0676  0.5870
18083TIP3    H275741   2.550   1.481   1.075 -0.0088  0.6375  1.3625
18084TIP3   OH275742   2.670   1.041   3.764 -0.1255  0.0318 -0.4035
18084TIP3    H175743   2.662   0.978   3.835  0.8951  0.7659  0.3735
18084TIP3    H275744   2.635   1.122   3.801 -0.6406  0.1434 -1.1223
18085TIP3   OH275745   6.395   6.722  11.058  0.0371 -0.1630  0.4266
18085TIP3    H175746   6.429   6.687  10.975 -2.4656 -1.7289  0.0126
18085TIP3    H275747   6.429   6.811  11.062 -0.2395  0.1183 -2.5655
18086TIP3   OH275748   0.052   3.342  11.973 -0.2578 -0.5538  0.3848
18086TIP3    H175749   0.032   3.293  11.892 -3.3757  1.3376 -0.0934
18086TIP3    H275750   0.072   3.430  11.943  0.7612 -0.3857  1.5548
18087TIP3   OH275751   2.048   6.230  10.104 -0.1262 -0.6880  0.0673
18087TIP3    H175752   1.966   6.248  10.150 -0.2942  0.2945 -0.6056
18087TIP3    H275753   2.115   6.272  10.158 -0.2923  0.2093 -0.4020
18088TIP3   OH275754   5.819   0.392   6.432 -0.3591 -0.4295  0.1856
18088TIP3    H175755   5.810   0.402   6.337 -1.2050 -0.5626  0.2440
18088TIP3    H275756   5.754   0.453   6.468  1.3775  1.1583  0.7174
18089TIP3   OH275757   6.663   2.092   1.642 -0.6134 -0.2804  0.8071
18089TIP3    H175758   6.604   2.088   1.567 -0.6337 -1.4545  0.8661
18089TIP3    H275759   6.609   2.124   1.714 -1.2884 -1.6496  0.9371
18090TIP3   OH275760   5.166   2.780  11.654  0.5809 -0.1365 -1.0052
18090TIP3    H175761   5.182   2.818  11.568  0.5674  0.2200 -0.8536
18090TIP3    H275762   5.239   2.810  11.708 -0.4452  1.2877 -0.3761
18091TIP3   OH275763   4.115   2.098  14.536  0.2950  0.2437  0.0501
18091TIP3    H175764   4.123   2.061  14.624  1.1628 -1.5702 -0.7644
18091TIP3    H275765   4.205   2.120  14.511  0.2178 -0.4046 -0.8504
18092TIP3   OH275766   5.014   1.896   6.784  0.1693 -0.2261 -0.3844
18092TIP3    H175767   4.944   1.955   6.758 -0.9129 -0.8864  0.9592
18092TIP3    H275768   5.056   1.939   6.858  0.1620 -0.5791 -0.1750
18093TIP3   OH275769   4.635   2.850   2.168  0.2213  0.7118 -0.1063
18093TIP3    H175770   4.674   2.805   2.093 -0.0555 -1.0657  0.7949
18093TIP3    H275771   4.541   2.838   2.156  0.1117  1.6889 -0.2423
18094TIP3   OH275772   5.455   3.294  12.253  0.0573  0.0064  0.8369
18094TIP3    H175773   5.385   3.327  12.197  0.3415  1.1569  1.1395
18094TIP3    H275774   5.429   3.320  12.341  0.9068  0.5287  0.9399
18095TIP3   OH275775   2.315   5.518   2.074 -0.1652  0.6932 -0.6934
18095TIP3    H175776   2.274   5.488   2.155 -1.5659 -2.6435 -2.5294
18095TIP3    H275777   2.243   5.553   2.022 -0.1802 -1.9995 -2.5509
18096TIP3   OH275778   4.184   4.730   3.540 -0.2194 -0.4521 -0.2021
18096TIP3    H175779   4.108   4.712   3.595  0.0460 -0.6519  0.1015
18096TIP3    H275780   4.149   4.776   3.464 -0.3303  1.5401  1.0419
18097TIP3   OH275781   6.558   2.246   2.932  0.7157 -0.2105 -0.1294
18097TIP3    H175782   6.520   2.205   3.010  0.0859 -1.0096 -0.8420
18097TIP3    H275783   6.570   2.337   2.957 -0.5298 -0.2149  0.5377
18098TIP3   OH275784   4.106   0.566  15.661 -0.1096 -0.3691 -0.0405
18098TIP3    H175785   4.093   0.484  15.709  0.4368 -0.1467  0.4974
18098TIP3    H275786   4.179   0.609  15.706 -0.4422  0.4516 -0.2749
18099TIP3   OH275787   6.378   6.424  11.155 -0.6544  0.2001 -0.2830
18099TIP3    H175788   6.401   6.348  11.100 -2.3704 -0.1404 -0.5493
18099TIP3    H275789   6.304   6.394  11.207 -0.6946  1.3890  0.3501
18100TIP3   OH275790   3.344   2.629   3.207  0.6663  0.1137  0.4059
18100TIP3    H175791   3.412   2.615   3.273 -0.1294 -0.1794  1.1631
18100TIP3    H275792   3.349   2.552   3.151  0.2359 -0.4099  1.0944
18101TIP3   OH275793   6.675   2.766  14.917  0.0303  0.2408  0.6226
18101TIP3    H175794   6.668   2.699  14.986 -0.5561 -0.6687 -0.3009
18101TIP3    H275795   6.585   2.781  14.889  0.4905 -1.5194 -1.9248
18102TIP3   OH275796   1.851   3.159   3.817 -0.3855  0.3042 -0.4088
18102TIP3    H175797   1.791   3.198   3.881  1.2102  1.0384  0.6794
18102TIP3    H275798   1.840   3.065   3.828 -1.4509  0.4284 -0.3416
18103TIP3   OH275799   1.636   6.142   6.257 -0.1193 -0.1691 -0.4388
18103TIP3    H175800   1.608   6.108   6.342 -0.8702  1.9260  0.1935
18103TIP3    H275801   1.652   6.235   6.273  2.5444 -0.3190 -1.9318
18104TIP3   OH275802   2.298   3.826  13.066 -0.0989 -0.3054  0.1280
18104TIP3    H175803   2.377   3.812  13.119  0.1179  1.1629  0.2049
18104TIP3    H275804   2.303   3.917  13.039 -1.2876 -0.4723 -0.6833
18105TIP3   OH275805   2.287   2.519  11.142 -0.6708  0.4725 -0.5617
18105TIP3    H175806   2.381   2.525  11.155 -0.6276  0.3026 -0.7948
18105TIP3    H275807   2.265   2.597  11.091 -0.6065  0.3402 -0.7910
18106TIP3   OH275808   1.524   3.536   6.295 -0.3789 -0.1994 -0.1508
18106TIP3    H175809   1.520   3.587   6.376 -0.6707 -0.8721  0.2544
18106TIP3    H275810   1.617   3.535   6.272 -0.2528 -0.3136  0.3636
18107TIP3   OH275811   1.657   6.241   4.664  0.1668  0.0089  0.1555
18107TIP3    H175812   1.674   6.259   4.571  0.3082 -0.9182 -0.0011
18107TIP3    H275813   1.730   6.283   4.710  0.4950 -0.1666 -0.2026
18108TIP3   OH275814   4.241   1.684   2.419 -0.5804  0.2071  0.3268
18108TIP3    H175815   4.245   1.761   2.476  0.6698  0.6308 -0.3201
18108TIP3    H275816   4.301   1.704   2.348 -0.1536 -1.4311  0.2144
18109TIP3   OH275817   1.388   0.207   3.246 -0.1241  0.5293  0.5657
18109TIP3    H175818   1.312   0.259   3.219 -1.4582 -0.7897  1.6634
18109TIP3    H275819   1.412   0.242   3.332  0.9658  1.4016 -0.0800
18110TIP3   OH275820   1.573   2.116  16.423  0.0051 -0.1844 -0.1116
18110TIP3    H175821   1.596   2.203  16.457  1.7273 -0.3179 -0.8971
18110TIP3    H275822   1.512   2.134  16.351  0.1114  0.3453 -0.0720
18111TIP3   OH275823   3.326   0.049   4.064 -0.0842  0.0331 -0.1256
18111TIP3    H175824   3.254   0.112   4.062 -0.2768 -0.1965 -1.3086
18111TIP3    H275825   3.351   0.042   4.156 -1.5160  0.1874  0.2807
18112TIP3   OH275826   2.951   0.816  11.419  0.1860 -0.2153  0.2729
18112TIP3    H175827   2.906   0.777  11.344 -1.7682 -1.0803  1.8378
18112TIP3    H275828   3.037   0.774  11.420  0.6349  0.5992 -2.0872
18113TIP3   OH275829   3.495   2.221   0.523  0.0407  0.0146  0.0210
18113TIP3    H175830   3.566   2.216   0.459 -0.5667 -0.1914 -0.6385
18113TIP3    H275831   3.509   2.305   0.568  0.7300 -0.0502 -0.0667
18114TIP3   OH275832   5.081   3.981  14.009  1.2126  0.5774  0.0495
18114TIP3    H175833   5.103   3.897  13.967 -0.3997 -0.3981  1.1343
18114TIP3    H275834   5.128   4.046  13.956  3.1702 -1.0544 -0.3248
18115TIP3   OH275835   5.311   1.218   2.481 -0.1486 -0.2799 -0.1667
18115TIP3    H175836   5.343   1.270   2.408 -0.0613  1.1417  0.8497
18115TIP3    H275837   5.237   1.168   2.445  1.3284 -1.3378 -1.7628
18116TIP3   OH275838   0.239   4.434  12.180 -0.3044  0.2502 -0.3452
18116TIP3    H175839   0.308   4.457  12.242  0.9479 -0.5033 -1.4398
18116TIP3    H275840   0.167   4.404  12.235  0.6473 -0.0524  0.7726
18117TIP3   OH275841   3.934   1.628   4.631 -0.1068  0.3625  0.9455
18117TIP3    H175842   3.854   1.575   4.622  0.1089  0.3779 -1.6225
18117TIP3    H275843   3.966   1.636   4.541  2.9807  0.1022  1.9877
18118TIP3   OH275844   2.225   2.607  17.248 -0.7144 -0.3179 -0.0188
18118TIP3    H175845   2.272   2.556  17.181 -0.0915  0.1135  0.0881
18118TIP3    H275846   2.165   2.544  17.287 -0.5237 -0.7737 -0.4476
18119TIP3   OH275847   5.119   6.299   1.453 -0.0390  0.2789 -0.4526
18119TIP3    H175848   5.059   6.333   1.520 -0.0751  0.1892 -0.4397
18119TIP3    H275849   5.107   6.204   1.456 -1.9465  0.4200 -2.3684
18120TIP3   OH275850   4.906   2.947   0.472 -0.3608  0.4517  0.1165
18120TIP3    H175851   4.847   2.956   0.546 -1.5340  0.1574 -0.7709
18120TIP3    H275852   4.929   2.854   0.470 -1.2429  0.2472 -0.5792
18121TIP3   OH275853   6.609   4.391   6.437 -0.4883  0.0585 -0.6493
18121TIP3    H175854   6.682   4.354   6.387 -1.2408 -0.8434 -1.0919
18121TIP3    H275855   6.604   4.335   6.515 -1.2118 -0.3769 -1.0050
18122TIP3   OH275856   4.233   2.706  12.194 -0.7480 -0.1632 -0.1162
18122TIP3    H175857   4.203   2.714  12.284  0.6317 -1.2196  0.4428
18122TIP3    H275858   4.262   2.616  12.185  0.2669  0.2607 -1.2684
18123TIP3   OH275859   5.874   0.698  14.797  0.0749  0.1252 -0.8341
18123TIP3    H175860   5.901   0.786  14.770  1.4483 -0.5111 -1.6016
18123TIP3    H275861   5.956   0.651  14.812 -0.6290 -0.1150  2.7321
18124TIP3   OH275862   3.379   3.926  12.465  0.1701  0.1684 -0.0061
18124TIP3    H175863   3.335   4.009  12.446 -1.1982 -0.2321  1.3567
18124TIP3    H275864   3.468   3.951  12.491  0.9336  0.9591 -3.1667
18125TIP3   OH275865   3.490   0.196  16.950  0.1606  0.4887 -0.0391
18125TIP3    H175866   3.563   0.258  16.958  0.0602  0.6228 -0.1383
18125TIP3    H275867   3.523   0.115  16.988 -0.1045  0.9318  1.1536
18126TIP3   OH275868   1.484   3.785   0.556 -0.1530  0.9407  0.8215
18126TIP3    H175869   1.402   3.749   0.590 -0.4716  0.8154 -0.0681
18126TIP3    H275870   1.527   3.823   0.632 -1.0563  1.0369  1.2864
18127TIP3   OH275871   0.247   0.362  12.700 -0.3881 -0.4759  0.1225
18127TIP3    H175872   0.204   0.324  12.624 -0.2545  1.2200 -0.8214
18127TIP3    H275873   0.328   0.311  12.710  0.2420  0.1319 -1.6815
18128TIP3   OH275874   6.592   4.036   2.999  0.0583 -0.6603  0.3623
18128TIP3    H175875   6.610   4.038   3.093  2.3727 -0.6604 -0.0344
18128TIP3    H275876   6.661   3.980   2.963 -0.8496 -0.7173 -1.3206
18129TIP3   OH275877   0.589   3.110  15.715  0.1864  0.3907 -0.5325
18129TIP3    H175878   0.531   3.034  15.708  0.3069  0.2996 -0.5362
18129TIP3    H275879   0.606   3.119  15.809  0.6209  0.0771 -0.5827
18130TIP3   OH275880   6.802   4.395  16.584 -0.4690  0.2810  0.5419
18130TIP3    H175881   6.784   4.420  16.493 -0.9451  1.6629  1.0001
18130TIP3    H275882   6.873   4.453  16.611 -0.5543  0.0994  1.1580
18131TIP3   OH275883   0.690   2.107   2.582  0.6668 -0.4569  0.2006
18131TIP3    H175884   0.644   2.174   2.531 -0.6148 -2.4691 -1.3692
18131TIP3    H275885   0.771   2.091   2.533  1.1893  0.2401  0.8211
18132TIP3   OH275886   4.595   3.340  13.551 -0.1150  0.4973  0.1378
18132TIP3    H175887   4.613   3.397  13.476  0.2929 -1.3199 -1.1810
18132TIP3    H275888   4.674   3.287  13.560 -0.4601  0.1950  1.3920
18133TIP3   OH275889   6.551   5.686  14.185  0.2834 -0.6581 -0.1133
18133TIP3    H175890   6.500   5.737  14.249 -1.7540 -1.4979 -1.0159
18133TIP3    H275891   6.543   5.596  14.214  0.0283 -0.9582 -1.0924
18134TIP3   OH275892   5.296   1.449  16.782 -0.0582  0.0557 -0.3519
18134TIP3    H175893   5.338   1.415  16.861 -0.1683 -0.3143 -0.4516
18134TIP3    H275894   5.255   1.372  16.742 -2.2145  0.6669  0.5932
18135TIP3   OH275895   6.504   0.404  13.202 -0.0605 -0.7123  0.2714
18135TIP3    H175896   6.540   0.354  13.276 -1.2756 -2.4532 -0.2858
18135TIP3    H275897   6.471   0.338  13.142  1.3206  0.6944 -2.0667
18136TIP3   OH275898   5.327   6.560  10.765 -0.0791  0.4870  0.2594
18136TIP3    H175899   5.410   6.608  10.770 -0.0505  0.5842 -0.8914
18136TIP3    H275900   5.351   6.470  10.786  0.3452  0.4980 -0.1536
18137TIP3   OH275901   4.681   1.116   3.911  0.6194 -0.6314 -0.0375
18137TIP3    H175902   4.763   1.131   3.863 -0.5997  0.6851 -1.7862
18137TIP3    H275903   4.615   1.107   3.842 -0.9936  0.2118  1.3911
18138TIP3   OH275904   5.601   3.193  12.779  0.3374  0.2955  0.3884
18138TIP3    H175905   5.628   3.121  12.722  1.2351  1.4037 -0.6275
18138TIP3    H275906   5.623   3.272  12.729 -0.3839  1.2740  1.5902
18139TIP3   OH275907   4.353   0.995   5.829  0.1883 -0.7701  0.1708
18139TIP3    H175908   4.399   1.071   5.864  0.7119 -1.3676  0.7854
18139TIP3    H275909   4.421   0.930   5.811 -0.2063 -0.9371 -0.7714
18140TIP3   OH275910   0.341   5.370   4.819 -0.5943  0.5540  0.4939
18140TIP3    H175911   0.283   5.341   4.889 -0.0166 -0.0997  0.7130
18140TIP3    H275912   0.418   5.314   4.827 -0.3573  0.7369 -0.4219
18141TIP3   OH275913   5.383   0.893  12.350 -0.3456 -0.1259  0.0015
18141TIP3    H175914   5.437   0.831  12.300  0.0543  0.4200 -0.2549
18141TIP3    H275915   5.351   0.955  12.284 -1.3088 -0.4617  0.1470
18142TIP3   OH275916   3.140   4.982   3.982 -0.1695 -0.2999 -0.1838
18142TIP3    H175917   3.065   5.033   4.013  0.4114  0.2907  0.2605
18142TIP3    H275918   3.110   4.891   3.986 -0.8241 -0.0782  0.0991
18143TIP3   OH275919   1.747   0.626   3.947  0.7267  0.3790 -0.1182
18143TIP3    H175920   1.706   0.655   3.866 -2.5954  0.2222  1.4284
18143TIP3    H275921   1.740   0.701   4.006 -0.6330 -0.8522  1.3347
18144TIP3   OH275922   3.900   3.776  12.240 -0.0299 -0.2725 -0.1150
18144TIP3    H175923   3.838   3.811  12.304  0.5993 -0.7098  0.7420
18144TIP3    H275924   3.896   3.681  12.254 -0.8834 -0.4663 -1.6393
18145TIP3   OH275925   3.294   5.011   4.957 -0.0437  0.1713 -0.0746
18145TIP3    H175926   3.252   4.968   5.031  0.9955 -1.4060 -0.3546
18145TIP3    H275927   3.377   4.964   4.946  0.5024  1.3664 -1.2813
18146TIP3   OH275928   2.897   2.585  15.269 -0.1950 -0.4470 -0.4050
18146TIP3    H175929   2.894   2.617  15.178  0.2290  0.1120 -0.2278
18146TIP3    H275930   2.908   2.664  15.321 -0.1932 -0.7930  0.1183
18147TIP3   OH275931   0.048   1.275  11.638  0.2299 -0.8975 -0.4994
18147TIP3    H175932   0.030   1.236  11.724  0.0082 -1.8808 -0.9908
18147TIP3    H275933   0.108   1.213  11.596  0.8807 -0.0773 -0.7868
18148TIP3   OH275934   5.039   2.376   4.290 -0.4597 -0.1766 -0.1659
18148TIP3    H175935   5.014   2.439   4.359 -1.6436 -0.2249 -0.5542
18148TIP3    H275936   5.021   2.422   4.208  2.2293  0.4058 -0.4902
18149TIP3   OH275937   0.768   4.242   1.167 -0.1315 -0.0853  0.3825
18149TIP3    H175938   0.781   4.150   1.193 -0.2322 -0.3232 -0.4118
18149TIP3    H275939   0.694   4.240   1.107  1.9479  0.0308 -2.3032
18150TIP3   OH275940   0.497   3.494  12.360 -0.3734 -0.1950 -0.3571
18150TIP3    H175941   0.403   3.505  12.371 -0.2619  1.2252 -0.7348
18150TIP3    H275942   0.515   3.525  12.271  0.5531  0.1833 -0.0427
18151TIP3   OH275943   1.305   1.659  16.151  0.4218  0.6687  0.2634
18151TIP3    H175944   1.377   1.707  16.192  1.8681  0.1044 -1.5829
18151TIP3    H275945   1.235   1.724  16.143  1.0214  1.4531  1.2628
18152TIP3   OH275946   0.392   6.601  15.745  0.9833  0.4683  0.2497
18152TIP3    H175947   0.372   6.687  15.707  2.0831  0.6357  0.0530
18152TIP3    H275948   0.332   6.541  15.701  0.1178  1.1505  0.4787
18153TIP3   OH275949   6.722   6.679  13.394  0.2602 -0.4943  0.6868
18153TIP3    H175950   6.640   6.715  13.360  0.0661 -0.4303  1.2274
18153TIP3    H275951   6.703   6.587  13.410  0.2433 -0.4396  0.9804
18154TIP3   OH275952   5.494   1.174   1.579 -0.0161  0.0694  0.1380
18154TIP3    H175953   5.565   1.238   1.581 -0.1722  0.3135 -1.7230
18154TIP3    H275954   5.511   1.121   1.501 -2.0350  0.3226 -0.4957
18155TIP3   OH275955   1.166   6.541   5.952 -0.2601 -0.1300  0.1694
18155TIP3    H175956   1.194   6.589   5.874 -0.2884  1.8003  1.3213
18155TIP3    H275957   1.247   6.508   5.990 -0.0651  0.5021  0.3154
18156TIP3   OH275958   4.971   1.062  11.336 -0.3001  0.1208 -0.2946
18156TIP3    H175959   5.003   1.116  11.264  1.4167  1.0542  1.1246
18156TIP3    H275960   4.878   1.051  11.318  0.0439  0.5988 -2.4798
18157TIP3   OH275961   1.494   1.858   5.808 -0.0197 -0.0709  0.3136
18157TIP3    H175962   1.580   1.817   5.808  0.1690  0.3083 -0.3889
18157TIP3    H275963   1.512   1.950   5.787 -0.4603  0.3046  1.5278
18158TIP3   OH275964   2.099   3.467  14.545 -0.3249  0.0315 -0.1340
18158TIP3    H175965   2.137   3.436  14.463  0.5327  0.6470  0.0208
18158TIP3    H275966   2.019   3.416  14.555 -0.1413 -0.4536 -1.0645
18159TIP3   OH275967   1.589   3.309   0.624 -0.4794 -0.2452  0.9709
18159TIP3    H175968   1.500   3.311   0.588 -0.1257 -1.3419  0.0192
18159TIP3    H275969   1.643   3.272   0.554  0.4586 -1.1458  2.1430
18160TIP3   OH275970   6.278   5.508  13.777  0.3080  0.6113 -0.0642
18160TIP3    H175971   6.354   5.561  13.801 -0.0044  0.4564  1.2663
18160TIP3    H275972   6.228   5.498  13.858 -0.0096 -1.1026 -0.4447
18161TIP3   OH275973   5.381   5.746  17.137  0.3015 -0.4050 -0.2675
18161TIP3    H175974   5.417   5.717  17.221  2.8662  1.1209 -0.7886
18161TIP3    H275975   5.303   5.796  17.160  1.1465  0.2553  1.2193
18162TIP3   OH275976   2.150   0.147   5.437 -0.7930  0.0578  0.0445
18162TIP3    H175977   2.112   0.139   5.350  1.0831  1.2901 -0.9166
18162TIP3    H275978   2.187   0.060   5.455 -0.2426  0.0972 -0.8585
18163TIP3   OH275979   3.006   2.113   1.985 -0.0024  0.5780  0.4476
18163TIP3    H175980   3.010   2.143   2.076 -1.8093 -0.4754  0.8923
18163TIP3    H275981   3.084   2.057   1.975  1.7697  2.9563  0.4726
18164TIP3   OH275982   5.963   4.744   6.720  0.2947  0.5947  0.0198
18164TIP3    H175983   5.982   4.650   6.720 -0.5415  0.4036  2.6194
18164TIP3    H275984   6.037   4.784   6.766 -0.8507  0.8781  1.6233
18165TIP3   OH275985   6.798   0.877   1.869 -0.2562 -0.0234 -0.5266
18165TIP3    H175986   6.796   0.871   1.965  1.0024  4.5867 -0.1311
18165TIP3    H275987   6.889   0.897   1.849 -0.6884 -0.1239 -2.6569
18166TIP3   OH275988   3.946   3.258  13.114  0.1789  0.3867  0.2722
18166TIP3    H175989   3.930   3.238  13.206 -0.0275  1.6590  0.5199
18166TIP3    H275990   3.868   3.307  13.086 -0.0084 -0.4615 -0.7294
18167TIP3   OH275991   5.882   5.082  16.801 -0.2555  0.4368  0.0971
18167TIP3    H175992   5.938   5.027  16.857  1.0213 -0.4770 -2.0291
18167TIP3    H275993   5.878   5.166  16.847  0.3094 -0.4522  1.8366
18168TIP3   OH275994   0.104   6.745  12.082 -0.6956  0.0139 -0.2896
18168TIP3    H175995   0.186   6.720  12.040  0.6200  3.1669  0.2433
18168TIP3    H275996   0.115   6.717  12.173  0.3521  1.5217  0.0743
18169TIP3   OH275997   5.194   1.720   6.626 -0.3859  0.2008  0.0238
18169TIP3    H175998   5.121   1.659   6.611 -1.2129  1.1829  0.0162
18169TIP3    H275999   5.153   1.798   6.662  0.7960  0.3722  1.0218
18170TIP3   OH276000   1.969   5.971  10.285 -0.0785 -0.1482  0.3471
18170TIP3    H176001   2.015   5.982  10.202 -0.2516 -3.7585 -0.3379
18170TIP3    H276002   1.883   6.011  10.271  1.0278  2.1406 -0.0717
18171TIP3   OH276003   6.140   5.562   1.161 -0.6231  0.0987 -0.5076
18171TIP3    H176004   6.217   5.510   1.186 -0.7831  0.2614  0.3131
18171TIP3    H276005   6.177   5.645   1.132 -0.4704  0.0550 -0.4421
18172TIP3   OH276006   1.818   2.725   2.129  0.1199  0.2110 -0.2599
18172TIP3    H176007   1.758   2.793   2.159 -0.1594 -0.1671  0.0491
18172TIP3    H276008   1.887   2.772   2.083 -0.2782  0.6700 -0.3924
18173TIP3   OH276009   3.498   2.194  10.738  0.5542 -0.1298  0.4892
18173TIP3    H176010   3.522   2.102  10.729  0.5488 -0.1961  1.1274
18173TIP3    H276011   3.442   2.212  10.662 -1.3664 -1.2782  1.6124
18174TIP3   OH276012   4.937   4.658  16.239  0.0231  0.2235  0.3728
18174TIP3    H176013   5.027   4.641  16.213  0.0462  0.5397  0.2377
18174TIP3    H276014   4.886   4.644  16.159  0.0748  1.0449  0.1925
18175TIP3   OH276015   5.447   0.697   5.379  0.1701  0.1755  0.2124
18175TIP3    H176016   5.486   0.753   5.311 -0.9860 -1.0078 -1.4664
18175TIP3    H276017   5.427   0.615   5.334  1.6797 -1.5667  2.6024
18176TIP3   OH276018   4.528   1.045   0.127  0.5276 -0.2945  0.0357
18176TIP3    H176019   4.584   1.046   0.049  2.0970 -0.5966  1.1449
18176TIP3    H276020   4.447   1.004   0.097  0.9802 -0.0940 -1.5279
18177TIP3   OH276021   1.323   1.051   3.168 -0.4404 -0.0500  0.0117
18177TIP3    H176022   1.340   1.087   3.081 -1.1781 -0.3629 -0.2668
18177TIP3    H276023   1.260   1.111   3.207  0.0323  0.1944  0.4069
18178TIP3   OH276024   6.237   0.084   6.330 -0.4474  0.1373 -0.1058
18178TIP3    H176025   6.190   0.001   6.332  2.1073 -1.4260 -1.5763
18178TIP3    H276026   6.254   0.105   6.421  0.4559 -1.9281  0.2282
18179TIP3   OH276027   4.355   3.225   5.240  0.0324  0.1458  0.2274
18179TIP3    H176028   4.283   3.232   5.178  1.5277  0.8915 -1.4596
18179TIP3    H276029   4.327   3.279   5.315 -1.6049 -0.4461  0.0662
18180TIP3   OH276030   3.470   6.401  10.660  0.0897  0.3075  0.4822
18180TIP3    H176031   3.505   6.320  10.623 -0.6398 -0.2913  1.0863
18180TIP3    H276032   3.400   6.427  10.601  1.5397  1.5217 -0.7439
18181TIP3   OH276033   5.985   6.125  14.504 -0.1319 -0.2312  0.0678
18181TIP3    H176034   5.995   6.217  14.480 -2.2044  0.3829  1.3981
18181TIP3    H276035   5.891   6.107  14.493  0.2839 -2.2496 -0.4127
18182TIP3   OH276036   2.744   4.261  13.042  0.3019  0.8109  0.1020
18182TIP3    H176037   2.700   4.177  13.027  1.7713 -0.6700  3.5062
18182TIP3    H276038   2.836   4.238  13.053  0.8200  2.9703  0.4443
18183TIP3   OH276039   3.539   1.509  14.894  0.7325 -0.3282 -0.1182
18183TIP3    H176040   3.525   1.415  14.879 -1.4319  0.1786 -1.6353
18183TIP3    H276041   3.484   1.530  14.970  0.1474 -0.0599 -0.6031
18184TIP3   OH276042   0.530   3.805  15.442 -0.0458  0.6373 -0.2814
18184TIP3    H176043   0.517   3.894  15.411 -0.4842  0.2404 -1.2614
18184TIP3    H276044   0.463   3.753  15.396  0.3126 -0.2248  0.1441
18185TIP3   OH276045   2.222   0.246   2.731 -0.1270  0.4501  0.1553
18185TIP3    H176046   2.208   0.159   2.770  1.8638  0.3652  0.7392
18185TIP3    H276047   2.306   0.275   2.767  0.2444  1.7246 -1.6599
18186TIP3   OH276048   4.042   1.921   0.423 -0.9537  0.2939  0.4681
18186TIP3    H176049   4.024   1.850   0.484 -1.6438  0.0691  0.0073
18186TIP3    H276050   3.964   1.926   0.368 -0.6169  0.9412  0.0445
18187TIP3   OH276051   4.834   6.024  13.263 -0.2393  0.5607  0.1185
18187TIP3    H176052   4.847   6.021  13.357 -0.3949  2.4894  0.2099
18187TIP3    H276053   4.902   6.083  13.231 -0.4805  0.2801 -0.9375
18188TIP3   OH276054   1.531   5.487   4.354  0.6099 -0.1133 -0.2983
18188TIP3    H176055   1.534   5.482   4.258  1.2795  0.7202 -0.3229
18188TIP3    H276056   1.496   5.573   4.373 -1.2022 -0.9439  0.2070
18189TIP3   OH276057   6.652   3.959  13.803  0.2467  0.0330 -0.1004
18189TIP3    H176058   6.742   3.954  13.833  0.9719  1.0785 -1.9772
18189TIP3    H276059   6.658   4.001  13.717 -1.9357 -0.7757 -0.6790
18190TIP3   OH276060   5.856   0.436  16.792  0.0096 -0.1337 -0.0272
18190TIP3    H176061   5.764   0.413  16.781  0.2434 -0.8592 -0.4874
18190TIP3    H276062   5.884   0.468  16.706 -0.0879  1.0775  0.3831
18191TIP3   OH276063   3.614   6.186   1.688  0.0243  0.2666  0.3856
18191TIP3    H176064   3.587   6.193   1.597 -0.8746 -0.3246  0.5981
18191TIP3    H276065   3.642   6.274   1.712 -0.0301  0.4925 -0.3658
18192TIP3   OH276066   0.613   6.643   1.379  0.5041  0.0778  0.8441
18192TIP3    H176067   0.590   6.612   1.291 -0.4758 -1.1450  1.5097
18192TIP3    H276068   0.616   6.738   1.371 -1.2199  0.0733 -0.1445
18193TIP3   OH276069   6.335   6.356  13.339 -0.6730  0.3440 -0.0929
18193TIP3    H176070   6.390   6.386  13.412 -0.8916  1.0671 -0.2181
18193TIP3    H276071   6.296   6.275  13.370  0.9995 -0.5510 -0.2494
18194TIP3   OH276072   3.761   0.739   0.656  0.2658 -0.0376 -0.7229
18194TIP3    H176073   3.838   0.682   0.660  1.6062  1.7431 -0.7291
18194TIP3    H276074   3.754   0.764   0.564  0.8860  1.4282 -0.3758
18195TIP3   OH276075   6.404   4.037   0.533  0.5245 -0.3320 -0.3996
18195TIP3    H176076   6.428   3.991   0.614 -0.4780 -0.4203 -0.1439
18195TIP3    H276077   6.481   4.028   0.477  0.7287 -1.4436  0.0398
18196TIP3   OH276078   1.732   0.382  14.025 -0.6146  0.1472  0.0788
18196TIP3    H176079   1.733   0.344  14.112 -1.5378 -1.5505 -0.6383
18196TIP3    H276080   1.669   0.454  14.031 -0.8223 -0.0896  0.7510
18197TIP3   OH276081   3.199   3.342  15.244 -0.1732 -0.0537  0.1838
18197TIP3    H176082   3.154   3.425  15.233  0.6106  0.1791 -1.4436
18197TIP3    H276083   3.239   3.347  15.331 -1.3937  0.6356  0.7096
18198TIP3   OH276084   0.629   3.837  11.105 -0.2321 -0.0952  0.4095
18198TIP3    H176085   0.632   3.742  11.104 -0.2007 -0.1069  1.2408
18198TIP3    H276086   0.585   3.859  11.187 -1.0006  0.5884 -0.1825
18199TIP3   OH276087   1.199   2.823  17.172 -0.0205  0.1246 -0.2067
18199TIP3    H176088   1.120   2.860  17.212 -0.1956 -1.8431  1.3276
18199TIP3    H276089   1.181   2.826  17.078 -1.2595  1.1306  0.0424
18200TIP3   OH276090   6.306   1.280   3.614 -0.5859  0.1476 -0.2714
18200TIP3    H176091   6.400   1.265   3.608 -0.2102  1.7662  0.9570
18200TIP3    H276092   6.298   1.376   3.617 -2.3019  0.0309 -0.8205
18201TIP3   OH276093   2.933   3.310  13.825  0.4652  0.5401  0.1740
18201TIP3    H176094   2.953   3.392  13.870  1.1830  1.3544 -1.6032
18201TIP3    H276095   3.014   3.285  13.781 -0.0487 -0.5769 -0.1688
18202TIP3   OH276096   3.926   0.135   0.333 -0.1036 -0.0819 -0.3893
18202TIP3    H176097   3.925   0.217   0.283  1.4161  1.0465  1.3729
18202TIP3    H276098   3.953   0.069   0.269  0.0547  1.0200 -1.4929
18203TIP3   OH276099   3.778   4.825  10.762  0.3773 -0.3246 -0.3186
18203TIP3    H176100   3.792   4.908  10.718  0.5473 -0.0766  0.1996
18203TIP3    H276101   3.684   4.824  10.782  0.4002 -0.1902 -0.2005
18204TIP3   OH276102   1.224   6.490   4.685  0.7614 -0.0405 -0.0453
18204TIP3    H176103   1.316   6.487   4.712  0.9130  0.5048 -0.4703
18204TIP3    H276104   1.226   6.539   4.602  0.1782 -0.6784 -0.4368
18205TIP3   OH276105   1.500   4.288   4.305  0.3651 -0.5587  0.0502
18205TIP3    H176106   1.452   4.228   4.363  0.5275  0.3255  1.1286
18205TIP3    H276107   1.587   4.294   4.343 -0.1506  1.6937  0.9924
18206TIP3   OH276108   1.238   1.128  11.970  0.1154  0.3617  0.6641
18206TIP3    H176109   1.192   1.197  11.922  0.3979  1.7191  2.2975
18206TIP3    H276110   1.207   1.046  11.931 -0.2551  1.4134 -1.2657
18207TIP3   OH276111   0.118   4.861   2.640  0.0198 -0.2419 -0.5880
18207TIP3    H176112   0.055   4.789   2.640  0.6838 -0.8166 -0.7980
18207TIP3    H276113   0.189   4.831   2.584  0.3230  0.5550 -0.6287
18208TIP3   OH276114   3.200   4.399   2.384  0.3389  0.2520  0.0414
18208TIP3    H176115   3.203   4.311   2.348 -0.4304 -0.0791  0.7761
18208TIP3    H276116   3.110   4.409   2.417  0.9106  0.6678  1.5384
18209TIP3   OH276117   2.846   2.003  15.582  0.0758  0.2035  0.2346
18209TIP3    H176118   2.835   1.927  15.639 -0.5267  0.4920  0.5204
18209TIP3    H276119   2.756   2.025  15.555  0.4180 -0.4017 -1.4598
18210TIP3   OH276120   3.103   5.840  13.397 -0.5688  0.0972  0.4522
18210TIP3    H176121   3.018   5.861  13.359 -0.9489  0.1207  1.3114
18210TIP3    H276122   3.166   5.862  13.328 -1.2163  0.5720  0.0057
18211TIP3   OH276123   6.029   4.547   4.810  0.1390 -0.7361  0.7150
18211TIP3    H176124   5.994   4.475   4.864 -0.8053 -0.2892  0.6946
18211TIP3    H276125   5.952   4.590   4.774  0.7029  0.3164  0.7504
18212TIP3   OH276126   3.568   0.967   1.912 -0.3001 -0.2911 -0.2061
18212TIP3    H176127   3.657   0.967   1.876  0.4085  0.8169  1.5050
18212TIP3    H276128   3.528   1.045   1.874 -0.6658 -0.9726 -1.2423
18213TIP3   OH276129   2.255   3.561   2.753  0.4184 -0.1396 -0.4804
18213TIP3    H176130   2.274   3.490   2.815  0.9844 -0.2969 -0.8371
18213TIP3    H276131   2.174   3.600   2.786 -0.7193 -1.9134 -1.1182
18214TIP3   OH276132   4.947   1.592   6.575 -0.0660 -0.4230 -0.2981
18214TIP3    H176133   4.896   1.653   6.521 -0.7742  0.4995  1.3881
18214TIP3    H276134   4.882   1.550   6.632  0.4443 -2.6086 -1.2742
18215TIP3   OH276135   0.883   3.776  12.707  0.0106 -0.2137  0.0835
18215TIP3    H176136   0.804   3.760  12.760 -1.4481  0.8309 -1.7002
18215TIP3    H276137   0.859   3.851  12.653  2.0608 -0.2570 -0.8873
18216TIP3   OH276138   6.306   4.748   5.019 -0.1327  0.2405 -1.0400
18216TIP3    H176139   6.395   4.774   5.039 -0.6442 -0.6276  2.6637
18216TIP3    H276140   6.315   4.666   4.970  1.0707 -0.5066  0.4211
18217TIP3   OH276141   1.028   3.933  15.153  0.2252  0.0941 -0.5248
18217TIP3    H176142   1.070   3.862  15.106 -1.0128 -1.1141  0.1516
18217TIP3    H276143   1.040   3.911  15.246 -2.7937 -0.8692 -0.3011
18218TIP3   OH276144   4.989   3.705   3.446  0.2624  0.1195  0.0168
18218TIP3    H176145   5.038   3.730   3.368  0.7192 -0.3291  0.1560
18218TIP3    H276146   4.900   3.686   3.414 -0.1526  2.1368 -0.0528
18219TIP3   OH276147   2.784   3.299   3.562 -0.3545 -0.3981 -0.0468
18219TIP3    H176148   2.809   3.390   3.545 -0.7449 -0.1900  0.4894
18219TIP3    H276149   2.856   3.248   3.525  0.8151  0.2003  1.3421
18220TIP3   OH276150   4.230   0.296   6.509  0.1569  0.4190  0.0190
18220TIP3    H176151   4.204   0.358   6.578  1.8405 -1.4726  2.4490
18220TIP3    H276152   4.322   0.318   6.491  0.1322 -0.0030 -0.6223
18221TIP3   OH276153   2.397   1.756   4.028 -0.2724  0.3877  0.9874
18221TIP3    H176154   2.462   1.824   4.046 -0.5838  1.5134 -1.8861
18221TIP3    H276155   2.434   1.677   4.068  1.5333  1.5740  1.7614
18222TIP3   OH276156   1.717   3.315  15.388 -0.0506  0.2375  0.0917
18222TIP3    H176157   1.807   3.286  15.403 -0.2746 -0.0108  0.9930
18222TIP3    H276158   1.699   3.375  15.460 -0.4830  0.5599 -0.2860
18223TIP3   OH276159   0.281   3.795  17.074  0.3536  0.2736 -0.3350
18223TIP3    H176160   0.236   3.794  16.990 -0.1105  0.7884 -0.0902
18223TIP3    H276161   0.320   3.882  17.080  1.6072 -0.2486 -0.6557
18224TIP3   OH276162   5.668   5.959  16.457  0.6391  0.2818  0.4730
18224TIP3    H176163   5.712   5.885  16.417 -3.1695 -2.2551  0.7468
18224TIP3    H276164   5.682   5.948  16.551 -1.5353 -1.2765  0.6592
18225TIP3   OH276165   3.744   1.059   2.495  0.1745 -0.0863  0.4586
18225TIP3    H176166   3.794   1.071   2.414 -1.5188  1.6341 -0.3751
18225TIP3    H276167   3.789   1.113   2.560 -0.4347  1.3370 -0.2558
18226TIP3   OH276168   0.213   4.577  15.380  0.0700 -0.1366 -0.1708
18226TIP3    H176169   0.145   4.644  15.367  0.2674  0.4243  1.5246
18226TIP3    H276170   0.287   4.608  15.329 -0.2015  0.4038 -0.2471
18227TIP3   OH276171   0.375   1.940   0.927 -0.3350 -0.0150 -0.4964
18227TIP3    H176172   0.380   1.949   0.832  0.1318 -0.1015 -0.4805
18227TIP3    H276173   0.335   2.022   0.957  2.1090  1.2673 -0.5259
18228TIP3   OH276174   0.724   1.128   4.973  0.4200 -0.2573  0.5670
18228TIP3    H176175   0.752   1.073   5.047  3.3152  1.1622  0.5864
18228TIP3    H276176   0.805   1.169   4.942 -1.2736  1.7552 -1.2937
18229TIP3   OH276177   1.594   0.874  15.525 -0.0522  0.1069  0.5887
18229TIP3    H176178   1.566   0.783  15.522 -1.0819  0.4181  0.2581
18229TIP3    H276179   1.689   0.872  15.518 -0.1819 -0.8515 -0.9484
18230TIP3   OH276180   4.991   4.728  16.547 -0.7897  0.0748  0.2012
18230TIP3    H176181   5.059   4.663  16.529 -0.8730 -0.1704  0.7790
18230TIP3    H276182   4.979   4.725  16.642 -0.9246  0.8005  0.2079
18231TIP3   OH276183   2.775   1.195   6.167  0.1831  0.2181  0.6247
18231TIP3    H176184   2.697   1.249   6.154  0.0177 -0.1039  0.2963
18231TIP3    H276185   2.819   1.235   6.242  0.4256  1.2410 -0.0424
18232TIP3   OH276186   1.795   4.973   0.834  0.5813  0.4659  0.2012
18232TIP3    H176187   1.756   4.988   0.748 -1.7732  0.3561  1.2143
18232TIP3    H276188   1.888   4.961   0.816  0.0034 -0.4579 -2.4348
18233TIP3   OH276189   4.038   0.180  10.532  0.1994  0.0066 -0.5603
18233TIP3    H176190   4.041   0.273  10.507 -1.4594  0.2331 -0.0066
18233TIP3    H276191   4.129   0.154  10.541  0.7281  1.1237 -2.4523
18234TIP3   OH276192   1.207   5.421  11.188  0.2578 -0.0245 -0.0166
18234TIP3    H176193   1.132   5.403  11.245  0.6876 -0.3322  0.4576
18234TIP3    H276194   1.195   5.512  11.161  1.2754  0.8750  2.4532
18235TIP3   OH276195   2.574   5.176   0.474 -0.1106 -0.0423 -0.2818
18235TIP3    H176196   2.511   5.248   0.474  0.3093  0.3504 -1.9816
18235TIP3    H276197   2.655   5.215   0.509 -0.2311 -0.0198 -0.0260
18236TIP3   OH276198   2.405   6.094   2.688  0.4371 -0.1032  0.2730
18236TIP3    H176199   2.438   6.070   2.775  0.4412  1.2645  0.6599
18236TIP3    H276200   2.386   6.187   2.695  0.0276 -0.0825 -1.0758
18237TIP3   OH276201   1.680   3.545   0.723 -0.0124  0.0296 -0.1329
18237TIP3    H176202   1.644   3.465   0.686  1.9221 -0.2814 -1.4514
18237TIP3    H276203   1.639   3.616   0.672 -0.7861 -0.1694  0.2059
18238TIP3   OH276204   2.528   3.623   0.977 -0.2084  0.1046  0.0561
18238TIP3    H176205   2.536   3.676   0.898 -1.8578 -0.5861 -0.6153
18238TIP3    H276206   2.563   3.677   1.047 -1.8235  2.0887 -0.6134
18239TIP3   OH276207   5.176   0.451   0.871 -0.7934 -0.4532 -0.0575
18239TIP3    H176208   5.122   0.530   0.870  0.3627  0.3355 -0.8454
18239TIP3    H276209   5.163   0.412   0.784 -0.6230 -0.6301 -0.0033
18240TIP3   OH276210   0.603   1.264   2.152 -0.0634  0.7444  0.3104
18240TIP3    H176211   0.526   1.278   2.098  0.7426  1.2606 -0.7413
18240TIP3    H276212   0.627   1.172   2.137 -1.8246 -0.0891  2.4715
18241TIP3   OH276213   3.216   5.858   2.352 -0.0292  0.1608 -0.1080
18241TIP3    H176214   3.256   5.889   2.271  0.2600  0.6793  0.2322
18241TIP3    H276215   3.123   5.847   2.329 -0.1881  1.5011 -0.1823
18242TIP3   OH276216   3.059   2.877  13.182 -0.4333  0.2706  0.0010
18242TIP3    H176217   3.112   2.810  13.140  0.8981  0.5332  1.2257
18242TIP3    H276218   3.123   2.940  13.216 -1.4970  0.3830  1.8560
18243TIP3   OH276219   4.517   6.095  16.194 -0.2265 -1.2503 -0.2315
18243TIP3    H176220   4.541   6.187  16.208 -0.7922 -0.9021 -1.4872
18243TIP3    H276221   4.495   6.063  16.282 -0.4635 -0.0589  0.1582
18244TIP3   OH276222   4.714   6.745  13.534 -0.3555  0.2011 -0.9291
18244TIP3    H176223   4.621   6.761  13.547 -0.6983 -0.9204 -1.8954
18244TIP3    H276224   4.728   6.756  13.440  0.1388 -1.2243 -1.0487
18245TIP3   OH276225   3.379   2.569  11.485  0.5200 -0.2260  0.1715
18245TIP3    H176226   3.387   2.486  11.533  0.5624  1.1779  2.6502
18245TIP3    H276227   3.290   2.567  11.449  0.3715 -1.1476  0.5765
18246TIP3   OH276228   0.949   1.708   3.199  0.4774  0.3746 -0.2099
18246TIP3    H176229   0.960   1.615   3.219 -0.7549 -0.1603 -1.9171
18246TIP3    H276230   0.977   1.753   3.279  2.6914 -1.3795  0.0426
18247TIP3   OH276231   3.472   3.587  13.902  0.1008 -0.4167 -0.5647
18247TIP3    H176232   3.558   3.612  13.869 -0.1048  1.5337  0.3249
18247TIP3    H276233   3.411   3.618  13.835 -0.1646  1.6399  0.5953
18248TIP3   OH276234   1.743   6.814   0.275  0.0363 -0.0310  0.1768
18248TIP3    H176235   1.772   6.835   0.364  0.8301 -1.5545  0.3035
18248TIP3    H276236   1.692   6.734   0.286  0.3247 -0.3433 -0.7555
18249TIP3   OH276237   3.125   3.388   0.381  0.1572  0.1693  0.1827
18249TIP3    H176238   3.069   3.401   0.457  0.5818 -0.6537  0.6397
18249TIP3    H276239   3.211   3.418   0.409  0.3406 -0.2449  0.0628
18250TIP3   OH276240   4.689   4.267   3.045 -0.1809  0.4263 -0.5971
18250TIP3    H176241   4.697   4.292   3.137 -1.7585  0.4476 -0.4499
18250TIP3    H276242   4.665   4.348   3.000 -4.0788 -0.4735 -0.3033
18251TIP3   OH276243   0.409   5.506   1.436 -0.0048  0.4305  0.4907
18251TIP3    H176244   0.486   5.558   1.415 -1.3362  2.1842 -0.1018
18251TIP3    H276245   0.345   5.527   1.368 -0.2255 -2.7999 -0.4102
18252TIP3   OH276246   5.575   0.074  12.640 -0.2522  0.4217  0.5331
18252TIP3    H176247   5.578   0.001  12.578 -0.0169  0.3110  0.6754
18252TIP3    H276248   5.612   0.148  12.591 -1.4631  0.7115  0.0310
18253TIP3   OH276249   6.105   3.171   4.057  0.2088 -0.2178 -0.3007
18253TIP3    H176250   6.178   3.197   4.114  1.1524 -1.8419 -0.7260
18253TIP3    H276251   6.037   3.142   4.118  0.2480  0.4741  0.0759
18254TIP3   OH276252   4.349   1.418  14.355 -0.6901 -0.2429  0.5684
18254TIP3    H176253   4.331   1.507  14.323  0.3774  0.7705  2.6690
18254TIP3    H276254   4.283   1.404  14.423 -1.3754 -1.3965 -0.3269
18255TIP3   OH276255   5.273   3.022  12.289  0.1955 -0.5681  0.2932
18255TIP3    H176256   5.307   3.031  12.378 -0.2396  0.1454  0.3875
18255TIP3    H276257   5.180   3.043  12.296  0.2037 -0.2919 -0.3708
18256TIP3   OH276258   4.439   5.332   1.571 -0.1842 -0.1916  0.1649
18256TIP3    H176259   4.481   5.377   1.644 -0.6561  0.7326 -0.1151
18256TIP3    H276260   4.346   5.330   1.595 -0.4568  0.8190 -0.7469
18257TIP3   OH276261   4.856   6.030   3.482 -0.3381 -0.0798 -0.1863
18257TIP3    H176262   4.861   6.100   3.548 -1.0030  0.2420 -0.4685
18257TIP3    H276263   4.793   5.968   3.519 -0.2090 -0.2271 -0.2146
18258TIP3   OH276264   4.328   0.657  13.316 -0.1248 -0.7878 -0.0935
18258TIP3    H176265   4.387   0.602  13.368 -0.8515  0.4670  2.1117
18258TIP3    H276266   4.271   0.595  13.271  2.1614 -1.9898 -1.4614
18259TIP3   OH276267   4.457   6.013   5.984  0.1496 -0.1409 -0.4007
18259TIP3    H176268   4.387   6.078   5.993  0.3370  0.1061 -0.7409
18259TIP3    H276269   4.458   5.968   6.069  0.2224  0.4998 -0.0605
18260TIP3   OH276270   6.813   3.861   3.257  0.4001 -0.2244 -0.5180
18260TIP3    H176271   6.818   3.918   3.333 -0.0092 -0.6900 -0.1421
18260TIP3    H276272   6.720   3.859   3.234  0.4810 -0.3280 -0.8455
18261TIP3   OH276273   5.456   3.522   3.777  0.3088 -0.3345  0.0362
18261TIP3    H176274   5.387   3.462   3.806  0.6298 -0.2097  1.0575
18261TIP3    H276275   5.512   3.468   3.721 -0.8031 -0.3494 -1.0869
18262TIP3   OH276276   3.598   5.079   5.923 -0.0151  0.3358  0.5581
18262TIP3    H176277   3.504   5.072   5.910 -0.0701  0.5612  0.8494
18262TIP3    H276278   3.608   5.116   6.010  0.3445  0.2632  0.5479
18263TIP3   OH276279   1.023   1.567  11.567 -0.9581  0.4545  0.5153
18263TIP3    H176280   0.955   1.518  11.523 -1.7013 -0.2146  2.3473
18263TIP3    H276281   1.105   1.525  11.541 -1.1572  1.5921 -2.1062
18264TIP3   OH276282   2.980   2.560   4.062  0.3801  0.0279  0.1877
18264TIP3    H176283   3.065   2.562   4.107  0.5562 -1.1416 -0.0941
18264TIP3    H276284   2.991   2.495   3.993 -0.4975  0.4605 -0.3566
18265TIP3   OH276285   6.708   1.224  11.303  0.2000  0.2694 -0.1497
18265TIP3    H176286   6.774   1.283  11.338 -2.0925  3.0376 -0.3484
18265TIP3    H276287   6.641   1.218  11.372 -1.4830  1.0601 -1.6685
18266TIP3   OH276288   1.866   0.513  14.571 -0.2228  0.1741  0.5555
18266TIP3    H176289   1.916   0.476  14.643 -0.9212 -0.6105  0.6413
18266TIP3    H276290   1.781   0.535  14.609 -0.8556 -0.9293 -0.1953
18267TIP3   OH276291   6.029   0.717   5.862 -0.0855  0.2700 -0.4259
18267TIP3    H176292   6.107   0.715   5.918 -0.3554 -0.0698 -0.0547
18267TIP3    H276293   5.998   0.627   5.862 -0.3052  0.3461 -0.8215
18268TIP3   OH276294   5.934   2.599  11.931 -0.2799  0.2530 -0.4909
18268TIP3    H176295   5.892   2.539  11.870 -1.0630  1.5922 -1.2811
18268TIP3    H276296   5.987   2.542  11.987 -2.5059 -1.3694  0.0261
18269TIP3   OH276297   4.687   2.305   2.045  0.1304 -0.6389 -0.0016
18269TIP3    H176298   4.768   2.321   1.997  1.0232  0.6060  1.8574
18269TIP3    H276299   4.653   2.393   2.064 -0.6108 -1.1321  0.9588
18270TIP3   OH276300   2.306   3.363  12.716 -0.1581 -0.5160  0.2950
18270TIP3    H176301   2.326   3.445  12.671 -0.0463  0.5560  2.2505
18270TIP3    H276302   2.316   3.296  12.649  1.1417  0.9236 -0.9784
18271TIP3   OH276303   4.140   2.999   5.396  0.7669  0.3048 -0.2225
18271TIP3    H176304   4.162   2.952   5.316 -0.5371 -0.3553 -0.1890
18271TIP3    H276305   4.149   2.934   5.466  0.8115  0.5941  0.0458
18272TIP3   OH276306   1.837   1.993  17.236 -0.3796  0.3287  0.2407
18272TIP3    H176307   1.807   1.920  17.182 -1.7001  0.0774  1.2821
18272TIP3    H276308   1.871   2.056  17.173  1.0044 -1.2677 -0.6588
18273TIP3   OH276309   3.825   3.528  14.832 -0.6723 -1.0065  0.3058
18273TIP3    H176310   3.767   3.602  14.849 -1.1786 -1.3049 -0.1230
18273TIP3    H276311   3.911   3.568  14.820 -1.0054 -0.4523 -0.2549
18274TIP3   OH276312   0.041   4.090   2.602 -0.2096  0.1790  0.3497
18274TIP3    H176313  -0.032   4.082   2.540 -0.0371 -0.9154  0.2781
18274TIP3    H276314   0.115   4.120   2.548  0.6078 -3.1184 -0.5298
18275TIP3   OH276315   3.807   2.214  10.758 -0.5138  0.6256 -0.3097
18275TIP3    H176316   3.861   2.278  10.803 -1.7638 -0.1232  2.3569
18275TIP3    H276317   3.870   2.160  10.710  0.7473  2.2204 -0.5087
18276TIP3   OH276318   4.182   6.112  13.321  0.3929 -0.1501  0.3397
18276TIP3    H176319   4.168   6.042  13.385  1.5564 -1.9626 -1.3503
18276TIP3    H276320   4.198   6.190  13.375 -3.4577 -0.5611  2.2836
18277TIP3   OH276321   2.549   3.565  13.931 -0.4165  0.2476  0.0230
18277TIP3    H176322   2.600   3.517  13.995 -0.4836 -0.1144 -0.1960
18277TIP3    H276323   2.606   3.573  13.854 -0.4289  0.4624  0.0340
18278TIP3   OH276324   4.375   2.106  16.323  0.1205 -0.4157 -0.2439
18278TIP3    H176325   4.356   2.013  16.337  1.6932 -0.6588  0.3718
18278TIP3    H276326   4.289   2.147  16.317 -0.5951 -1.8658 -0.2263
18279TIP3   OH276327   2.878   0.394  12.683 -0.7433 -0.1386  0.3288
18279TIP3    H176328   2.791   0.433  12.683 -1.1192 -0.9795  0.4507
18279TIP3    H276329   2.892   0.364  12.773  0.3300  1.4493  0.7068
18280TIP3   OH276330   6.641   5.030  13.573 -0.7369 -0.0204 -0.3183
18280TIP3    H176331   6.567   5.081  13.541 -0.6912 -0.4433 -1.1014
18280TIP3    H276332   6.605   4.942  13.587 -0.1271 -0.5131 -1.7661
18281TIP3   OH276333   2.830   4.876   4.099 -0.2540 -0.0610  0.2679
18281TIP3    H176334   2.881   4.806   4.058  1.8388  1.0112  0.9720
18281TIP3    H276335   2.795   4.836   4.178  0.2781 -0.5468  0.2671
18282TIP3   OH276336   6.181   1.347  13.804 -0.1536 -0.2076  0.2222
18282TIP3    H176337   6.273   1.371  13.794 -0.4689  1.2774  0.7462
18282TIP3    H276338   6.168   1.344  13.899 -0.5678 -0.7360  0.1494
18283TIP3   OH276339   5.126   5.070   5.329  0.6090 -0.3778 -0.0198
18283TIP3    H176340   5.155   5.010   5.262 -0.7944 -1.8466  0.6499
18283TIP3    H276341   5.198   5.074   5.392  1.1139 -0.5466 -0.5910
18284TIP3   OH276342   5.599   1.274   1.230 -0.6502  0.5051  0.2781
18284TIP3    H176343   5.577   1.367   1.221 -1.5847  0.3127  0.5923
18284TIP3    H276344   5.690   1.268   1.199 -0.2223  1.7000  1.2794
18285TIP3   OH276345   2.322   2.424  15.284  0.2069  0.2385 -0.1142
18285TIP3    H176346   2.351   2.337  15.256 -0.4684  0.1640 -0.5903
18285TIP3    H276347   2.303   2.471  15.203  0.5485  0.8215  0.1433
18286TIP3   OH276348   1.302   0.939  11.567  0.1883 -0.2570 -0.1295
18286TIP3    H176349   1.397   0.953  11.566  0.3787 -1.4517  0.1580
18286TIP3    H276350   1.265   1.019  11.531  1.2342  0.8479  1.2105
18287TIP3   OH276351   0.022   3.459   6.300 -0.9634 -0.3812 -0.1810
18287TIP3    H176352   0.007   3.502   6.384 -0.0607  0.3640 -0.3964
18287TIP3    H276353   0.053   3.371   6.323 -2.4463 -0.7977  0.2579
18288TIP3   OH276354   2.462   1.420   1.934  0.2068 -0.4745 -0.4435
18288TIP3    H176355   2.544   1.468   1.920  0.9416 -0.4293  3.3782
18288TIP3    H276356   2.395   1.487   1.934  0.6747 -0.0029  0.4578
18289TIP3   OH276357   1.371   6.509   0.917  0.0597 -0.0622  0.0562
18289TIP3    H176358   1.372   6.556   0.833 -0.8420  0.8294  0.5275
18289TIP3    H276359   1.395   6.419   0.895  1.8261  0.6161 -0.8683
18290TIP3   OH276360   5.462   5.199   2.919 -0.2466  0.3144  0.1780
18290TIP3    H176361   5.380   5.166   2.884 -0.2277  0.1803  0.2605
18290TIP3    H276362   5.443   5.219   3.011  0.2726 -1.3704  0.6736
18291TIP3   OH276363   4.247   5.644   1.266 -0.1889  0.0017 -0.4851
18291TIP3    H176364   4.204   5.621   1.183  0.0087  0.5983 -0.7517
18291TIP3    H276365   4.272   5.559   1.303  0.3548 -0.2335 -1.3730
18292TIP3   OH276366   6.523   5.179   1.554 -0.0777  0.2289 -0.1941
18292TIP3    H176367   6.525   5.167   1.459  0.8006  0.6084 -0.2261
18292TIP3    H276368   6.461   5.251   1.567 -0.9232 -0.4563 -0.4127
18293TIP3   OH276369   0.765   6.680   0.526  0.0065 -0.3973 -0.6823
18293TIP3    H176370   0.678   6.679   0.565  0.6100  1.1076  0.8127
18293TIP3    H276371   0.824   6.676   0.601  1.2280  4.3689 -1.2447
18294TIP3   OH276372   1.192   5.388  15.254 -0.2281  0.0820 -0.6674
18294TIP3    H176373   1.204   5.381  15.159  0.4379  1.1653 -0.6630
18294TIP3    H276374   1.276   5.419  15.287 -1.1644  1.9970  0.0122
18295TIP3   OH276375   2.216   0.360  15.824 -0.0575  0.2975 -0.3721
18295TIP3    H176376   2.274   0.406  15.764  0.8375  0.3719  0.5375
18295TIP3    H276377   2.138   0.416  15.830  0.7222  1.3183  0.1721
18296TIP3   OH276378   3.536   2.488   4.862 -0.6214  0.0517 -0.4236
18296TIP3    H176379   3.547   2.498   4.767 -2.2186 -0.4184 -0.6646
18296TIP3    H276380   3.468   2.552   4.885  0.2852  0.6974  0.5408
18297TIP3   OH276381   1.079   6.054  11.054 -0.0671 -0.2522 -0.6303
18297TIP3    H176382   1.054   6.084  11.142 -2.8549  1.9039 -2.0468
18297TIP3    H276383   1.037   5.969  11.045 -0.6320 -0.0259 -0.2079
18298TIP3   OH276384   2.091   4.513  12.275 -0.4875  0.2642 -0.6036
18298TIP3    H176385   2.137   4.576  12.221  0.8839  0.4127  0.6991
18298TIP3    H276386   2.056   4.564  12.348 -2.1222  0.0316 -1.1959
18299TIP3   OH276387   6.628   3.131  16.764  0.1743 -0.1559 -0.0976
18299TIP3    H176388   6.723   3.131  16.749  0.2405  0.3590  0.2995
18299TIP3    H276389   6.608   3.222  16.787 -0.2401 -0.5006  0.9346
18300TIP3   OH276390   4.294   6.598   1.991  0.2210 -0.1838  0.4026
18300TIP3    H176391   4.318   6.506   1.977  0.7417 -0.1400  1.0385
18300TIP3    H276392   4.205   6.594   2.026  1.1127 -0.5660  2.6966
18301TIP3   OH276393   5.372   3.669   5.948 -0.1133  0.4916 -0.0293
18301TIP3    H176394   5.367   3.759   5.917 -1.1041  0.9161  1.3085
18301TIP3    H276395   5.414   3.676   6.034  0.5048 -0.4040 -0.2572
18302TIP3   OH276396   6.062   1.913  15.159 -0.0694 -0.3780  0.2041
18302TIP3    H176397   6.053   2.007  15.146 -0.6240 -0.3095  1.0296
18302TIP3    H276398   5.973   1.881  15.169  0.1934 -0.7583  1.4584
18303TIP3   OH276399   2.701   1.971  16.696 -0.2435 -0.4794 -0.3862
18303TIP3    H176400   2.664   2.048  16.739  1.3947  0.2264 -0.2051
18303TIP3    H276401   2.627   1.912  16.683 -0.9923 -0.1884  2.3129
18304TIP3   OH276402   6.441   2.645   6.869  0.4313 -0.1758  0.1557
18304TIP3    H176403   6.353   2.634   6.905 -0.5989 -1.5110 -2.5948
18304TIP3    H276404   6.476   2.556   6.865  0.9149  0.0569 -1.0707
18305TIP3   OH276405   2.654   3.471  11.562  0.4318  0.9850  0.6763
18305TIP3    H176406   2.633   3.505  11.475 -2.1965  0.9165  1.2169
18305TIP3    H276407   2.741   3.434  11.554 -0.3270 -0.2653 -2.3228
18306TIP3   OH276408   0.914   4.782  16.570 -0.2726 -0.2662  0.4860
18306TIP3    H176409   0.893   4.691  16.547 -0.2546 -0.1183 -0.1173
18306TIP3    H276410   0.895   4.788  16.664  0.7163 -1.1791  0.7600
18307TIP3   OH276411   4.943   4.026  12.312 -0.5473  0.0324 -0.2688
18307TIP3    H176412   5.033   4.057  12.318  0.0341 -1.3925 -1.5534
18307TIP3    H276413   4.947   3.949  12.256 -2.2882 -1.1324  1.1350
18308TIP3   OH276414   5.136   5.748  16.777  0.0174 -0.4589  0.2716
18308TIP3    H176415   5.221   5.786  16.759  0.2675 -1.7515 -1.3717
18308TIP3    H276416   5.102   5.722  16.692 -1.5063 -1.0191  1.0244
18309TIP3   OH276417   0.285   4.184  11.406 -0.3486 -0.3346 -0.2229
18309TIP3    H176418   0.246   4.102  11.375 -0.5118 -0.4551  0.2940
18309TIP3    H276419   0.265   4.248  11.337 -4.5966  0.4691  1.6280
18310TIP3   OH276420   6.413   3.625  14.997 -0.0845 -0.2197  0.0250
18310TIP3    H176421   6.492   3.679  14.999  0.7905 -1.4631  0.4244
18310TIP3    H276422   6.341   3.686  15.009  0.7587  1.0550 -1.2181
18311TIP3   OH276423   1.201   4.172  15.081 -0.0035 -0.0392 -0.3146
18311TIP3    H176424   1.126   4.119  15.109 -1.1540  0.1153 -2.9897
18311TIP3    H276425   1.175   4.262  15.102 -0.3899 -0.0258 -0.8407
18312TIP3   OH276426   2.111   2.476  13.173  0.1728 -0.0447  0.3423
18312TIP3    H176427   2.159   2.414  13.228  1.2504 -0.6489 -1.2509
18312TIP3    H276428   2.144   2.562  13.200 -0.6149 -0.2047  1.8777
18313TIP3   OH276429   2.467   5.704  12.721  0.3251  0.0535  0.1883
18313TIP3    H176430   2.468   5.798  12.737 -0.5497 -0.0833  1.0462
18313TIP3    H276431   2.441   5.695  12.629 -0.2340  0.6233  0.2903
18314TIP3   OH276432   5.587   6.481   0.102  0.0830  0.0562  0.1706
18314TIP3    H176433   5.550   6.499   0.016 -1.5597 -1.7971  0.4363
18314TIP3    H276434   5.527   6.524   0.163 -0.2510 -0.8549  0.4942
18315TIP3   OH276435   1.746   0.467   1.128 -0.3662 -0.3076 -0.1777
18315TIP3    H176436   1.769   0.448   1.037 -2.4090  0.3324 -0.8541
18315TIP3    H276437   1.650   0.466   1.129 -0.3729  0.5163  1.7996
18316TIP3   OH276438   2.126   3.295   3.100 -0.4739 -0.4068  0.2259
18316TIP3    H176439   2.041   3.336   3.084 -1.1206 -2.1814 -1.0638
18316TIP3    H276440   2.156   3.332   3.182 -0.6811  3.2134 -1.2490
18317TIP3   OH276441   4.652   0.993   0.929  0.1767 -0.4772 -0.2290
18317TIP3    H176442   4.698   1.062   0.881  0.9759 -0.4256  0.6106
18317TIP3    H276443   4.709   0.917   0.923 -0.0287 -0.6553  0.0907
18318TIP3   OH276444   0.761   1.073   5.247 -0.0590 -0.1603  0.1765
18318TIP3    H176445   0.699   1.143   5.265 -1.9681 -2.1403  1.5707
18318TIP3    H276446   0.836   1.093   5.302 -0.1317  1.3719 -0.2755
18319TIP3   OH276447   0.543   2.789  12.021  0.3923  0.3795 -0.1580
18319TIP3    H176448   0.550   2.711  11.965 -1.5415 -0.2196  0.3676
18319TIP3    H276449   0.580   2.761  12.105 -1.8750 -0.5756  0.5662
18320TIP3   OH276450   6.728   0.960   1.035  0.4066 -0.0310 -0.2092
18320TIP3    H176451   6.676   1.023   1.085  0.0260  0.1937 -0.8759
18320TIP3    H276452   6.671   0.884   1.027 -0.9893  1.2579 -3.3940
18321TIP3   OH276453   2.147   1.261  13.545 -0.1550 -0.5380  0.2650
18321TIP3    H176454   2.052   1.267  13.559 -0.1589  1.6008 -0.5066
18321TIP3    H276455   2.156   1.214  13.462 -0.5417 -0.4116  0.1524
18322TIP3   OH276456   0.953   1.999   5.377 -0.4430 -0.0361  0.3015
18322TIP3    H176457   0.925   1.972   5.290  0.5553 -0.2916  0.0585
18322TIP3    H276458   0.891   1.955   5.436 -1.0886  0.1035 -0.2629
18323TIP3   OH276459   4.571   2.347   2.370  0.6919 -0.0380  0.2205
18323TIP3    H176460   4.629   2.386   2.304 -0.7972  1.3668 -0.3261
18323TIP3    H276461   4.489   2.331   2.322  0.9838 -3.0371  0.6880
18324TIP3   OH276462   0.127   0.176  14.189 -0.2099 -0.0766 -0.2116
18324TIP3    H176463   0.083   0.132  14.262  0.6435 -0.7775 -0.1162
18324TIP3    H276464   0.171   0.105  14.142 -1.1817  0.2986 -1.7099
18325TIP3   OH276465   0.199   2.060  15.900  0.7684 -0.2364 -0.2791
18325TIP3    H176466   0.120   2.006  15.896 -0.3055  1.2064  0.9382
18325TIP3    H276467   0.171   2.147  15.871  1.9850  0.2049 -0.1614
18326TIP3   OH276468   3.579   5.207   0.431  0.7255 -0.4342  0.1720
18326TIP3    H176469   3.598   5.235   0.521  0.9263 -0.1785  0.0509
18326TIP3    H276470   3.660   5.223   0.384  0.5621 -0.3976 -0.0963
18327TIP3   OH276471   0.965   1.197   5.402  0.6797  0.3170 -0.1382
18327TIP3    H176472   1.039   1.149   5.438  1.0628  1.1450  0.1770
18327TIP3    H276473   0.996   1.287   5.392 -0.3413  0.7158  0.1891
18328TIP3   OH276474   5.852   3.371   4.191  0.3373 -0.4044 -0.6040
18328TIP3    H176475   5.946   3.358   4.186  0.4785 -0.4318  1.5437
18328TIP3    H276476   5.840   3.465   4.196  0.3082 -0.4251 -0.2205
18329TIP3   OH276477   1.333   3.507  13.230  0.1955 -0.1283  0.2284
18329TIP3    H176478   1.314   3.454  13.308 -0.8493  1.6085  1.2002
18329TIP3    H276479   1.428   3.508  13.224  0.3144  0.2275  1.8608
18330TIP3   OH276480   0.350   2.062  11.268 -0.2514 -0.0852  0.1771
18330TIP3    H176481   0.423   2.040  11.209 -0.9653  0.1955 -0.8261
18330TIP3    H276482   0.316   1.977  11.296  0.6565 -0.2170  0.9001
18331TIP3   OH276483   4.043   4.033   3.074  0.1248 -0.4184 -0.6084
18331TIP3    H176484   4.046   3.965   3.007  0.1763 -0.5419 -0.4798
18331TIP3    H276485   4.130   4.072   3.074  0.0977 -0.3564 -0.6760
18332TIP3   OH276486   4.010   1.326   0.109 -0.1467  0.1952 -0.2452
18332TIP3    H176487   3.938   1.267   0.089  0.2624  0.7029 -3.3829
18332TIP3    H276488   4.076   1.307   0.044  1.3480  1.8261  0.7526
18333TIP3   OH276489   4.096   4.212   0.655 -0.1688  0.4210  0.3960
18333TIP3    H176490   4.086   4.244   0.744 -0.6388 -2.5040  1.4528
18333TIP3    H276491   4.186   4.179   0.650 -0.3057  0.1009 -0.0473
18334TIP3   OH276492   0.416   3.318  14.378 -0.2599 -0.1502  0.1530
18334TIP3    H176493   0.460   3.321  14.463 -1.1969  1.2987  0.6111
18334TIP3    H276494   0.437   3.232  14.343  1.0999 -0.3198  1.3405
18335TIP3   OH276495   5.429   4.148   5.456 -0.5791 -0.5871 -0.0106
18335TIP3    H176496   5.377   4.228   5.444 -0.8767 -0.7014  0.4903
18335TIP3    H276497   5.370   4.077   5.431 -0.6153 -0.7058  0.3961
18336TIP3   OH276498   0.422   1.048   5.217 -0.3126 -0.0134  0.5467
18336TIP3    H176499   0.348   1.005   5.260 -0.5238 -0.4369 -0.2186
18336TIP3    H276500   0.481   1.073   5.288 -0.0680 -1.7983  0.9835
18337TIP3   OH276501   1.937   3.665  13.588 -0.0371  0.1934  0.2193
18337TIP3    H176502   1.958   3.757  13.570 -2.2778  0.4824 -1.2668
18337TIP3    H276503   1.848   3.655  13.553  1.6056 -3.5446 -3.2864
18338TIP3   OH276504   3.016   3.869   0.692 -0.2030 -0.3077  0.0962
18338TIP3    H176505   2.974   3.793   0.653  0.4424  0.2187 -1.6545
18338TIP3    H276506   2.943   3.926   0.718 -0.6445 -0.7538 -0.1711
18339TIP3   OH276507   1.440   1.951  15.729  0.2615 -0.6120 -0.9170
18339TIP3    H176508   1.500   2.015  15.768  0.5665 -1.6121  0.3272
18339TIP3    H276509   1.375   2.003  15.683  1.1876  0.5496 -0.9295
18340TIP3   OH276510   4.664   4.659   5.911 -0.6164  0.6299 -0.2028
18340TIP3    H176511   4.683   4.749   5.884 -1.2174  0.7996 -0.0751
18340TIP3    H276512   4.588   4.667   5.969 -0.3019  0.1040  0.2942
18341TIP3   OH276513   6.567   5.076   1.276  0.1826 -0.0848  0.4648
18341TIP3    H176514   6.580   5.117   1.191 -2.2922 -0.9880 -0.3837
18341TIP3    H276515   6.635   5.009   1.281  1.3178  1.0021 -0.1190
18342TIP3   OH276516   5.658   4.526  14.141 -0.4322 -0.1848 -0.3336
18342TIP3    H176517   5.671   4.599  14.080 -0.3401  0.3590  0.3392
18342TIP3    H276518   5.709   4.548  14.218  0.0433 -1.2299 -0.3378
18343TIP3   OH276519   3.460   4.036  15.642  0.1820 -0.1812  0.8315
18343TIP3    H176520   3.524   4.103  15.667  0.1035 -0.6185  2.1914
18343TIP3    H276521   3.506   3.953  15.654  0.8588 -0.3591 -2.4586
18344TIP3   OH276522   5.447   2.201  12.345  0.0764  0.5645  0.1329
18344TIP3    H176523   5.431   2.291  12.317 -0.2030  0.1985 -0.8908
18344TIP3    H276524   5.378   2.150  12.303  1.4120 -0.4211 -0.9109
18345TIP3   OH276525   0.258   5.359  17.052  0.5848 -0.2064 -0.5664
18345TIP3    H176526   0.253   5.342  16.958  1.2661 -2.3253 -0.2331
18345TIP3    H276527   0.178   5.321  17.088 -0.6411  2.3192 -0.4964
18346TIP3   OH276528   2.686   1.667  16.996  0.0973  0.4042 -0.2195
18346TIP3    H176529   2.646   1.754  17.002  0.5704  0.5224  1.2061
18346TIP3    H276530   2.728   1.653  17.080  0.4226 -1.0241 -0.6001
18347TIP3   OH276531   6.468   5.685   3.411  0.2796 -0.6500 -0.3038
18347TIP3    H176532   6.525   5.757   3.440  0.4834 -0.5988 -0.8270
18347TIP3    H276533   6.396   5.685   3.474  1.5324 -1.5704  1.1815
18348TIP3   OH276534   1.481   5.377  12.576  0.0786 -0.2537  0.0618
18348TIP3    H176535   1.517   5.304  12.525 -0.8802 -0.4291 -0.3725
18348TIP3    H276536   1.488   5.452  12.517  2.5164  0.3692  1.0655
18349TIP3   OH276537   5.645   2.480   4.192 -0.4050 -0.0240  0.1800
18349TIP3    H176538   5.575   2.527   4.148 -0.8130 -0.4593  0.3613
18349TIP3    H276539   5.724   2.503   4.142 -0.7762 -0.0714 -0.4353
18350TIP3   OH276540   3.458   3.118   4.833  0.4251  0.0469 -0.1751
18350TIP3    H176541   3.510   3.039   4.846 -0.5943 -0.6194 -0.1293
18350TIP3    H276542   3.369   3.087   4.820  0.1087  1.1522 -0.7660
18351TIP3   OH276543   2.924   0.311   2.227  0.1279  0.6109  0.4056
18351TIP3    H176544   2.845   0.278   2.185  0.8067 -0.1215 -0.3279
18351TIP3    H276545   2.995   0.282   2.170  0.8408  2.3398  0.3888
18352TIP3   OH276546   3.732   4.884  15.131 -0.2344 -0.1497  0.2985
18352TIP3    H176547   3.649   4.876  15.178  0.3091 -0.2484  1.2575
18352TIP3    H276548   3.766   4.795  15.125 -0.2959 -0.1383 -0.2868
18353TIP3   OH276549   3.344   6.230  11.210 -0.1494  0.2670  0.0537
18353TIP3    H176550   3.290   6.287  11.264 -1.3642 -0.2748 -0.5796
18353TIP3    H276551   3.286   6.201  11.140  0.7777 -0.8597 -0.2582
18354TIP3   OH276552   0.136   6.398  13.302  0.2952  0.0584 -0.4315
18354TIP3    H176553   0.129   6.312  13.261  3.2419  0.0312 -0.9536
18354TIP3    H276554   0.097   6.458  13.239 -1.8212 -0.8508 -0.0430
18355TIP3   OH276555   0.668   0.043  12.255 -0.6815 -0.7386 -0.3871
18355TIP3    H176556   0.756   0.019  12.285 -1.3373 -1.8605  0.6887
18355TIP3    H276557   0.639  -0.032  12.204 -0.6583  0.0347 -1.5689
18356TIP3   OH276558   1.299   6.282   5.206 -0.8058 -0.4844  0.1611
18356TIP3    H176559   1.352   6.295   5.284 -0.5470 -2.6386  0.3749
18356TIP3    H276560   1.209   6.288   5.236 -0.7043 -0.8646  0.5393
18357TIP3   OH276561   1.469   5.243  13.840  0.4438  0.2510 -0.0567
18357TIP3    H176562   1.452   5.195  13.921  2.9959  0.0781  0.4344
18357TIP3    H276563   1.390   5.293  13.824 -0.7051 -0.9783  1.6662
18358TIP3   OH276564   1.704   4.560  13.660  0.7674 -0.2475  0.1992
18358TIP3    H176565   1.715   4.653  13.640 -0.8858  0.0768  0.8034
18358TIP3    H276566   1.792   4.523  13.648  1.3043  1.2678 -0.6436
18359TIP3   OH276567   6.095   0.622  12.307  0.1284  0.0479 -0.5330
18359TIP3    H176568   6.131   0.682  12.243 -0.9741  0.2762 -0.9576
18359TIP3    H276569   6.066   0.678  12.379 -0.0747 -0.0506 -0.5360
18360TIP3   OH276570   0.126   5.670   2.429  0.0128  0.1906  0.0700
18360TIP3    H176571   0.052   5.611   2.437  0.5227 -0.2862  1.3719
18360TIP3    H276572   0.173   5.639   2.351 -1.1652  0.5180 -0.7733
18361TIP3   OH276573   4.425   4.800   3.381  0.2901 -0.1644  0.0155
18361TIP3    H176574   4.450   4.884   3.341 -1.7548 -0.3949 -1.7982
18361TIP3    H276575   4.331   4.793   3.366  0.5048 -2.9743 -0.1946
18362TIP3   OH276576   5.041   3.816  12.169 -0.0886 -0.2056 -0.3358
18362TIP3    H176577   5.000   3.745  12.119  0.1012  0.0094 -0.8011
18362TIP3    H276578   5.104   3.855  12.108  0.8221 -0.5425  0.3718
18363TIP3   OH276579   0.171   6.532  15.602 -0.3542 -0.4766 -0.3767
18363TIP3    H176580   0.084   6.505  15.633 -0.5738  0.1773 -0.4213
18363TIP3    H276581   0.156   6.562  15.512 -0.1118 -0.1968 -0.3233
18364TIP3   OH276582   4.695   4.325   6.086 -0.2164 -0.8462 -0.2620
18364TIP3    H176583   4.644   4.254   6.047  0.7828 -1.0296 -1.2507
18364TIP3    H276584   4.786   4.306   6.064 -0.0510  1.4544 -1.7848
18365TIP3   OH276585   4.790   6.557  15.808 -0.4332 -0.0162 -0.1076
18365TIP3    H176586   4.796   6.604  15.725  2.9285 -0.2351 -0.0357
18365TIP3    H276587   4.731   6.483  15.789 -0.5856  0.5490 -1.9649
18366TIP3   OH276588   2.378   6.437  13.122 -0.2530 -0.5553  0.7651
18366TIP3    H176589   2.325   6.446  13.043 -2.2808 -1.8463  1.9374
18366TIP3    H276590   2.398   6.527  13.149 -1.2362 -0.0753 -0.0974
18367TIP3   OH276591   3.673   2.159   0.308  0.1462 -0.1081  0.2210
18367TIP3    H176592   3.723   2.189   0.233  0.5297 -0.2665  0.4136
18367TIP3    H276593   3.616   2.091   0.273  0.8640 -0.7127  0.2220
18368TIP3   OH276594   2.699   2.626  16.584  0.9714 -0.4200  0.6351
18368TIP3    H176595   2.682   2.558  16.519  3.0292 -0.0616 -0.3166
18368TIP3    H276596   2.633   2.692  16.568  2.1937  0.2323 -1.9338
18369TIP3   OH276597   2.191   3.875  12.095  0.1162 -0.3023  0.1571
18369TIP3    H176598   2.255   3.848  12.029  0.8600 -0.1617  0.8262
18369TIP3    H276599   2.140   3.943  12.052 -0.8516 -1.7514 -1.0560
18370TIP3   OH276600   1.745   3.280   4.798  0.8836  0.3847  0.2623
18370TIP3    H176601   1.822   3.337   4.803  0.3679  0.9997  1.3833
18370TIP3    H276602   1.708   3.283   4.886  0.0860 -0.6265 -0.0340
18371TIP3   OH276603   1.155   5.060   1.215  0.8356  0.1958  0.2544
18371TIP3    H176604   1.066   5.085   1.190  0.7341 -1.1513 -0.7822
18371TIP3    H276605   1.142   4.991   1.281  1.1162  0.3017  0.4215
18372TIP3   OH276606   5.943   4.871   0.702  0.0387 -0.0691 -0.0423
18372TIP3    H176607   6.030   4.874   0.662 -0.5676  1.1405 -1.2859
18372TIP3    H276608   5.959   4.892   0.795  1.0379  0.4315 -0.3154
18373TIP3   OH276609   0.849   2.625  11.587  0.2893 -0.2961  0.7886
18373TIP3    H176610   0.875   2.562  11.654  1.5134  2.1174  2.6581
18373TIP3    H276611   0.917   2.693  11.590  0.1430  0.1122 -2.6016
18374TIP3   OH276612   0.482   3.058   2.424 -0.2945 -0.5466  0.1050
18374TIP3    H176613   0.497   3.042   2.517  0.8253  0.4601  0.0997
18374TIP3    H276614   0.502   2.974   2.382 -0.7422 -0.9816  0.7653
18375TIP3   OH276615   4.942   5.221  11.669 -0.6067 -0.3118  0.3571
18375TIP3    H176616   5.000   5.297  11.679 -2.6807  1.4180 -0.3890
18375TIP3    H276617   4.876   5.232  11.737 -0.5402 -1.8602  0.7040
18376TIP3   OH276618   0.900   6.298  16.961 -0.0777 -0.2091 -0.1149
18376TIP3    H176619   0.968   6.307  17.027  2.8834  0.1383 -3.0455
18376TIP3    H276620   0.940   6.334  16.881 -2.7878 -2.3190 -2.5366
18377TIP3   OH276621   6.718   1.563  12.544  0.1094  0.0762 -0.0276
18377TIP3    H176622   6.659   1.489  12.536 -1.1014  0.9677  0.4598
18377TIP3    H276623   6.736   1.569  12.638 -0.2748  0.7491  0.0097
18378TIP3   OH276624   4.040   6.303   2.613 -0.1225 -0.0290  0.9345
18378TIP3    H176625   4.023   6.258   2.530 -1.5456 -0.9117  1.7020
18378TIP3    H276626   4.071   6.390   2.587 -1.1858 -0.0739 -0.5093
18379TIP3   OH276627   2.550   2.591   4.927 -0.0675  0.5571 -0.4521
18379TIP3    H176628   2.479   2.549   4.976  0.6789 -1.0381 -0.7315
18379TIP3    H276629   2.563   2.675   4.973  0.3595 -0.7354  1.8724
18380TIP3   OH276630   1.618   6.028  12.413 -0.2373 -0.0926  0.0676
18380TIP3    H176631   1.619   6.098  12.347 -1.6209 -1.1974 -1.1462
18380TIP3    H276632   1.525   6.010  12.427  0.1042 -2.7856 -0.8479
18381TIP3   OH276633   1.115   4.650  13.971 -0.1462  0.1992  0.0487
18381TIP3    H176634   1.197   4.607  13.950  0.3525  1.4533 -0.5916
18381TIP3    H276635   1.068   4.655  13.888 -0.7691 -0.2862  0.3666
18382TIP3   OH276636   1.535   2.856  15.088 -0.1278  0.0684  0.0680
18382TIP3    H176637   1.501   2.934  15.132 -0.1353  0.7161 -1.0708
18382TIP3    H276638   1.621   2.883  15.056 -0.6256 -0.0002 -1.3668
18383TIP3   OH276639   0.312   0.037  16.010 -0.1352 -0.2785 -0.1204
18383TIP3    H176640   0.277  -0.039  15.964  0.5029 -1.5825  1.4711
18383TIP3    H276641   0.258   0.045  16.088  0.3893  0.3370  0.1875
18384TIP3   OH276642   5.288   5.324   0.236  0.4913 -0.6166 -0.2292
18384TIP3    H176643   5.227   5.250   0.239  0.6213 -0.8130 -1.8024
18384TIP3    H276644   5.252   5.382   0.169  0.8055  0.3847  0.4560
18385TIP3   OH276645   5.143   3.115   0.508 -0.0466  0.1906  0.1742
18385TIP3    H176646   5.074   3.049   0.497  0.5780 -0.5210  0.4503
18385TIP3    H276647   5.137   3.169   0.429 -2.2485  1.4150  1.1404
18386TIP3   OH276648   0.033   6.379   1.122  0.4991 -0.5486 -0.4393
18386TIP3    H176649   0.019   6.294   1.164  1.3572 -0.4395  0.0801
18386TIP3    H276650   0.055   6.437   1.195  0.0769  0.0805 -0.8191
18387TIP3   OH276651   3.346   5.863  15.042 -0.0718  0.5502 -0.3962
18387TIP3    H176652   3.351   5.789  15.103 -3.4224  0.8050  0.2778
18387TIP3    H276653   3.406   5.840  14.971  2.3164 -0.7265  1.9599
18388TIP3   OH276654   4.307   0.121  13.000  0.1519 -0.0014 -0.0625
18388TIP3    H176655   4.395   0.090  12.978 -0.7414 -2.6966 -0.0102
18388TIP3    H276656   4.310   0.139  13.094  1.3902  2.6080 -0.5615
18389TIP3   OH276657   2.195   1.852   6.451 -0.5402  0.1723 -0.2867
18389TIP3    H176658   2.154   1.938   6.463 -1.9236 -0.1692 -2.4556
18389TIP3    H276659   2.127   1.798   6.411 -0.2223 -2.4493  2.5101
18390TIP3   OH276660   1.778   5.068  13.980 -0.2661  0.0935  1.0115
18390TIP3    H176661   1.847   5.036  13.922 -0.0340  0.2006  1.2238
18390TIP3    H276662   1.736   4.989  14.014  0.1827  0.0094  1.3891
18391TIP3   OH276663   2.700   2.389   5.075  0.7382 -0.1132  0.4217
18391TIP3    H176664   2.692   2.471   5.123 -2.0265 -0.4546  0.6753
18391TIP3    H276665   2.649   2.403   4.995  0.9609 -1.2974  0.0603
18392TIP3   OH276666   5.229   2.112  15.731 -0.2971  0.0944  0.0123
18392TIP3    H176667   5.135   2.126  15.716 -0.6233 -1.6629  0.2499
18392TIP3    H276668   5.251   2.038  15.674  1.1723  1.1168 -0.7605
18393TIP3   OH276669   4.259   4.648  12.859  0.1620 -0.4950  0.2388
18393TIP3    H176670   4.233   4.707  12.789 -0.6585 -0.9147  0.1888
18393TIP3    H276671   4.273   4.705  12.935 -1.3098 -0.3004  0.3825
18394TIP3   OH276672   2.784   2.287   4.650 -0.5005 -0.0789 -0.0537
18394TIP3    H176673   2.827   2.277   4.735  0.0667  3.6667  0.1516
18394TIP3    H276674   2.693   2.307   4.671 -0.7919 -1.0302 -0.3825
18395TIP3   OH276675   3.854   0.117  13.085 -0.7041 -0.4051  0.0390
18395TIP3    H176676   3.810   0.035  13.065 -1.3079 -0.0001 -0.3357
18395TIP3    H276677   3.936   0.113  13.037  0.1121 -1.5717  1.4942
18396TIP3   OH276678   1.534   1.983   3.358 -0.4216 -0.6955 -0.5785
18396TIP3    H176679   1.559   1.891   3.367  0.3034 -0.6589 -2.0107
18396TIP3    H276680   1.560   2.023   3.440 -0.1035 -1.6299 -0.2123
18397TIP3   OH276681   2.491   6.541  15.780 -0.4967 -0.4043 -0.0702
18397TIP3    H176682   2.448   6.460  15.809  0.2416 -0.1585  1.7413
18397TIP3    H276683   2.419   6.596  15.749 -1.4131 -0.3918  1.9985
18398TIP3   OH276684   0.912   2.892  12.433 -0.1637  0.0284  0.1278
18398TIP3    H176685   0.868   2.966  12.391 -1.0741  0.1010  1.1705
18398TIP3    H276686   0.974   2.860  12.368 -1.3398  0.3252 -1.1522
18399TIP3   OH276687   4.844   3.229  13.966 -0.1077  0.0097 -0.2257
18399TIP3    H176688   4.793   3.254  13.889 -0.9163 -0.4543  0.1529
18399TIP3    H276689   4.828   3.135  13.976  1.8475 -0.4241 -0.8593
18400TIP3   OH276690   2.015   2.362  15.712 -0.1728 -0.5184 -0.1285
18400TIP3    H176691   1.941   2.398  15.761  1.4406  2.4353  0.2561
18400TIP3    H276692   2.085   2.356  15.776  0.2622 -2.2864 -0.7446
18401TIP3   OH276693   3.524   3.900  13.902 -0.4337  0.0744 -0.0903
18401TIP3    H176694   3.469   3.913  13.825 -0.8451  0.7936  0.3249
18401TIP3    H276695   3.613   3.893  13.867 -0.8836 -2.2211 -0.8711
18402TIP3   OH276696   2.845   6.683   3.325  0.0008 -0.3444  0.6914
18402TIP3    H176697   2.773   6.745   3.336  1.3037  0.9908  2.0635
18402TIP3    H276698   2.924   6.734   3.344  1.2499 -1.9588 -0.0145
18403TIP3   OH276699   0.234   0.226   2.236 -0.4163  0.4987 -0.0217
18403TIP3    H176700   0.152   0.180   2.252  0.4942 -0.3559  2.4810
18403TIP3    H276701   0.299   0.175   2.285  1.6282  1.0533 -2.0910
18404TIP3   OH276702   4.815   5.741  16.828 -0.1623  0.5484  0.2367
18404TIP3    H176703   4.772   5.826  16.827  0.9259  1.1522 -2.6087
18404TIP3    H276704   4.907   5.761  16.845 -0.2020 -0.2616  1.4809
18405TIP3   OH276705   3.783   6.003  14.167 -0.0974 -0.4795 -0.2533
18405TIP3    H176706   3.769   6.019  14.073 -0.2086 -0.1832 -0.1856
18405TIP3    H276707   3.801   6.089  14.203 -2.6373 -0.2056  0.4574
18406TIP3   OH276708   5.432   4.491  17.043 -0.3226  0.3055 -0.0948
18406TIP3    H176709   5.408   4.553  17.112  0.1411  0.2640  0.1078
18406TIP3    H276710   5.373   4.511  16.971 -3.1293 -1.8399  1.4966
18407TIP3   OH276711   0.973   4.947  11.460 -0.5245 -0.5041 -0.2067
18407TIP3    H176712   0.906   4.940  11.528 -0.1180 -1.0159  0.1436
18407TIP3    H276713   0.956   5.032  11.419  0.0355  0.4077  1.3922
18408TIP3   OH276714   6.592   0.842   5.473 -0.4443  0.0594 -0.2922
18408TIP3    H176715   6.575   0.859   5.380  0.6113  0.1335 -0.4781
18408TIP3    H276716   6.686   0.825   5.477 -0.7429 -1.4867  0.5286
18409TIP3   OH276717   2.786   3.191   2.516 -0.3844  0.1010 -0.3535
18409TIP3    H176718   2.855   3.197   2.450 -0.4033  0.2297 -0.3618
18409TIP3    H276719   2.832   3.166   2.596 -0.4145 -0.4462 -0.5040
18410TIP3   OH276720   5.642   1.461   3.098  0.4708 -0.5079 -1.1132
18410TIP3    H176721   5.657   1.447   3.191 -0.2173 -0.1349 -0.9385
18410TIP3    H276722   5.682   1.386   3.055  1.2439 -0.4179 -0.5520
18411TIP3   OH276723   6.630   5.495   1.649 -0.1600  0.3240  0.0791
18411TIP3    H176724   6.578   5.452   1.581 -1.5562  0.3011  1.1452
18411TIP3    H276725   6.572   5.501   1.724  1.4346  0.1753  1.3557
18412TIP3   OH276726   6.125   0.426   2.993 -0.8290  0.3720 -0.2622
18412TIP3    H176727   6.128   0.447   2.899 -0.9405 -0.4312 -0.4556
18412TIP3    H276728   6.035   0.397   3.007 -0.2163 -1.6469 -0.3886
18413TIP3   OH276729   4.007   3.355  16.214  0.1346 -0.5447  0.7522
18413TIP3    H176730   3.950   3.305  16.273  0.2121 -0.5926  0.7859
18413TIP3    H276731   4.010   3.302  16.134 -0.3105 -0.2714  0.5533
18414TIP3   OH276732   2.756   1.253   3.220 -0.4293  0.2097 -0.4212
18414TIP3    H176733   2.740   1.295   3.304  0.6522 -1.3316  0.5689
18414TIP3    H276734   2.824   1.306   3.179  1.3177 -0.8548  1.0492
18415TIP3   OH276735   2.849   5.615   1.128 -0.6208 -0.0016 -0.6167
18415TIP3    H176736   2.850   5.700   1.172 -1.1297 -0.4339  0.2400
18415TIP3    H276737   2.764   5.576   1.150  0.1509 -1.3151  0.1386
18416TIP3   OH276738   4.793   2.065   6.699  0.3162  0.6622  0.2357
18416TIP3    H176739   4.753   2.014   6.628  0.5175 -0.7262  1.0907
18416TIP3    H276740   4.756   2.152   6.690  0.5072  0.5714 -1.7204
18417TIP3   OH276741   6.256   4.477   5.743 -0.2433  0.2278 -0.0459
18417TIP3    H176742   6.218   4.453   5.828 -0.7204  1.0760 -0.0107
18417TIP3    H276743   6.184   4.466   5.681  0.2721 -0.9608 -0.4354
18418TIP3   OH276744   4.215   2.878  13.800  0.3695 -0.0165  1.0643
18418TIP3    H176745   4.196   2.972  13.803 -0.2491 -0.1430  1.1688
18418TIP3    H276746   4.283   2.865  13.866  0.2920  0.3158  1.2112
18419TIP3   OH276747   2.840   1.462  15.832  0.3095 -0.5135 -0.1752
18419TIP3    H176748   2.932   1.447  15.809 -0.1197 -1.1874 -1.5323
18419TIP3    H276749   2.791   1.428  15.756 -0.9700  2.1801 -0.5952
18420TIP3   OH276750   2.889   6.142   3.690 -0.3645  0.1797 -0.5903
18420TIP3    H176751   2.852   6.212   3.743  0.0482  0.1089 -0.2099
18420TIP3    H276752   2.960   6.106   3.743 -0.3712 -0.3194 -0.9144
18421TIP3   OH276753   3.661   1.263  11.301 -0.2125 -0.0268 -0.7457
18421TIP3    H176754   3.618   1.216  11.229  0.1163 -2.1292  0.3762
18421TIP3    H276755   3.602   1.251  11.375  1.5312 -1.6362  0.4176
18422TIP3   OH276756   5.116   1.060   2.063 -0.0351  0.2344  0.0455
18422TIP3    H176757   5.201   1.024   2.039 -0.4067  0.3434 -1.4601
18422TIP3    H276758   5.134   1.110   2.143  1.2245 -0.1135  0.0005
18423TIP3   OH276759   3.984   5.363   2.668 -0.2786  0.5533  0.2176
18423TIP3    H176760   3.955   5.425   2.735  2.0002  0.8031  1.0398
18423TIP3    H276761   3.969   5.277   2.706  0.3104  0.6867  0.7765
18424TIP3   OH276762   5.525   6.289   4.094 -0.4593 -0.1311  0.0792
18424TIP3    H176763   5.487   6.357   4.039  1.2325  1.5135  0.8819
18424TIP3    H276764   5.524   6.326   4.182  1.5008 -0.7051  0.3572
18425TIP3   OH276765   5.554   1.151   4.131 -0.2365  0.2087  0.2709
18425TIP3    H176766   5.463   1.147   4.101  0.1230 -0.2378 -0.7702
18425TIP3    H276767   5.605   1.113   4.059  0.6249 -1.0367  1.5299
18426TIP3   OH276768   3.149   0.038  12.797 -0.2517  0.2511  0.1310
18426TIP3    H176769   3.170   0.060  12.706  0.5553  1.3488  0.5766
18426TIP3    H276770   3.220   0.076  12.848 -0.2390 -1.1412  1.1544
18427TIP3   OH276771   0.263   6.580   4.809  0.1720 -0.0864  0.1346
18427TIP3    H176772   0.182   6.583   4.861 -0.5868  0.0377 -1.0194
18427TIP3    H276773   0.242   6.520   4.737  0.6738  0.9381 -0.8756
18428TIP3   OH276774   6.706   0.786  10.838 -0.3170  0.0299  0.4995
18428TIP3    H176775   6.799   0.787  10.858 -0.2621 -0.4780  0.2813
18428TIP3    H276776   6.685   0.876  10.814  0.2117  0.0479  0.1013
18429TIP3   OH276777   2.014   5.080  14.361  0.1464 -0.1937 -0.4263
18429TIP3    H176778   1.922   5.059  14.375  0.0490  0.7497  0.3787
18429TIP3    H276779   2.017   5.112  14.271 -0.3980  0.2489 -0.2862
18430TIP3   OH276780   4.501   2.044  13.080 -0.4051 -0.1271 -0.2205
18430TIP3    H176781   4.574   1.994  13.043 -0.2549 -0.5496  0.6273
18430TIP3    H276782   4.473   1.993  13.156  1.1447  2.1364  1.9675
18431TIP3   OH276783   0.171   5.449  16.765 -0.0209 -0.0879 -0.2200
18431TIP3    H176784   0.222   5.400  16.701  0.5975 -1.3928  1.2200
18431TIP3    H276785   0.226   5.524  16.787  0.5386 -0.5598  0.0332
18432TIP3   OH276786   5.288   1.859  13.492 -0.6491  0.4174  0.1307
18432TIP3    H176787   5.224   1.882  13.424 -0.6330  4.0753  1.2215
18432TIP3    H276788   5.352   1.804  13.447 -1.7934  0.9649 -2.2578
18433TIP3   OH276789   4.045   1.529  13.567 -0.2760  0.1037  0.0055
18433TIP3    H176790   3.987   1.592  13.525 -3.3224 -0.4823  3.0766
18433TIP3    H276791   4.015   1.444  13.536  0.0896 -0.1018  0.2170
18434TIP3   OH276792   3.921   4.283   6.189 -0.4241 -0.5123  0.0562
18434TIP3    H176793   3.841   4.287   6.241 -0.7273 -0.8263 -0.3896
18434TIP3    H276794   3.909   4.349   6.121 -1.0238 -1.7168 -1.0280
18435TIP3   OH276795   3.442   1.495   2.064  0.1605  0.1798  0.0217
18435TIP3    H176796   3.526   1.494   2.110  0.0723 -1.0752  0.1680
18435TIP3    H276797   3.452   1.562   1.997  2.0313 -1.3860 -1.3261
18436TIP3   OH276798   4.979   4.171  11.359 -0.1882  0.1120 -0.1642
18436TIP3    H176799   4.929   4.136  11.433  1.8520  0.3134  1.3517
18436TIP3    H276800   5.041   4.101  11.337  0.2784  0.6673 -0.6390
18437TIP3   OH276801   5.493   0.697   5.822 -0.2394 -0.5660  0.2400
18437TIP3    H176802   5.574   0.677   5.774 -0.7488 -0.4763 -0.6779
18437TIP3    H276803   5.423   0.663   5.766 -0.9375  0.9265  0.1780
18438TIP3   OH276804   0.128   1.867  11.640 -0.0649  0.3091 -0.7581
18438TIP3    H176805   0.064   1.817  11.589 -1.2376  0.2325  0.7883
18438TIP3    H276806   0.128   1.954  11.599  0.5099 -0.3261 -2.1723
18439TIP3   OH276807   1.045   5.918  13.079  0.0007 -0.2185 -0.8956
18439TIP3    H176808   1.042   5.889  13.170  0.2194  1.8490 -0.2037
18439TIP3    H276809   1.136   5.907  13.053  0.2198  0.5045 -0.4232
18440TIP3   OH276810   4.346   4.015   4.279 -0.5175  0.0299  0.1028
18440TIP3    H176811   4.412   4.084   4.286 -0.2031 -0.4089  1.6678
18440TIP3    H276812   4.394   3.934   4.296 -1.4806 -0.2836  1.3381
18441TIP3   OH276813   0.059   2.076   6.008  0.4375  0.7026 -0.0135
18441TIP3    H176814   0.073   2.057   6.101 -0.1126  0.4629  0.0213
18441TIP3    H276815   0.141   2.050   5.966 -0.0930 -1.2063  0.1024
18442TIP3   OH276816   4.000   1.222   1.344 -0.2688  0.7750  0.3293
18442TIP3    H176817   4.075   1.198   1.290 -1.2687 -0.7340 -0.3970
18442TIP3    H276818   4.039   1.257   1.424  1.2505 -1.8673  0.8107
18443TIP3   OH276819   3.370   0.453  15.781  0.2515 -0.2934  0.5105
18443TIP3    H176820   3.457   0.463  15.742  0.5213 -0.6061  1.0325
18443TIP3    H276821   3.362   0.359  15.797  0.0380 -0.1972  0.9776
18444TIP3   OH276822   3.254   0.984  13.281  0.1223 -0.0388 -0.3983
18444TIP3    H176823   3.211   1.004  13.197  1.1887  0.3128 -0.8612
18444TIP3    H276824   3.185   0.942  13.333 -1.3043  2.0904 -0.4927
18445TIP3   OH276825   1.216   4.264   0.890  0.0012  0.4838 -0.0328
18445TIP3    H176826   1.273   4.274   0.814 -1.9689  0.7898 -1.5139
18445TIP3    H276827   1.276   4.251   0.963  1.9701  1.0988 -1.4852
18446TIP3   OH276828   3.674   1.671   0.006 -0.4203  0.3969 -0.0872
18446TIP3    H176829   3.676   1.667   0.101  2.4062 -0.9775 -0.1562
18446TIP3    H276830   3.744   1.732  -0.017 -0.1583 -0.3453 -1.3196
18447TIP3   OH276831   6.329   6.484   4.648 -0.1887  0.2062  0.0109
18447TIP3    H176832   6.305   6.453   4.735 -0.7414 -1.1236 -0.5856
18447TIP3    H276833   6.250   6.471   4.595  0.0677  1.2129 -0.6303
18448TIP3   OH276834   1.613   0.284  16.973 -0.2183 -0.2847  0.3826
18448TIP3    H176835   1.618   0.378  16.988  1.6323 -0.3383  0.2180
18448TIP3    H276836   1.547   0.253  17.035 -2.3354  1.3926 -0.9423
18449TIP3   OH276837   4.605   1.035  11.947  0.3792 -0.7758 -0.2158
18449TIP3    H176838   4.556   0.953  11.955  1.3870 -1.2482  1.5274
18449TIP3    H276839   4.693   1.013  11.979  0.7786  0.8838 -0.1372
18450TIP3   OH276840   6.291   5.824  13.696  0.6679 -0.3747 -0.4721
18450TIP3    H176841   6.324   5.766  13.764  1.2690 -1.0871 -1.3698
18450TIP3    H276842   6.341   5.905  13.709  1.0100 -0.6143 -0.2643
18451TIP3   OH276843   3.788   0.821  11.026 -0.2497 -0.6698 -0.4634
18451TIP3    H176844   3.822   0.772  10.951 -1.4436 -2.3328  0.0665
18451TIP3    H276845   3.731   0.759  11.071  0.8307  0.1346  2.1073
18452TIP3   OH276846   6.736   1.060   6.795 -0.1130 -0.3648 -0.2622
18452TIP3    H176847   6.798   1.106   6.739  0.5291 -2.1973 -1.0852
18452TIP3    H276848   6.765   1.080   6.884  0.5977  0.2045 -0.6172
18453TIP3   OH276849   1.012   6.486   0.361  0.0126  0.1996  0.6622
18453TIP3    H176850   1.058   6.405   0.338 -1.2997 -0.2630 -0.4092
18453TIP3    H276851   0.942   6.458   0.419 -1.2678  0.3651 -0.7644
18454TIP3   OH276852   4.393   2.898   4.561 -0.0448 -0.3736 -0.3083
18454TIP3    H176853   4.414   2.949   4.639 -0.5318  0.7226 -0.8874
18454TIP3    H276854   4.303   2.925   4.539 -0.6747 -2.1943 -0.0470
18455TIP3   OH276855   3.129   5.947  11.338 -0.0262  0.2880  0.6846
18455TIP3    H176856   3.205   5.988  11.379  0.4305  0.7181 -0.5906
18455TIP3    H276857   3.163   5.906  11.259 -1.2006  0.8087 -0.1025
18456TIP3   OH276858   6.185   0.757  13.882 -0.4753  0.0628  0.5047
18456TIP3    H176859   6.110   0.698  13.894 -0.7921  0.2836 -0.3680
18456TIP3    H276860   6.208   0.749  13.790  0.6976 -0.1315  0.8105
18457TIP3   OH276861   5.729   1.316  11.635 -0.3059  0.2705 -0.2288
18457TIP3    H176862   5.684   1.383  11.584 -2.0234 -0.7772 -0.1305
18457TIP3    H276863   5.664   1.246  11.645  1.9886 -2.1644 -1.7588
18458TIP3   OH276864   1.368   1.238  14.631  0.1164  0.2268 -0.1031
18458TIP3    H176865   1.451   1.253  14.676  0.7474  0.6960 -1.3861
18458TIP3    H276866   1.375   1.149  14.596 -0.7042 -0.4447  1.3919
18459TIP3   OH276867   4.434   2.499  11.765  0.4773  0.3119  0.5205
18459TIP3    H176868   4.369   2.439  11.726  0.3302  1.7673 -1.5625
18459TIP3    H276869   4.518   2.461  11.741  0.4306 -1.5525  3.1785
18460TIP3   OH276870   2.506   3.497   5.281  0.0601  0.1303  0.6158
18460TIP3    H176871   2.539   3.454   5.359  0.7776  2.0462  1.3983
18460TIP3    H276872   2.450   3.568   5.314  0.9915  1.4559 -0.5814
18461TIP3   OH276873   2.551   4.411   6.166 -0.4169 -0.4039  1.0425
18461TIP3    H176874   2.593   4.403   6.081  0.2320 -2.4723  1.5191
18461TIP3    H276875   2.614   4.461   6.219 -0.2889 -0.1538  0.6570
18462TIP3   OH276876   5.000   0.304  12.700 -0.2039  0.1948  0.1908
18462TIP3    H176877   5.012   0.398  12.688 -0.1941  0.0317 -1.1348
18462TIP3    H276878   5.086   0.271  12.723 -0.2393  0.5262  0.8107
18463TIP3   OH276879   3.037   1.040  16.678 -0.1960  0.1027  0.1105
18463TIP3    H176880   3.116   0.990  16.700 -0.3157 -0.4801 -0.7370
18463TIP3    H276881   3.002   1.069  16.762  0.7302  0.0692  0.5141
18464TIP3   OH276882   3.781   3.865  15.221 -0.0213 -0.0817 -0.3322
18464TIP3    H176883   3.849   3.932  15.237 -0.5482  0.4657 -0.3643
18464TIP3    H276884   3.825   3.782  15.239 -0.1748  0.4256  2.6535
18465TIP3   OH276885   4.639   5.299   4.608  0.5579  0.6192  0.0892
18465TIP3    H176886   4.601   5.343   4.684  0.9727  1.6036 -0.2632
18465TIP3    H276887   4.594   5.214   4.604 -0.7713  1.2909  0.3627
18466TIP3   OH276888   3.894   5.751  14.083 -0.4313 -0.2787  0.2806
18466TIP3    H176889   3.926   5.838  14.106 -1.6136  0.4251 -0.6420
18466TIP3    H276890   3.955   5.691  14.125 -0.6026  0.9734  2.3929
18467TIP3   OH276891   5.581   0.882   1.063  0.4057 -0.6865 -0.4731
18467TIP3    H176892   5.583   0.967   1.019  4.0956 -1.3880 -1.7812
18467TIP3    H276893   5.545   0.822   0.997  0.9706 -0.7478 -0.7305
18468TIP3   OH276894   0.355   2.520   6.066 -0.1469  0.4347 -0.3324
18468TIP3    H176895   0.410   2.472   6.128 -0.9336  0.2647  0.2397
18468TIP3    H276896   0.306   2.581   6.120 -0.7499  0.3642 -0.8046
18469TIP3   OH276897   5.929   6.779  16.619 -0.3490 -0.4424 -0.2472
18469TIP3    H176898   5.954   6.708  16.559 -1.0054 -2.3423  1.6688
18469TIP3    H276899   5.847   6.813  16.583  1.0391  0.8152 -2.3567
18470TIP3   OH276900   3.173   1.145   1.869  0.2872 -0.2056 -0.3789
18470TIP3    H176901   3.176   1.058   1.828  1.5670 -0.4866  0.2942
18470TIP3    H276902   3.264   1.166   1.888 -0.1896  0.3644  1.3807
18471TIP3   OH276903   5.255   2.754   2.272 -0.4707 -0.0553  0.0135
18471TIP3    H176904   5.319   2.705   2.323 -0.1123 -0.0065 -0.3955
18471TIP3    H276905   5.223   2.692   2.207  0.6084  0.4988 -1.0547
18472TIP3   OH276906   2.396   4.331  12.067  0.2061  0.1434  0.1884
18472TIP3    H176907   2.467   4.382  12.029  1.3265 -1.2307  0.4027
18472TIP3    H276908   2.317   4.361  12.021  1.1922  0.3228 -1.4053
18473TIP3   OH276909   1.093   3.138   6.397  0.6047 -0.3068 -0.0327
18473TIP3    H176910   1.132   3.152   6.483 -2.2063 -1.5799  1.5495
18473TIP3    H276911   1.024   3.204   6.391  2.1633  1.1682 -2.2654
18474TIP3   OH276912   4.916   0.424   5.617 -0.0959 -0.4270 -0.5938
18474TIP3    H176913   4.953   0.466   5.539 -0.1508 -0.5658 -0.6942
18474TIP3    H276914   4.962   0.341   5.624 -0.7429 -0.8244 -1.0068
18475TIP3   OH276915   4.235   4.930   2.343 -0.0458 -0.5240  0.5800
18475TIP3    H176916   4.251   4.931   2.249 -0.5996 -0.0358  0.4867
18475TIP3    H276917   4.200   4.842   2.360 -1.4618 -0.0620  0.0669
18476TIP3   OH276918   4.061   4.166  14.812  0.2283  0.1072 -0.6302
18476TIP3    H176919   3.981   4.204  14.776 -0.5605  0.7404  1.7043
18476TIP3    H276920   4.048   4.072  14.808 -0.3030  0.1944 -0.9728
18477TIP3   OH276921   1.016   0.566   0.979 -0.2864  0.1965 -0.0217
18477TIP3    H176922   0.931   0.597   0.949 -0.9341 -2.3266 -0.9300
18477TIP3    H276923   0.997   0.483   1.022  1.6705 -0.1933  0.1418
18478TIP3   OH276924   1.627   0.773   4.394  0.2859  0.0025 -0.5157
18478TIP3    H176925   1.674   0.856   4.382  0.1107  0.4789  1.8444
18478TIP3    H276926   1.537   0.799   4.413  0.3203 -0.6936  0.6687
18479TIP3   OH276927   6.018   5.878  13.760 -0.1581 -0.8092  0.6073
18479TIP3    H176928   6.108   5.854  13.740 -0.2729 -0.0772 -0.8714
18479TIP3    H276929   6.009   5.967  13.726 -1.7649 -1.3029 -0.3034
18480TIP3   OH276930   2.247   2.935  14.083  0.4725  0.1495  0.1156
18480TIP3    H176931   2.204   3.020  14.071  0.1087 -0.1570 -0.7696
18480TIP3    H276932   2.178   2.878  14.117  0.4771 -0.0410 -0.1944
18481TIP3   OH276933   3.637   0.756  13.993 -0.0018 -0.0718  0.6597
18481TIP3    H176934   3.648   0.833  13.938 -0.7754 -0.0414  0.5447
18481TIP3    H276935   3.690   0.688  13.950 -1.3212 -0.2989 -0.6249
18482TIP3   OH276936   3.842   0.212  14.073 -0.2523  0.2910  0.1268
18482TIP3    H176937   3.828   0.163  13.992  0.8666 -0.3600  0.3179
18482TIP3    H276938   3.758   0.207  14.119 -0.0929 -1.6275  0.2479
18483TIP3   OH276939   4.798   5.773   4.339  0.1716  0.2157 -0.1980
18483TIP3    H176940   4.837   5.729   4.263 -0.7795 -0.5008 -0.2811
18483TIP3    H276941   4.774   5.702   4.398  1.6834  0.8022  1.1867
18484TIP3   OH276942   4.504   4.563  11.042 -0.0107 -0.0769  0.3134
18484TIP3    H176943   4.585   4.569  10.991  1.1217 -1.6129  1.8602
18484TIP3    H276944   4.462   4.483  11.010 -0.3047  0.0487  0.3864
18485TIP3   OH276945   1.832   1.078  12.882 -0.2403  0.4989  0.0123
18485TIP3    H176946   1.762   1.018  12.858  0.3191  0.1240 -0.6951
18485TIP3    H276947   1.788   1.149  12.928 -1.0341  0.0686 -0.0850
18486TIP3   OH276948   1.992   5.594   4.929  0.4899 -0.1064 -0.1819
18486TIP3    H176949   1.961   5.682   4.909  2.0956  0.6886  0.7139
18486TIP3    H276950   1.959   5.540   4.857  1.9841  1.7793 -2.3450
18487TIP3   OH276951   2.874   3.321   2.138  0.2151 -0.1657 -0.0783
18487TIP3    H176952   2.920   3.403   2.120  0.0858 -0.1573 -0.3694
18487TIP3    H276953   2.783   3.338   2.113 -0.0657 -0.0081  0.9912
18488TIP3   OH276954   3.077   4.057   3.617  0.7723 -0.2508 -0.5301
18488TIP3    H176955   3.156   4.087   3.573 -1.2499  1.0812 -3.4791
18488TIP3    H276956   3.017   4.132   3.612 -0.4451 -0.9925  2.2067
18489TIP3   OH276957   0.791   1.730   0.014 -0.0950 -0.3037  0.2016
18489TIP3    H176958   0.862   1.773  -0.032 -0.4292  0.6963  0.6114
18489TIP3    H276959   0.714   1.784  -0.004 -0.3552 -0.2492  1.4081
18490TIP3   OH276960   3.304   0.512   4.586 -0.5778 -0.4118  0.4003
18490TIP3    H176961   3.232   0.511   4.649 -1.6273 -2.4651 -0.8144
18490TIP3    H276962   3.315   0.605   4.564 -4.5363 -0.2592 -1.3062
18491TIP3   OH276963   4.154   2.286   5.360 -0.3439 -0.2422  0.2452
18491TIP3    H176964   4.147   2.327   5.446 -0.0255  1.3067 -0.4669
18491TIP3    H276965   4.136   2.193   5.377  3.0376 -0.5522  2.5157
18492TIP3   OH276966   2.926   4.576   2.055 -0.4679  0.6629 -0.2040
18492TIP3    H176967   2.952   4.520   1.982  1.0214  0.2784  0.5994
18492TIP3    H276968   2.862   4.524   2.103 -0.9509  0.6499 -0.8626
18493TIP3   OH276969   2.298   2.774   1.928  0.6889  0.1757  0.0107
18493TIP3    H176970   2.337   2.762   1.841 -0.6180 -2.1666 -0.3030
18493TIP3    H276971   2.237   2.847   1.917 -0.6962 -1.1701 -1.4960
18494TIP3   OH276972   5.142   4.275  12.334  0.5299 -0.2630 -0.3627
18494TIP3    H176973   5.114   4.321  12.255 -1.7725  1.4502  1.3818
18494TIP3    H276974   5.236   4.263  12.322  0.3725  0.7758 -2.9478
18495TIP3   OH276975   3.654   5.125  12.740  0.1766  0.1308 -0.0329
18495TIP3    H176976   3.733   5.094  12.783 -1.7732 -0.4710  3.3027
18495TIP3    H276977   3.657   5.220  12.749  0.2476  0.0690  0.5635
18496TIP3   OH276978   2.077   4.439   3.776 -0.0646 -0.1247 -0.3614
18496TIP3    H176979   2.022   4.436   3.854  0.2657 -0.2557 -0.1354
18496TIP3    H276980   2.126   4.521   3.784  0.4079 -0.4280 -0.1334
18497TIP3   OH276981   6.640   5.281   2.003 -0.2381  0.6520  0.0268
18497TIP3    H176982   6.655   5.270   1.909 -1.2761 -1.1764  0.0436
18497TIP3    H276983   6.667   5.198   2.042 -0.1643  1.2568  1.3113
18498TIP3   OH276984   1.046   1.305   0.646 -0.1074 -0.2204  0.4195
18498TIP3    H176985   1.049   1.215   0.679 -0.5731 -0.4793 -0.2231
18498TIP3    H276986   0.975   1.346   0.695  0.5479 -0.0052  1.1926
18499TIP3   OH276987   0.781   6.728  13.974 -0.0973 -0.0698 -0.3765
18499TIP3    H176988   0.766   6.720  14.068  1.9325 -0.2724 -0.0490
18499TIP3    H276989   0.785   6.638  13.942  1.2519 -0.0401 -0.3051
18500TIP3   OH276990   1.845   3.520   6.246 -1.1030  0.1803 -0.0475
18500TIP3    H176991   1.849   3.505   6.340 -0.0086  1.0534  0.0572
18500TIP3    H276992   1.790   3.598   6.236 -0.8877  0.3271 -0.0979
18501TIP3   OH276993   2.008   0.708  11.110  0.0249 -0.0083  0.3289
18501TIP3    H176994   2.064   0.671  11.178  0.5874 -1.1449 -0.7209
18501TIP3    H276995   2.000   0.638  11.045  0.0148  1.2658 -1.0764
18502TIP3   OH276996   0.962   0.142  13.940  0.0572 -0.4559  0.7280
18502TIP3    H176997   1.038   0.093  13.909  0.2636 -0.0883  0.6457
18502TIP3    H276998   0.895   0.076  13.954  0.0771 -0.6710 -0.1512
18503TIP3   OH276999   2.842   4.922   4.714 -0.1771 -0.3300 -0.3712
18503TIP3    H177000   2.790   4.979   4.657 -0.0139  0.0391 -0.1552
18503TIP3    H277001   2.821   4.952   4.802 -2.3973 -2.5646 -0.0905
18504TIP3   OH277002   5.114   5.361  13.570 -0.1378 -0.0306 -0.0170
18504TIP3    H177003   5.209   5.368  13.586 -0.2856 -1.3417  1.5002
18504TIP3    H277004   5.074   5.389  13.652 -1.1100  1.3322 -0.9345
18505TIP3   OH277005   2.282   2.108   4.666 -0.0532  0.1067  0.0092
18505TIP3    H177006   2.231   2.037   4.705  0.7132  0.1256  1.0837
18505TIP3    H277007   2.286   2.087   4.573 -0.3323 -0.9522  0.2296
18506TIP3   OH277008   6.704   0.525   0.607  0.7806  0.6887  0.1311
18506TIP3    H177009   6.648   0.589   0.563 -0.5580 -0.8346 -0.4486
18506TIP3    H277010   6.725   0.461   0.538 -0.3941 -1.1086  1.4184
18507TIP3   OH277011   4.043   4.893   4.896 -0.4349 -0.0852  0.4170
18507TIP3    H177012   3.985   4.857   4.828  1.4595 -0.0529 -1.2500
18507TIP3    H277013   3.983   4.929   4.961 -2.3049 -0.2815 -1.1400
18508TIP3   OH277014   0.381   2.814  14.830  0.7962  0.3420 -0.4278
18508TIP3    H177015   0.374   2.856  14.745 -1.4339  0.2388 -0.3297
18508TIP3    H277016   0.315   2.856  14.884 -0.3109 -2.0592  0.1750
18509TIP3   OH277017   0.604   5.932  12.827  0.3314  0.2650  0.2341
18509TIP3    H177018   0.621   6.024  12.808  0.4373 -0.0449 -1.3228
18509TIP3    H277019   0.677   5.904  12.882  0.7038  0.9240  0.0800
18510TIP3   OH277020   6.775   1.883  11.074  0.0950 -0.0647  0.5112
18510TIP3    H177021   6.701   1.860  11.130 -0.8947  1.6515 -0.0553
18510TIP3    H277022   6.832   1.806  11.077 -1.3686 -1.1444  1.5024
18511TIP3   OH277023   1.137   3.339  11.093 -0.1889 -0.4654 -1.0220
18511TIP3    H177024   1.129   3.409  11.028 -0.0767  0.6878  0.1999
18511TIP3    H277025   1.120   3.259  11.043  0.4178  0.3551 -2.5955
18512TIP3   OH277026   4.106   6.118   6.182 -0.5003  0.3625 -0.1914
18512TIP3    H177027   4.055   6.196   6.201 -0.5582  0.1510  0.5382
18512TIP3    H277028   4.099   6.065   6.261 -1.7523 -1.0783 -1.2268
18513TIP3   OH277029   3.510   0.709  15.404  0.3339  0.0633 -0.1231
18513TIP3    H177030   3.522   0.620  15.370  1.6972 -0.2663  1.2016
18513TIP3    H277031   3.580   0.721  15.468 -1.0145  1.4021  1.1402
18514TIP3   OH277032   1.078   0.579  12.529 -0.0447  0.1062 -0.1192
18514TIP3    H177033   1.121   0.586  12.444  1.4692  1.3887  0.7134
18514TIP3    H277034   1.139   0.528  12.582  0.7784  2.4194  1.2465
18515TIP3   OH277035   0.960   1.070   1.403  0.4763 -0.3611  0.2687
18515TIP3    H177036   0.942   1.129   1.329 -1.1893 -1.7641 -0.4639
18515TIP3    H277037   1.007   1.125   1.466 -0.1530  1.4854 -0.8296
18516TIP3   OH277038   4.938   3.397  14.561  0.4802 -0.3854 -0.1322
18516TIP3    H177039   4.988   3.316  14.573 -0.7152 -1.0822  0.2602
18516TIP3    H277040   4.852   3.378  14.599  0.3287  1.2273  0.3770
18517TIP3   OH277041   4.079   5.349  11.475  0.0712 -0.0689 -0.0998
18517TIP3    H177042   4.122   5.322  11.556 -0.0162 -1.3761 -0.4753
18517TIP3    H277043   3.992   5.377  11.502  0.2024 -0.0480  0.3068
18518TIP3   OH277044   2.598   0.738  12.872  0.1964  0.5219 -0.5769
18518TIP3    H177045   2.505   0.761  12.879  0.0820 -0.3527  0.7981
18518TIP3    H277046   2.602   0.645  12.893  1.2336  0.2511 -1.8916
18519TIP3   OH277047   2.219   5.116  11.856  0.0452  0.7201 -0.1678
18519TIP3    H177048   2.168   5.192  11.829 -0.2176  0.5036 -0.2869
18519TIP3    H277049   2.308   5.135  11.825 -0.4196  0.0993 -1.9574
18520TIP3   OH277050   0.217   0.509   4.909 -0.2392  0.3283  0.2358
18520TIP3    H177051   0.278   0.470   4.846 -0.2997  0.2733  0.2104
18520TIP3    H277052   0.272   0.563   4.966 -0.2512  0.7715 -0.1681
18521TIP3   OH277053   2.851   4.455   4.050 -0.3020  0.5881 -0.5180
18521TIP3    H177054   2.769   4.470   4.003 -1.4846 -0.6122  1.1616
18521TIP3    H277055   2.863   4.534   4.103 -0.7396  0.4425 -0.2056
18522TIP3   OH277056   6.572   0.107  15.450 -0.4467 -0.0716 -0.6224
18522TIP3    H177057   6.652   0.147  15.484 -0.3825  0.7325 -1.6805
18522TIP3    H277058   6.505   0.173  15.465 -0.6479 -0.1991 -0.9668
18523TIP3   OH277059   0.505   0.846   0.157  0.1211  0.6090  0.1703
18523TIP3    H177060   0.417   0.849   0.193 -0.5210  0.5304 -1.3619
18523TIP3    H277061   0.519   0.934   0.121  0.5607  0.5366  0.1569
18524TIP3   OH277062   2.524   0.540   1.364 -0.3459 -0.7475 -0.7056
18524TIP3    H177063   2.609   0.550   1.406  0.4963 -0.7966 -2.3827
18524TIP3    H277064   2.496   0.451   1.387 -1.4458  0.3437  2.5122
18525TIP3   OH277065   1.376   6.745  13.752  0.6026 -0.3570  0.3347
18525TIP3    H177066   1.298   6.724  13.803 -1.0735  1.5764 -1.3165
18525TIP3    H277067   1.343   6.755  13.662  3.0274 -1.0534 -0.6648
18526TIP3   OH277068   4.750   0.230  10.927  0.0794  0.5809  0.2576
18526TIP3    H177069   4.840   0.254  10.903 -0.0054  0.7859  0.1428
18526TIP3    H277070   4.742   0.138  10.902  0.6352  0.2236  1.3387
18527TIP3   OH277071   2.998   2.599   5.971 -0.0831  0.2989  0.1153
18527TIP3    H177072   3.078   2.631   6.012  0.4834  2.0275 -2.2713
18527TIP3    H277073   2.927   2.634   6.025  0.6878  1.3152  0.4759
18528TIP3   OH277074   5.674   4.598  15.637 -0.1191 -0.0549  0.0214
18528TIP3    H177075   5.701   4.569  15.724  0.0320 -0.5578 -0.1908
18528TIP3    H277076   5.639   4.686  15.651 -0.1204 -0.1441  0.5926
18529TIP3   OH277077   6.769   5.883   5.622  0.3384 -0.3425  0.0731
18529TIP3    H177078   6.750   5.843   5.537  1.4248 -2.9653  0.9976
18529TIP3    H277079   6.688   5.930   5.645  0.3606  1.2171 -2.7886
18530TIP3   OH277080   2.379   1.943  15.414 -0.0414  0.2588 -0.0207
18530TIP3    H177081   2.320   1.891  15.359 -0.8078  1.7029 -0.5753
18530TIP3    H277082   2.446   1.975  15.354  1.4645 -1.5507  0.6447
18531TIP3   OH277083   3.165   1.904   0.721  0.1248 -0.4974  0.1340
18531TIP3    H177084   3.103   1.933   0.788  1.2472 -0.4485  1.1786
18531TIP3    H277085   3.111   1.886   0.644 -0.8515  2.2184  0.1390
18532TIP3   OH277086   1.266   5.824   3.246  0.5895  0.2471  0.4954
18532TIP3    H177087   1.178   5.861   3.253  0.4498 -0.2819  1.5761
18532TIP3    H277088   1.278   5.807   3.153 -1.6139 -2.5037  0.6548
18533TIP3   OH277089   5.252   2.044   0.837 -0.5636  0.5618  0.0946
18533TIP3    H177090   5.317   1.995   0.888  1.2488  0.0934 -2.5458
18533TIP3    H277091   5.191   1.977   0.805  0.5194  0.3106 -1.5008
18534TIP3   OH277092   2.104   3.462   4.986 -0.0258  0.2785 -0.2390
18534TIP3    H177093   2.192   3.496   4.974 -0.0173 -0.4478 -2.4999
18534TIP3    H277094   2.113   3.396   5.055  1.2739 -0.0952 -0.7581
18535TIP3   OH277095   4.861   3.126  16.896 -0.0390 -0.1788 -0.0510
18535TIP3    H177096   4.884   3.072  16.821 -0.4568 -1.4890  0.7427
18535TIP3    H277097   4.945   3.146  16.938  0.0207 -1.4071  0.4445
18536TIP3   OH277098   2.488   3.164   2.137 -0.7619 -0.2199 -0.3185
18536TIP3    H177099   2.550   3.118   2.193 -0.7914  0.0505 -0.0586
18536TIP3    H277100   2.404   3.155   2.182 -0.6761  0.5290  0.0003
18537TIP3   OH277101   5.350   0.830   0.602 -0.0795  0.5780  0.2778
18537TIP3    H177102   5.297   0.865   0.674  0.4608  0.8147  0.5597
18537TIP3    H277103   5.381   0.745   0.634 -0.2446  0.4617  0.1318
18538TIP3   OH277104   6.767   2.364  12.216  0.1292  0.0384  0.1636
18538TIP3    H177105   6.696   2.311  12.251  0.1221  0.4207  0.7300
18538TIP3    H277106   6.820   2.302  12.165 -1.4274  0.0475 -1.4993
18539TIP3   OH277107   1.937   5.704  13.900  0.3297 -0.1136 -0.4175
18539TIP3    H177108   1.929   5.775  13.837 -0.3586  0.2416  0.0579
18539TIP3    H277109   2.014   5.725  13.952 -0.1631  0.5559  0.0502
18540TIP3   OH277110   1.070   5.392   4.905 -0.7141 -0.1476  0.4229
18540TIP3    H177111   1.012   5.386   4.829  0.5818  0.6611 -0.6502
18540TIP3    H277112   1.156   5.365   4.873 -0.3788 -0.9091  1.8923
18541TIP3   OH277113   1.960   0.859  17.208  1.3142 -0.2184  0.1544
18541TIP3    H177114   1.993   0.835  17.121 -1.7676  0.0343 -1.1461
18541TIP3    H277115   1.928   0.777  17.245 -0.4988  0.2235 -0.3841
18542TIP3   OH277116   6.390   5.188   5.184 -0.5597  0.2410  0.1923
18542TIP3    H177117   6.437   5.148   5.257  0.4969 -0.4882 -0.8658
18542TIP3    H277118   6.314   5.132   5.172 -0.1252 -0.3121 -0.0108
18543TIP3   OH277119   3.996   1.577   3.707 -0.2849 -0.7520 -0.2930
18543TIP3    H177120   4.077   1.577   3.758 -0.7188  0.1432  0.4139
18543TIP3    H277121   3.929   1.547   3.768 -0.9190  0.9401 -0.1185
18544TIP3   OH277122   1.550   6.779  15.230 -0.0901 -0.1154 -0.0457
18544TIP3    H177123   1.590   6.806  15.148 -0.9918 -0.6789 -0.6704
18544TIP3    H277124   1.476   6.838  15.242 -0.2091 -0.3018  0.1496
18545TIP3   OH277125   5.004   4.394   2.033 -0.9014  0.2498 -0.2990
18545TIP3    H177126   5.060   4.458   1.990  2.0746 -2.5504 -0.8037
18545TIP3    H277127   4.944   4.365   1.964 -0.1110  0.1662 -0.9660
18546TIP3   OH277128   0.137   1.380   5.834  0.2315  0.0798 -0.0753
18546TIP3    H177129   0.166   1.468   5.809  1.7685 -0.2182  0.5927
18546TIP3    H277130   0.093   1.346   5.756  0.4932  1.0591 -0.6612
18547TIP3   OH277131   1.510   3.464  13.986 -0.5418 -0.3008  0.2014
18547TIP3    H177132   1.455   3.541  14.002 -1.1534 -0.8744  0.9010
18547TIP3    H277133   1.598   3.499  13.973 -0.9781  0.5888 -0.4299
18548TIP3   OH277134   4.657   4.961  17.279 -0.0082 -0.0754 -0.7255
18548TIP3    H177135   4.710   5.002  17.348  0.2605 -1.1330 -0.2947
18548TIP3    H277136   4.710   4.889  17.247 -1.1295 -1.0961 -0.3559
18549TIP3   OH277137   0.321   4.923  15.911 -0.7653  0.4813 -0.4188
18549TIP3    H177138   0.289   4.948  15.998  0.6433  0.6737  0.0502
18549TIP3    H277139   0.295   4.831  15.901  0.4037  0.0008  0.8447
18550TIP3   OH277140   6.619   3.822  15.208  0.0032 -0.6406 -0.9293
18550TIP3    H177141   6.601   3.911  15.240  1.6553 -0.5264 -0.2870
18550TIP3    H277142   6.628   3.832  15.113 -2.1889 -0.5313 -1.1510
18551TIP3   OH277143   2.483   6.274   0.414 -0.2762 -0.4002 -0.5188
18551TIP3    H177144   2.486   6.295   0.507  1.8405 -0.3804 -0.5646
18551TIP3    H277145   2.404   6.221   0.404 -1.0816  0.4701  1.0916
18552TIP3   OH277146   4.743   5.091  11.010 -0.2355 -0.4023  0.1648
18552TIP3    H177147   4.785   5.122  10.929 -1.5540 -0.5026 -0.5674
18552TIP3    H277148   4.813   5.095  11.076 -0.1430  3.4513 -0.0409
18553TIP3   OH277149   6.352   0.681   1.174  0.2304  0.1788 -0.4187
18553TIP3    H177150   6.330   0.610   1.113  0.2577 -1.2265  1.1631
18553TIP3    H277151   6.419   0.643   1.231 -0.1175  1.3297  0.7730
18554TIP3   OH277152   1.370   1.665  17.153  0.2569  0.1008 -0.6368
18554TIP3    H177153   1.459   1.652  17.186  0.1517  0.7151 -0.1040
18554TIP3    H277154   1.315   1.659  17.231 -0.3144 -1.7447 -1.1558
18555TIP3   OH277155   0.796   5.640   1.864 -0.0324  0.4958  0.3342
18555TIP3    H177156   0.802   5.694   1.786  0.2415 -0.3398 -0.2350
18555TIP3    H277157   0.761   5.698   1.931  1.2255  1.6561  0.0147
18556TIP3   OH277158   2.395   6.701  13.553  0.3683 -0.0026 -0.3168
18556TIP3    H177159   2.317   6.667  13.597 -1.6522  2.6911 -1.6895
18556TIP3    H277160   2.467   6.679  13.612 -1.3316 -2.9159  0.8006
18557TIP3   OH277161   3.755   2.440  10.991 -0.1814  0.0897 -0.2846
18557TIP3    H177162   3.840   2.428  10.947 -0.5752 -0.6613 -0.8528
18557TIP3    H277163   3.778   2.466  11.080  0.6947 -1.7689  0.0589
18558TIP3   OH277164   5.819   2.776   3.055 -0.0819 -0.4467  0.0370
18558TIP3    H177165   5.825   2.712   2.983 -0.5330 -0.0170 -0.3856
18558TIP3    H277166   5.908   2.782   3.088 -0.1146 -1.6304  0.3711
18559TIP3   OH277167   4.367   6.694  12.078 -0.0663 -0.5289 -0.2571
18559TIP3    H177168   4.436   6.751  12.043 -1.3734  0.6159 -0.9756
18559TIP3    H277169   4.304   6.685  12.006 -1.3190 -0.5231  0.8285
18560TIP3   OH277170   2.751   2.525  13.980  1.0326  0.5687  0.1616
18560TIP3    H177171   2.679   2.481  13.934  0.9510  0.9329 -0.0639
18560TIP3    H277172   2.830   2.484  13.945  0.8911 -0.6402  1.2626
18561TIP3   OH277173   1.222   3.391  13.023 -0.4681 -0.3605  0.0735
18561TIP3    H177174   1.289   3.423  13.083  0.5135 -0.3488 -1.0225
18561TIP3    H277175   1.139   3.415  13.064  0.2106  0.3324  1.0375
18562TIP3   OH277176   0.907   3.236   3.576 -0.0804  0.3138  0.3726
18562TIP3    H177177   0.852   3.249   3.498  1.7613  1.1310 -0.8342
18562TIP3    H277178   0.958   3.157   3.556 -0.8578 -0.4907  1.5174
18563TIP3   OH277179   1.422   6.190  15.482  0.1157 -0.5259  0.2735
18563TIP3    H177180   1.406   6.215  15.391  2.0361  0.5353  0.2029
18563TIP3    H277181   1.339   6.150  15.510 -1.2539  1.1061 -1.2586
18564TIP3   OH277182   2.056   0.419  12.893  0.3820  0.2825 -0.2157
18564TIP3    H177183   2.015   0.388  12.974 -0.5978  0.6667 -0.5535
18564TIP3    H277184   2.058   0.342  12.836  0.3085  0.2186 -0.1328
18565TIP3   OH277185   2.010   1.005  15.727 -0.1239  0.2986  0.1997
18565TIP3    H177186   1.944   1.071  15.747 -1.7025 -0.3372 -2.6020
18565TIP3    H277187   2.085   1.056  15.695 -0.8782  0.8267 -0.7601
18566TIP3   OH277188   1.529   5.222   5.599  0.5128  0.1521  0.1588
18566TIP3    H177189   1.595   5.259   5.541  0.4283  1.5794  0.9362
18566TIP3    H277190   1.465   5.182   5.541  2.4134 -1.8938 -0.5747
18567TIP3   OH277191   1.790   2.078   3.826 -0.2889  0.6591 -0.1908
18567TIP3    H177192   1.703   2.117   3.835 -0.1596  1.4711 -2.1732
18567TIP3    H277193   1.850   2.152   3.835  0.0984  0.4373 -0.9762
18568TIP3   OH277194   1.689   4.294   1.257  0.1913  0.0070  0.1968
18568TIP3    H177195   1.680   4.389   1.249 -0.9870 -0.1941 -1.0367
18568TIP3    H277196   1.617   4.266   1.312 -0.2115 -0.3082 -0.4775
18569TIP3   OH277197   3.345   3.694  15.499 -0.1976  0.7741 -0.0182
18569TIP3    H177198   3.419   3.735  15.454 -0.3142  1.8979  0.8088
18569TIP3    H277199   3.336   3.609  15.456  0.1970  1.4974 -1.5911
18570TIP3   OH277200   1.695   3.281   6.164 -0.0939  0.0640 -0.0811
18570TIP3    H177201   1.727   3.303   6.077 -0.0930  0.4169  0.0072
18570TIP3    H277202   1.761   3.317   6.223 -0.1487 -0.0812  0.0684
18571TIP3   OH277203   1.119   0.342  15.080 -0.0691  0.0654  0.5991
18571TIP3    H177204   1.146   0.254  15.052  1.1185  0.6616 -0.1484
18571TIP3    H277205   1.192   0.398  15.057 -1.8507  1.6817 -1.3173
18572TIP3   OH277206   4.161   2.140   5.702  0.1484  0.5432 -0.3589
18572TIP3    H177207   4.238   2.173   5.656 -0.6517  0.7609 -1.5634
18572TIP3    H277208   4.130   2.215   5.752  0.1399  0.7397 -0.6562
18573TIP3   OH277209   5.861   3.537   0.019  0.1642 -0.6215 -0.0176
18573TIP3    H177210   5.857   3.445  -0.007 -1.1998 -0.5013 -0.2569
18573TIP3    H277211   5.921   3.539   0.093 -0.7504 -1.8803  0.7630
18574TIP3   OH277212   4.572   3.833   3.256  0.0103  0.4867  0.3293
18574TIP3    H177213   4.611   3.890   3.323  2.4048 -0.4528 -0.2066
18574TIP3    H277214   4.599   3.872   3.173  2.9630 -2.1523 -0.0595
18575TIP3   OH277215   0.370   5.894  13.643 -0.3573  0.0851  0.2484
18575TIP3    H177216   0.439   5.829  13.650  1.3667  1.9863  1.4051
18575TIP3    H277217   0.403   5.970  13.691 -2.9335  1.3038  0.1951
18576TIP3   OH277218   1.352   6.582  12.990 -0.5373  0.4730  0.0713
18576TIP3    H177219   1.334   6.524  13.064 -2.9197 -0.0470 -0.8500
18576TIP3    H277220   1.375   6.666  13.029  0.9134 -0.5270  1.4022
18577TIP3   OH277221   3.376   5.492  15.428 -0.5795 -0.2689  0.0334
18577TIP3    H177222   3.385   5.407  15.386 -0.4310 -0.4682  0.4703
18577TIP3    H277223   3.453   5.499  15.485  0.0221  0.6468 -0.8642
18578TIP3   OH277224   5.689   6.240   3.099  0.2653  0.3639  0.2565
18578TIP3    H177225   5.775   6.212   3.128 -0.2246 -1.6629 -0.1547
18578TIP3    H277226   5.705   6.284   3.015  0.9353  0.2898  0.3466
18579TIP3   OH277227   1.944   4.354  13.903 -0.2354  0.0076 -0.4901
18579TIP3    H177228   1.906   4.335  13.817  2.0215  0.2309 -1.5977
18579TIP3    H277229   2.039   4.353  13.887  0.2215 -0.3721  2.0972
18580TIP3   OH277230   1.858   2.895   3.854 -0.7076  0.2332 -0.4015
18580TIP3    H177231   1.852   2.881   3.948 -1.3854  0.1303 -0.4527
18580TIP3    H277232   1.950   2.882   3.833 -0.5002  0.5838  0.2985
18581TIP3   OH277233   1.857   6.229  14.279  0.3351  0.1824  0.2239
18581TIP3    H177234   1.852   6.304  14.220  0.8179 -0.2402 -0.3690
18581TIP3    H277235   1.769   6.192  14.279  0.8412 -1.0793 -1.9202
18582TIP3   OH277236   4.255   5.694   3.514 -0.2615  0.6877  0.0006
18582TIP3    H177237   4.315   5.635   3.468 -0.5460  1.4555 -1.3948
18582TIP3    H277238   4.298   5.779   3.509 -1.6519  1.3356 -1.4230
18583TIP3   OH277239   1.195   5.348  12.602 -0.0818  0.1015 -0.2006
18583TIP3    H177240   1.181   5.276  12.663  0.1264 -0.5644 -0.9295
18583TIP3    H277241   1.290   5.350  12.588  0.0713  1.4461  0.9308
18584TIP3   OH277242   6.096   1.343  15.338 -0.5164 -0.5513 -0.1964
18584TIP3    H177243   6.100   1.401  15.414  0.9313 -1.3747  0.3783
18584TIP3    H277244   6.173   1.286  15.348 -0.7812 -1.2043 -1.8372
18585TIP3   OH277245   5.202   3.823   5.582 -0.2554  0.3577 -0.6613
18585TIP3    H177246   5.275   3.856   5.635  0.3769  1.2942 -2.0929
18585TIP3    H277247   5.127   3.874   5.610  0.1089  0.9665 -0.7914
18586TIP3   OH277248   5.591   4.465   5.586 -0.1733 -0.0649  0.2763
18586TIP3    H177249   5.555   4.448   5.673  0.8067 -0.6886  0.5656
18586TIP3    H277250   5.685   4.448   5.595 -0.3444 -1.9693 -1.3799
18587TIP3   OH277251   5.704   3.006  15.853 -0.5249 -0.5739 -0.4250
18587TIP3    H177252   5.652   3.066  15.800  0.9008  1.0948 -0.0089
18587TIP3    H277253   5.667   3.015  15.941 -2.3435 -2.7082 -0.9299
18588TIP3   OH277254   3.085   3.321  11.978  0.2117 -0.2304 -0.2436
18588TIP3    H177255   3.120   3.392  11.924 -3.1333  1.8661  0.2089
18588TIP3    H277256   3.141   3.322  12.056  0.1464  2.0467 -0.1753
18589TIP3   OH277257   0.268   1.350   2.257 -0.3033  0.2880 -0.1203
18589TIP3    H177258   0.189   1.336   2.204 -0.5693  0.0637  0.3339
18589TIP3    H277259   0.261   1.286   2.328  0.9779 -0.6900 -0.8463
18590TIP3   OH277260   1.474   2.594   3.799 -0.0740 -0.3049  0.0937
18590TIP3    H177261   1.411   2.559   3.862 -0.0939 -0.1111  0.1842
18590TIP3    H277262   1.486   2.685   3.826  0.2097 -0.3290  0.0472
18591TIP3   OH277263   0.497   0.316   1.169 -0.0212  0.3383  0.1289
18591TIP3    H177264   0.413   0.361   1.165 -1.1555 -1.5462  1.3793
18591TIP3    H277265   0.534   0.324   1.081 -2.2847 -0.2356 -0.9056
18592TIP3   OH277266   3.132   0.538  15.966  0.2685  0.0526  0.3195
18592TIP3    H177267   3.043   0.547  15.932  1.0424  2.9693 -1.1408
18592TIP3    H277268   3.182   0.503  15.892  0.5192 -0.7367  0.8589
18593TIP3   OH277269   4.935   3.519  12.121  0.0757  0.0375  0.1254
18593TIP3    H177270   4.889   3.439  12.144  0.5448 -0.4214 -0.5355
18593TIP3    H277271   4.902   3.542  12.034 -0.1285  0.6202  0.3503
18594TIP3   OH277272   3.418   2.501  14.304  0.6028 -0.5101  0.1473
18594TIP3    H177273   3.450   2.504  14.395  2.0503  0.7515 -0.3911
18594TIP3    H277274   3.406   2.593  14.280 -4.1040 -0.9243  0.5250
18595TIP3   OH277275   4.255   1.066  10.726 -0.3912 -0.2548  0.0697
18595TIP3    H177276   4.313   0.993  10.747  0.0393 -0.1201 -0.6377
18595TIP3    H277277   4.315   1.140  10.710 -0.8707  0.7813  2.6819
18596TIP3   OH277278   6.426   5.924  14.316 -0.4597 -0.0042  0.3275
18596TIP3    H177279   6.384   5.975  14.246 -0.4012 -1.0449 -0.4799
18596TIP3    H277280   6.365   5.928  14.389 -0.7074  0.7614  0.0826
18597TIP3   OH277281   4.771   2.928   5.769  0.2199  0.0739 -0.4557
18597TIP3    H177282   4.786   2.945   5.676 -0.3878  1.4207 -0.3201
18597TIP3    H277283   4.833   2.985   5.814 -1.4417  1.5807 -0.0055
18598TIP3   OH277284   3.141   4.452  15.018  0.0209 -0.4783  0.3421
18598TIP3    H177285   3.206   4.383  15.005  0.5764  0.0946  0.0487
18598TIP3    H277286   3.120   4.482  14.930  0.6455  0.5172  0.5307
18599TIP3   OH277287   3.617   3.834   5.695  0.0026 -0.5623 -0.1275
18599TIP3    H177288   3.676   3.859   5.766 -1.7365  3.3639  0.1126
18599TIP3    H277289   3.662   3.861   5.615  0.0574 -0.8609 -0.1974
18600TIP3   OH277290   5.309   4.835   4.805 -0.6049  1.0135  0.1160
18600TIP3    H177291   5.291   4.845   4.712 -0.9665 -1.3157 -0.0998
18600TIP3    H277292   5.223   4.820   4.845 -0.0832 -2.0867  0.2089
18601TIP3   OH277293   3.437   0.804  12.365  0.1372 -0.0956 -0.5353
18601TIP3    H177294   3.492   0.730  12.389 -0.3816 -0.1025  0.6834
18601TIP3    H277295   3.495   0.862  12.315  1.1831 -0.2308  0.5010
18602TIP3   OH277296   4.995   6.235  13.601  0.1263  0.4920  0.5356
18602TIP3    H177297   4.950   6.158  13.637 -1.0811  0.4970 -0.8946
18602TIP3    H277298   4.924   6.294  13.576  1.0267  1.6610  0.7352
18603TIP3   OH277299   2.629   1.545   3.757 -0.0875  0.1557 -0.2984
18603TIP3    H177300   2.533   1.541   3.754 -0.0724 -0.1777 -0.4637
18603TIP3    H277301   2.654   1.586   3.674 -0.1736  2.2602  0.6941
18604TIP3   OH277302   4.487   1.393   0.875  0.7419 -0.1959 -0.2541
18604TIP3    H177303   4.464   1.466   0.817  0.6391 -0.3946 -0.4649
18604TIP3    H277304   4.429   1.403   0.950 -1.4573 -1.8231 -1.6577
18605TIP3   OH277305   3.882   3.491  12.302  0.3744 -0.5138  0.0031
18605TIP3    H177306   3.819   3.424  12.332  0.2317  0.0312  0.9474
18605TIP3    H277307   3.882   3.556  12.372  0.6344  0.4020 -0.8407
18606TIP3   OH277308   3.341   2.010  12.492  0.8304 -0.1746 -0.0755
18606TIP3    H177309   3.301   2.085  12.536  1.8357  1.1415 -1.3725
18606TIP3    H277310   3.413   1.984  12.549  0.8093  0.1749  0.1082
18607TIP3   OH277311   3.547   3.165  17.077  0.0440  0.1768  0.4117
18607TIP3    H177312   3.578   3.140  16.990 -1.4467 -0.6959  0.1000
18607TIP3    H277313   3.493   3.090  17.105 -1.7775  1.6338  0.8970
18608TIP3   OH277314   2.556   2.708   0.479  0.0334  0.7888  0.6938
18608TIP3    H177315   2.549   2.792   0.433  0.1242  1.5610  2.0391
18608TIP3    H277316   2.648   2.684   0.472 -0.1102  0.4938 -0.2174
18609TIP3   OH277317   6.467   2.983  14.263  0.1353  0.7690  0.3294
18609TIP3    H177318   6.538   3.001  14.324  1.8058 -2.7104 -0.4491
18609TIP3    H277319   6.510   2.980  14.177 -1.5920  2.1888 -0.6251
18610TIP3   OH277320   4.839   0.818  14.032 -0.5470  0.0724 -0.4490
18610TIP3    H177321   4.775   0.835  13.963 -2.8379 -2.2242  1.0067
18610TIP3    H277322   4.886   0.740  14.003 -1.5452 -0.9248  0.5451
18611TIP3   OH277323   4.205   3.967   6.118  0.0340 -0.4317  0.1133
18611TIP3    H177324   4.153   3.887   6.124  0.5862 -0.8520 -0.6568
18611TIP3    H277325   4.289   3.944   6.156  0.4843 -0.4734 -0.9011
18612TIP3   OH277326   6.466   6.184   5.825  0.1250 -0.2140 -0.1433
18612TIP3    H177327   6.376   6.215   5.838  0.4541 -0.0027  1.7547
18612TIP3    H277328   6.481   6.193   5.731 -1.4910  0.7123 -0.3319
18613TIP3   OH277329   5.405   2.980  16.203  0.0509 -0.4235  1.1383
18613TIP3    H177330   5.444   3.020  16.280 -1.5938  2.5838  0.4764
18613TIP3    H277331   5.348   2.911  16.237 -0.4586  0.6998  2.5842
18614TIP3   OH277332   5.934   1.156  12.697  0.3373  0.4313  0.5271
18614TIP3    H177333   5.842   1.132  12.702  0.7301 -1.3257 -0.1253
18614TIP3    H277334   5.940   1.215  12.622  0.1588 -1.6681 -1.2048
18615TIP3   OH277335   0.119   6.036  16.098  0.1962  0.3136  0.0629
18615TIP3    H177336   0.023   6.040  16.109  0.2847  1.2999  0.5756
18615TIP3    H277337   0.134   6.071  16.010  0.2810  2.9198  1.0760
18616TIP3   OH277338   1.225   5.655   5.414  0.1948 -0.1996  0.3442
18616TIP3    H177339   1.214   5.748   5.395  0.2447 -0.2009  0.3090
18616TIP3    H277340   1.314   5.635   5.384  0.7604  0.0935  1.7943
18617TIP3   OH277341   4.369   0.891  15.136  0.0944  0.2259 -0.4792
18617TIP3    H177342   4.423   0.893  15.056  0.1677 -0.4024 -0.4431
18617TIP3    H277343   4.415   0.831  15.194 -0.4704 -0.0534 -0.3214
18618TIP3   OH277344   3.526   5.457   4.303 -0.5650  0.2816  0.0384
18618TIP3    H177345   3.488   5.494   4.383  1.6817  1.1313  0.7358
18618TIP3    H277346   3.617   5.438   4.325 -0.4714 -1.4943 -1.6876
18619TIP3   OH277347   1.864   4.972   4.197  0.0030  0.0901  0.1624
18619TIP3    H177348   1.824   4.928   4.123 -3.1982  1.3376  1.0967
18619TIP3    H277349   1.857   4.910   4.269 -2.7243  1.3045  0.9853
18620TIP3   OH277350   0.333   4.826  13.267  0.6613  0.0712 -0.4438
18620TIP3    H177351   0.267   4.831  13.197  1.7407 -0.3741 -1.5070
18620TIP3    H277352   0.411   4.867  13.229  1.5768 -1.1046  0.1273
18621TIP3   OH277353   1.243   2.691   1.408  0.0333  0.0960 -0.0717
18621TIP3    H177354   1.159   2.723   1.440  0.3449  0.7234  0.1129
18621TIP3    H277355   1.306   2.721   1.473  0.4600  0.0056 -0.4474
18622TIP3   OH277356   0.533   3.641  16.662 -0.3102  0.1017  0.2359
18622TIP3    H177357   0.581   3.563  16.690 -1.5606 -0.5967  0.4537
18622TIP3    H277358   0.561   3.654  16.571 -0.8568 -1.1996 -0.1351
18623TIP3   OH277359   1.906   2.281   2.217 -0.2417  0.0806 -0.0196
18623TIP3    H177360   1.916   2.329   2.135  0.1030 -0.2971 -0.2048
18623TIP3    H277361   1.857   2.340   2.274 -1.3082 -0.0288 -0.8074
18624TIP3   OH277362   0.822   6.278   4.094  0.2320 -0.3381  0.1896
18624TIP3    H177363   0.742   6.329   4.106 -0.0065 -0.2088 -1.7405
18624TIP3    H277364   0.794   6.187   4.102 -1.0831 -0.5349 -5.0948
18625TIP3   OH277365   1.502   5.374   3.322 -0.1608  0.5135  0.0056
18625TIP3    H177366   1.509   5.301   3.260 -2.3695 -0.9635  1.4348
18625TIP3    H277367   1.476   5.448   3.268  0.8174 -0.0337 -1.2667
18626TIP3   OH277368   3.094   0.894   1.379 -0.3087  0.7773  0.4754
18626TIP3    H177369   3.129   0.970   1.426  0.8848  0.1700  0.6022
18626TIP3    H277370   3.144   0.892   1.297 -1.1725  0.8261 -0.0517
18627TIP3   OH277371   5.920   3.721  14.482 -0.4631  0.5506  0.3407
18627TIP3    H177372   5.846   3.780  14.495 -0.3892  0.4242  1.3939
18627TIP3    H277373   5.926   3.671  14.564 -0.5782 -0.9756 -0.5603
18628TIP3   OH277374   4.539   6.040   0.011 -0.7170  0.3886 -0.0260
18628TIP3    H177375   4.508   6.130   0.017 -3.2345 -0.2947 -1.8163
18628TIP3    H277376   4.459   5.987   0.011  0.5619 -1.6538 -1.9011
18629TIP3   OH277377   2.714   4.570  15.936 -0.2260  0.3157 -0.0710
18629TIP3    H177378   2.729   4.486  15.893 -0.6006 -0.2660  0.9082
18629TIP3    H277379   2.637   4.556  15.991  0.5578  0.8654  1.2102
18630TIP3   OH277380   0.274   0.144   4.844 -0.2173  0.2688 -0.2363
18630TIP3    H177381   0.350   0.089   4.863 -0.2954  0.1341 -0.3175
18630TIP3    H277382   0.217   0.135   4.920  0.3969  1.3089  0.3651
18631TIP3   OH277383   3.572   4.984  15.563 -0.0774 -0.8906 -0.0745
18631TIP3    H177384   3.640   5.036  15.522 -0.8741  0.9454  0.8663
18631TIP3    H277385   3.546   4.920  15.496  2.0889 -1.1834 -0.6474
18632TIP3   OH277386   6.334   2.300  15.295 -0.5787  0.4707  0.0518
18632TIP3    H177387   6.304   2.243  15.365 -1.7783  0.1237 -0.7429
18632TIP3    H277388   6.385   2.368  15.340 -0.5514 -0.2666  1.1572
18633TIP3   OH277389   3.286   0.513   4.041  0.6777 -0.5032 -0.0227
18633TIP3    H177390   3.310   0.458   4.116  1.4452  0.7589  0.6742
18633TIP3    H277391   3.213   0.567   4.073 -0.9577 -2.0137 -1.1121
18634TIP3   OH277392   1.717   0.280   4.760  0.9222  0.2154  0.1483
18634TIP3    H177393   1.670   0.269   4.842 -1.8370 -1.9425 -1.6461
18634TIP3    H277394   1.749   0.370   4.763 -1.1822  0.9410  2.5401
18635TIP3   OH277395   4.867   1.961   2.021  0.0077  0.5053 -0.1905
18635TIP3    H177396   4.899   2.034   1.967  1.7195  0.1231  0.2846
18635TIP3    H277397   4.942   1.938   2.077 -1.1397 -0.3521  1.0140
18636TIP3   OH277398   3.368   4.062  16.445 -0.4661  0.1550  0.0863
18636TIP3    H177399   3.403   4.042  16.359 -1.7712  0.1247 -0.4536
18636TIP3    H277400   3.441   4.048  16.505  0.5384  0.4898 -1.0475
18637TIP3   OH277401   3.353   4.434  10.837  0.0819 -0.6238  0.0947
18637TIP3    H177402   3.447   4.419  10.846  0.3073  0.7804  0.2937
18637TIP3    H277403   3.346   4.528  10.818 -1.1769 -1.0540 -1.6376
18638TIP3   OH277404   5.190   3.383  15.784  0.4851 -0.2333  0.0761
18638TIP3    H177405   5.150   3.315  15.837  2.3025 -0.5201  1.0910
18638TIP3    H277406   5.136   3.461  15.801  1.3578 -0.1783  2.7713
18639TIP3   OH277407   3.555   6.654  16.831 -0.1130  0.6447 -0.4563
18639TIP3    H177408   3.617   6.725  16.815  1.0216  0.1710  1.6080
18639TIP3    H277409   3.604   6.574  16.807 -0.9997  0.4516 -1.7079
18640TIP3   OH277410   2.938   6.731  13.567 -0.3947  0.3967  0.3638
18640TIP3    H177411   2.852   6.708  13.604  0.4663 -1.3230  1.3566
18640TIP3    H277412   2.988   6.765  13.641 -0.0752  0.9855 -0.1187
18641TIP3   OH277413   0.613   0.101   1.303  0.2510 -1.0646  0.4905
18641TIP3    H177414   0.703   0.106   1.272  0.1749 -0.5114  0.3511
18641TIP3    H277415   0.571   0.180   1.268 -0.4364 -1.6030  0.0747
18642TIP3   OH277416   3.476   6.435  17.174 -0.0769 -0.2594 -0.6163
18642TIP3    H177417   3.406   6.486  17.133  0.4806 -0.0627 -1.3238
18642TIP3    H277418   3.436   6.350  17.192 -0.2986 -0.3641 -1.6036
18643TIP3   OH277419   5.977   0.190  11.189 -0.5143 -0.0769 -0.5281
18643TIP3    H177420   5.936   0.276  11.185 -0.0878  0.0701 -1.9765
18643TIP3    H277421   6.067   0.207  11.215 -1.1094 -0.3278  1.7968
18644TIP3   OH277422   4.030   3.149  15.999 -0.6411  0.9630 -0.5627
18644TIP3    H177423   4.071   3.111  15.921  0.7927 -0.0211  0.6217
18644TIP3    H277424   3.945   3.107  16.005 -0.4777  0.5304 -1.2214
18645TIP3   OH277425   0.257   2.643   4.737  0.1376  0.4950  0.0678
18645TIP3    H177426   0.217   2.632   4.651 -0.0675  0.1521  0.2058
18645TIP3    H277427   0.339   2.690   4.720  1.9585 -2.8299 -0.7754
18646TIP3   OH277428   4.115   5.525   4.432 -0.1168 -0.0012  0.2425
18646TIP3    H177429   4.135   5.575   4.353 -0.5938 -1.0133 -0.5379
18646TIP3    H277430   4.062   5.451   4.401 -2.6202  1.0503  1.8612
18647TIP3   OH277431   2.306   0.758   0.406 -0.8477  0.6213  0.0721
18647TIP3    H177432   2.232   0.798   0.359 -1.3236  0.6383  0.8219
18647TIP3    H277433   2.383   0.789   0.359 -1.3348  0.1910 -1.0330
18648TIP3   OH277434   4.827   6.245  15.597 -0.4552  0.1844  1.1974
18648TIP3    H177435   4.895   6.312  15.602 -0.8980  0.5803  2.1505
18648TIP3    H277436   4.868   6.168  15.636  0.1843 -0.2225 -0.2523
18649TIP3   OH277437   4.702   4.507  16.368  0.0234  0.0901 -0.0029
18649TIP3    H177438   4.779   4.553  16.335  0.0058 -0.7009 -1.1618
18649TIP3    H277439   4.629   4.565  16.349  0.2690  0.6338  0.6822
18650TIP3   OH277440   5.721   4.880   2.708 -0.3120  0.6454 -0.4151
18650TIP3    H177441   5.639   4.887   2.660 -0.8513  1.5817  0.6279
18650TIP3    H277442   5.706   4.928   2.789  1.9181  2.5791 -1.0947
18651TIP3   OH277443   5.533   5.694   4.259 -0.1390  0.2822  0.5028
18651TIP3    H177444   5.599   5.627   4.242 -0.1164  0.2073  0.8751
18651TIP3    H277445   5.539   5.753   4.184 -0.1224 -0.1030  0.2053
18652TIP3   OH277446   5.248   5.436   5.559 -0.1425 -0.3326  0.5539
18652TIP3    H177447   5.254   5.512   5.500  0.4479 -0.8473 -0.0559
18652TIP3    H277448   5.329   5.387   5.543 -0.0778 -0.5800  1.6534
18653TIP3   OH277449   3.902   4.613  16.656 -0.5439 -0.6970  0.1494
18653TIP3    H177450   3.867   4.594  16.743 -3.5413 -1.8305 -1.2455
18653TIP3    H277451   3.926   4.706  16.660 -1.8920 -0.3917  1.7938
18654TIP3   OH277452   2.474   0.322   0.890 -0.4676 -1.0212  0.3113
18654TIP3    H177453   2.396   0.359   0.849  0.0302 -1.9830 -1.5494
18654TIP3    H277454   2.542   0.389   0.876 -0.3001 -1.3439 -0.4726
18655TIP3   OH277455   0.443   5.245   4.197  0.3887 -0.1292  0.0396
18655TIP3    H177456   0.398   5.327   4.217 -0.4982 -0.1598 -1.7421
18655TIP3    H277457   0.400   5.180   4.253  1.8498  0.7875  2.2933
18656TIP3   OH277458   1.990   6.347   4.613 -0.1630  0.0834  0.2649
18656TIP3    H177459   1.972   6.286   4.542 -1.3482  0.3087  0.3656
18656TIP3    H277460   2.068   6.394   4.585  0.1641 -0.7687 -0.2726
18657TIP3   OH277461   5.934   4.532   2.938  0.2189 -0.2123 -0.3292
18657TIP3    H177462   5.989   4.487   3.002 -1.4099  1.4338  2.3801
18657TIP3    H277463   5.959   4.624   2.945 -2.0402  0.4096  0.1823
18658TIP3   OH277464   1.677   4.261  12.244 -0.0102  0.3600 -0.3760
18658TIP3    H177465   1.589   4.237  12.273  1.1679 -3.2853  0.4688
18658TIP3    H277466   1.701   4.336  12.299 -2.4905  1.3222 -0.5318
18659TIP3   OH277467   4.563   4.746   5.516  0.3882 -0.2515 -0.0948
18659TIP3    H177468   4.559   4.830   5.470  2.8204 -0.1905 -0.2671
18659TIP3    H277469   4.513   4.761   5.597 -0.2937  0.9678 -0.7233
18660TIP3   OH277470   1.152   3.474  17.060 -0.3774  0.1028 -0.0980
18660TIP3    H177471   1.206   3.401  17.029 -0.1907  0.3779 -0.4344
18660TIP3    H277472   1.141   3.529  16.982 -2.1178 -0.5362 -0.3164
18661TIP3   OH277473   1.939   0.543   0.685  0.3162  0.2326 -0.2249
18661TIP3    H177474   1.958   0.569   0.595 -0.5328 -1.1802 -0.8194
18661TIP3    H277475   1.999   0.597   0.738  0.8756  1.0163 -1.6171
18662TIP3   OH277476   4.671   2.857   6.328  0.4970 -0.1794 -0.2118
18662TIP3    H177477   4.763   2.882   6.314  0.8803 -1.2721  0.3292
18662TIP3    H277478   4.670   2.816   6.414 -0.9371  1.8957  0.8081
18663TIP3   OH277479   2.835   3.611   0.455 -0.0049  0.1112  0.2105
18663TIP3    H177480   2.798   3.569   0.533  1.5948  0.1188  0.9951
18663TIP3    H277481   2.834   3.542   0.388 -1.4915  0.1392  0.1853
18664TIP3   OH277482   1.819   3.651  14.612  0.0768  0.0282  0.1893
18664TIP3    H177483   1.905   3.649  14.571  0.2786  0.7652  0.5586
18664TIP3    H277484   1.776   3.570  14.584  0.6628 -0.0487 -0.4805
18665TIP3   OH277485   0.160   5.233  13.979 -0.0831 -0.2639 -0.3041
18665TIP3    H177486   0.162   5.316  13.931 -1.2892  0.3484  0.6743
18665TIP3    H277487   0.188   5.168  13.916  1.8450  1.0202 -0.8307
18666TIP3   OH277488   5.751   0.765  13.326  0.1040  0.0139  0.3635
18666TIP3    H177489   5.808   0.767  13.403  1.0209 -2.2759 -0.2126
18666TIP3    H277490   5.684   0.700  13.346  0.6464 -0.9869 -0.9406
18667TIP3   OH277491   4.976   1.997  14.040  0.9480 -0.2069 -0.1753
18667TIP3    H177492   5.063   1.958  14.037  0.3520 -1.9470  2.8058
18667TIP3    H277493   4.984   2.069  14.103 -0.1455 -1.5152  1.5115
18668TIP3   OH277494   6.651   0.039  16.453  0.5770 -0.4061  0.3305
18668TIP3    H177495   6.732  -0.012  16.454  0.6714 -0.2470  0.5374
18668TIP3    H277496   6.633   0.053  16.360  1.3030  0.4005  0.3117
18669TIP3   OH277497   6.573   1.019   5.670 -0.3658 -0.0715 -0.2846
18669TIP3    H177498   6.595   0.950   5.606 -1.1365 -1.8050  1.2678
18669TIP3    H277499   6.657   1.059   5.692  0.3994 -1.9159  0.3241
18670TIP3   OH277500   3.393   3.710   3.702  0.0759  0.0398  0.1666
18670TIP3    H177501   3.372   3.628   3.657  0.8114  1.1190 -2.1982
18670TIP3    H277502   3.308   3.753   3.713 -0.2152 -0.6428  0.6920
18671TIP3   OH277503   4.911   3.232   1.209  0.2348  0.1796 -0.1393
18671TIP3    H177504   4.853   3.276   1.271  0.2138 -1.5081  1.0720
18671TIP3    H277505   4.852   3.199   1.141 -0.1570 -0.9282  0.7274
18672TIP3   OH277506   5.197   2.395  12.534  0.6217  0.4597  0.4330
18672TIP3    H177507   5.150   2.312  12.541  1.1987  0.1864  1.0600
18672TIP3    H277508   5.285   2.376  12.565  0.9068  1.1855  0.0883
18673TIP3   OH277509   0.454   4.177   5.874  0.0492  0.1276 -0.8053
18673TIP3    H177510   0.376   4.172   5.930  0.5886  0.1921 -0.0276
18673TIP3    H277511   0.487   4.266   5.888  1.6384 -0.6636  0.7946
18674TIP3   OH277512   1.688   6.613  13.320 -0.2759  0.4155 -0.1608
18674TIP3    H177513   1.759   6.571  13.270 -0.4753  0.1117 -0.1871
18674TIP3    H277514   1.655   6.544  13.377 -0.8097  0.4528 -0.4246
18675TIP3   OH277515   0.483   3.301  11.765 -0.0662  0.0321 -0.4309
18675TIP3    H177516   0.500   3.341  11.850  0.3572  0.1941 -0.5908
18675TIP3    H277517   0.561   3.249  11.747 -0.3677 -0.4043 -0.4905
18676TIP3   OH277518   1.059   2.209   3.939  0.6731 -0.1863  0.2264
18676TIP3    H177519   1.043   2.192   3.846  2.1471 -0.0174 -0.0665
18676TIP3    H277520   0.996   2.277   3.961  1.4133  0.9536 -1.0794
18677TIP3   OH277521   3.066   3.518  15.611 -0.3609 -0.7394  0.1624
18677TIP3    H177522   3.124   3.443  15.602  0.6592  0.3361 -2.5725
18677TIP3    H277523   2.978   3.482  15.601  0.0798 -1.6640 -0.4284
18678TIP3   OH277524   1.515   4.951   2.677  0.0954  0.2518  0.3617
18678TIP3    H177525   1.538   4.969   2.768 -0.1738  0.2823  0.4246
18678TIP3    H277526   1.482   4.862   2.678 -0.8167  0.5886  0.4609
18679TIP3   OH277527   6.672   0.743  12.003 -0.0447 -0.0827 -0.2812
18679TIP3    H177528   6.609   0.815  12.000 -2.7207 -2.3316 -0.1912
18679TIP3    H277529   6.739   0.773  12.065 -0.9524  2.4283 -0.4510
18680TIP3   OH277530   5.286   5.079   4.522  0.3959  0.5195 -0.0082
18680TIP3    H177531   5.238   5.153   4.484  0.0083  0.3462  0.1466
18680TIP3    H277532   5.343   5.120   4.587  0.4745  0.7266 -0.2037
18681TIP3   OH277533   1.634   4.647  15.519 -0.1206 -0.0355  0.0824
18681TIP3    H177534   1.548   4.690  15.520 -0.1780  0.1787 -3.7852
18681TIP3    H277535   1.692   4.708  15.564 -1.4861  1.0647  0.3902
18682TIP3   OH277536   0.301   4.689   4.779 -0.3298 -0.5691 -0.0975
18682TIP3    H177537   0.272   4.598   4.781  0.7600 -0.9323 -0.3105
18682TIP3    H277538   0.269   4.726   4.861  1.9522 -2.0373  1.5191
18683TIP3   OH277539   5.652   1.783   3.626  0.3673  0.4187 -0.3489
18683TIP3    H177540   5.568   1.749   3.595  0.7632  0.0036 -0.9737
18683TIP3    H277541   5.692   1.709   3.673  0.3263  0.6583  0.0679
18684TIP3   OH277542   0.053   3.615   1.588 -0.3692 -0.3553  0.3422
18684TIP3    H177543   0.000   3.620   1.508  1.5537 -0.5991 -0.9724
18684TIP3    H277544   0.142   3.595   1.557  0.4997  0.0320  2.5073
18685TIP3   OH277545   5.145   3.096   3.433  0.2497 -0.4346  0.1539
18685TIP3    H177546   5.224   3.048   3.408  1.2095  0.4679  1.4112
18685TIP3    H277547   5.143   3.172   3.375  0.5269 -0.2389  0.4013
18686TIP3   OH277548   3.763   4.428   1.329  0.0500 -0.6380  0.4734
18686TIP3    H177549   3.712   4.470   1.399 -0.3983 -0.5347  0.0820
18686TIP3    H277550   3.849   4.468   1.336 -0.3430  0.2783  0.1701
18687TIP3   OH277551   5.819   5.592   0.946  0.0748  0.0531 -0.6656
18687TIP3    H177552   5.884   5.523   0.936  0.5976  0.5071 -0.4003
18687TIP3    H277553   5.867   5.665   0.985 -0.6966  0.2250 -0.0199
18688TIP3   OH277554   2.871   4.463   4.381  0.4540  0.0643 -0.0399
18688TIP3    H177555   2.875   4.403   4.306  3.7340  1.5104 -1.0910
18688TIP3    H277556   2.894   4.409   4.457  2.7685 -0.1845 -0.8902
18689TIP3   OH277557   2.792   5.478   4.076 -0.2582 -0.0046 -0.8824
18689TIP3    H177558   2.751   5.401   4.037  0.1820 -0.1886 -0.9841
18689TIP3    H277559   2.871   5.493   4.024 -0.0733  0.2076 -0.5444
18690TIP3   OH277560   5.926   4.639  13.490 -0.3731 -0.9707 -0.8132
18690TIP3    H177561   5.983   4.690  13.547 -1.2291  0.8912 -1.5781
18690TIP3    H277562   5.842   4.634  13.537  0.1883 -3.1941  0.0400
18691TIP3   OH277563   4.591   6.113  11.102 -0.0451 -0.2677 -0.1352
18691TIP3    H177564   4.604   6.140  11.193  0.5792 -1.6587  0.2047
18691TIP3    H277565   4.670   6.062  11.081  0.7346  1.6672 -2.0896
18692TIP3   OH277566   2.250   5.077   2.994 -0.6390 -0.6618 -0.6410
18692TIP3    H177567   2.225   5.133   2.921  1.9529  0.8250 -0.4464
18692TIP3    H277568   2.242   5.134   3.071  3.4898  0.0244 -0.6053
18693TIP3   OH277569   0.812   2.377  11.386 -0.2546 -0.6943  0.6418
18693TIP3    H177570   0.894   2.421  11.367 -1.4117  0.9551 -0.6543
18693TIP3    H277571   0.775   2.425  11.460 -0.8972 -0.3206  0.0762
18694TIP3   OH277572   2.072   0.668  12.075 -0.2195 -0.3301  0.2161
18694TIP3    H177573   2.021   0.640  12.151 -0.2040  0.6306  0.5864
18694TIP3    H277574   2.102   0.586  12.035 -0.2854 -0.8476  1.2040
18695TIP3   OH277575   2.179   5.613   1.501 -0.6049  0.2964 -0.6571
18695TIP3    H177576   2.095   5.590   1.542 -0.0701  1.1620  0.9717
18695TIP3    H277577   2.168   5.704   1.474  0.6738  1.2689  1.9424
18696TIP3   OH277578   0.027   2.200  16.146  0.2054 -0.4701  0.4644
18696TIP3    H177579   0.092   2.146  16.102 -0.4248 -0.4843 -0.4645
18696TIP3    H277580   0.076   2.248  16.213  1.1246 -0.6197 -0.1042
18697TIP3   OH277581   6.126   3.716  15.274 -0.1343 -0.3450  0.2100
18697TIP3    H177582   6.182   3.789  15.300 -1.7480  0.5575  1.2270
18697TIP3    H277583   6.112   3.729  15.181 -0.1270  0.4381  0.3156
18698TIP3   OH277584   1.793   0.318   1.522  0.1319  0.2884 -0.5573
18698TIP3    H177585   1.868   0.264   1.498  1.6944  0.5182  3.4624
18698TIP3    H277586   1.718   0.273   1.484  1.8681 -2.1362 -1.2089
18699TIP3   OH277587   0.985   3.415   1.602  0.0320  0.4293 -0.2050
18699TIP3    H177588   1.035   3.387   1.678 -1.9577  0.4154  1.1529
18699TIP3    H277589   1.038   3.483   1.561  1.9164 -0.7764  0.2029
18700TIP3   OH277590   0.196   5.388   3.655 -0.2885 -0.0358 -0.4152
18700TIP3    H177591   0.237   5.352   3.734  1.1573  0.1299 -1.0814
18700TIP3    H277592   0.130   5.323   3.631 -0.4791 -0.2673  0.7182
18701TIP3   OH277593   2.090   0.018  16.051 -0.8778  0.3092 -0.3564
18701TIP3    H177594   2.081  -0.071  16.083 -0.3852  0.2652 -0.3438
18701TIP3    H277595   2.059   0.073  16.124  0.6057  0.2249  0.3589
18702TIP3   OH277596   5.392   5.673  12.229  0.6394  0.5010 -0.1041
18702TIP3    H177597   5.301   5.684  12.256  0.7957  1.8061 -0.0839
18702TIP3    H277598   5.393   5.591  12.180 -0.4384  0.1986  0.3751
18703TIP3   OH277599   2.620   6.571   5.850  0.2061 -0.7870  0.2001
18703TIP3    H177600   2.563   6.615   5.913  0.5905 -1.1263  0.7787
18703TIP3    H277601   2.686   6.528   5.903 -0.4144 -2.4355 -0.3430
18704TIP3   OH277602   3.335   1.459   4.398  0.3067 -0.3837  0.7561
18704TIP3    H177603   3.289   1.536   4.364 -0.3567 -0.4489  1.4868
18704TIP3    H277604   3.391   1.431   4.326  0.4247  0.6842  0.4255
18705TIP3   OH277605   0.262   4.638   1.654  0.3719  0.2829 -0.2661
18705TIP3    H177606   0.258   4.551   1.615  1.7564  1.0152 -2.1031
18705TIP3    H277607   0.354   4.664   1.646 -0.0273  1.9267  0.2455
18706TIP3   OH277608   3.269   3.070   0.921 -0.0095  0.0186  0.0668
18706TIP3    H177609   3.239   3.004   0.985  2.5937 -0.5342  0.7772
18706TIP3    H277610   3.293   3.146   0.974  0.0859  0.3617 -0.4657
18707TIP3   OH277611   1.886   0.916   6.252 -0.3984  0.3624 -0.2651
18707TIP3    H177612   1.968   0.869   6.237  0.4814  1.5232  0.7078
18707TIP3    H277613   1.896   0.996   6.200 -1.2102  0.1856 -0.6861
18708TIP3   OH277614   4.708   6.715  11.504 -0.2897  0.3257 -0.0633
18708TIP3    H177615   4.642   6.754  11.562 -1.2460  0.5911 -1.3278
18708TIP3    H277616   4.777   6.782  11.499 -0.0939  0.2162  0.9230
18709TIP3   OH277617   2.436   4.807  13.070  0.0166 -0.5416 -0.3935
18709TIP3    H177618   2.426   4.764  12.986 -0.8885  0.5701 -0.8606
18709TIP3    H277619   2.488   4.745  13.122 -2.0320 -2.6349 -0.7269
18710TIP3   OH277620   0.081   6.423   1.593  0.2390 -0.0713 -0.1319
18710TIP3    H177621   0.154   6.467   1.637  0.4134  0.1301 -0.6253
18710TIP3    H277622   0.096   6.330   1.610 -0.3901  0.0746  1.3091
18711TIP3   OH277623   1.802   5.715  16.048 -0.3814  0.1928  0.1444
18711TIP3    H177624   1.717   5.751  16.073  0.2361  1.7342  0.0997
18711TIP3    H277625   1.828   5.766  15.971 -0.2730 -1.5634 -1.0063
18712TIP3   OH277626   4.469   3.377   1.166  0.4058 -0.8952 -0.2430
18712TIP3    H177627   4.451   3.338   1.080  1.3392 -0.8009 -0.4849
18712TIP3    H277628   4.385   3.372   1.212 -0.1541 -0.7740 -1.2247
18713TIP3   OH277629   4.913   1.027  15.230  0.0683 -0.1239 -0.2113
18713TIP3    H177630   4.855   0.965  15.185 -0.8124 -0.4845  1.4033
18713TIP3    H277631   4.862   1.109  15.234 -0.9126 -0.8069  2.3863
18714TIP3   OH277632   3.427   3.398   4.838 -0.6823  0.1640 -0.4917
18714TIP3    H177633   3.402   3.329   4.777  0.0990  0.2398 -0.9078
18714TIP3    H277634   3.436   3.477   4.783 -0.0222  0.2401 -0.2865
18715TIP3   OH277635   3.222   0.009   0.973  0.0408 -0.5763  0.0100
18715TIP3    H177636   3.252   0.078   0.914 -1.6512 -0.1373 -0.3546
18715TIP3    H277637   3.160   0.053   1.031 -0.4722 -1.6305  0.2663
18716TIP3   OH277638   2.137   6.536  16.688  0.1829  0.4690  0.1366
18716TIP3    H177639   2.165   6.626  16.705 -1.5765  1.0862 -0.0957
18716TIP3    H277640   2.198   6.504  16.621  0.4957  1.6610 -0.1618
18717TIP3   OH277641   3.259   1.514  13.884  0.2159  0.0087 -0.2657
18717TIP3    H177642   3.249   1.545  13.974 -0.0635 -2.5849  0.6345
18717TIP3    H277643   3.345   1.473  13.883  0.2469  0.0967 -1.2087
18718TIP3   OH277644   4.266   2.686   4.825  0.4148 -0.6553 -0.3470
18718TIP3    H177645   4.245   2.766   4.873 -1.1276  0.0799 -2.1659
18718TIP3    H277646   4.355   2.699   4.794  0.5083 -0.0437  0.1707
18719TIP3   OH277647   1.143   2.714   4.419 -0.1486 -0.3413 -0.2270
18719TIP3    H177648   1.172   2.624   4.431  0.0389 -0.1366  0.9234
18719TIP3    H277649   1.071   2.708   4.356 -0.3591 -1.3333  0.0926
18720TIP3   OH277650   5.827   0.032   3.143 -0.1956 -0.3890 -0.8288
18720TIP3    H177651   5.917   0.058   3.121  0.4430 -1.0535  0.8941
18720TIP3    H277652   5.814  -0.050   3.096  0.1386 -0.3365 -1.0166
18721TIP3   OH277653   2.163   0.966   6.005  0.1732 -0.0200 -0.0565
18721TIP3    H177654   2.223   0.908   5.958  1.5308 -0.7273  2.5124
18721TIP3    H277655   2.132   0.915   6.079 -0.4015  1.7791  0.9820
18722TIP3   OH277656   4.273   0.270   3.424 -0.7028 -0.0087  0.1157
18722TIP3    H177657   4.184   0.277   3.459 -1.7243  1.1562 -2.5870
18722TIP3    H277658   4.291   0.356   3.388  1.0729 -0.6039 -0.4370
18723TIP3   OH277659   3.995   0.584  15.216  0.1379  0.2425 -0.4402
18723TIP3    H177660   4.007   0.644  15.143 -0.3860 -0.3364 -0.9982
18723TIP3    H277661   3.965   0.640  15.288 -1.3876  0.4945 -1.2545
18724TIP3   OH277662   4.339   0.538  14.698 -0.1260 -0.0908  0.0455
18724TIP3    H177663   4.311   0.446  14.707  0.7328 -0.2028  1.8810
18724TIP3    H277664   4.270   0.587  14.743  0.6736 -0.0546  1.2477
18725TIP3   OH277665   0.200   1.897   2.717  0.2891 -0.4324 -0.1255
18725TIP3    H177666   0.157   1.815   2.740 -2.6186  0.2408 -2.7362
18725TIP3    H277667   0.233   1.882   2.628  1.5156  0.5976  0.1373
18726TIP3   OH277668   5.606   4.297  12.437 -0.0680 -0.3668 -0.0805
18726TIP3    H177669   5.649   4.262  12.358  0.3165  0.7651 -0.3753
18726TIP3    H277670   5.672   4.291  12.505 -0.3931 -1.3231  0.1672
18727TIP3   OH277671   5.370   5.167  12.759  0.6892 -0.3862  0.3483
18727TIP3    H177672   5.435   5.122  12.707 -0.2903 -0.3584 -0.9372
18727TIP3    H277673   5.360   5.252  12.716  2.3121  0.9811  2.5716
18728TIP3   OH277674   2.724   6.213  16.864  0.4281 -0.4144  0.0648
18728TIP3    H177675   2.732   6.215  16.768  1.8723 -0.0631  0.1810
18728TIP3    H277676   2.812   6.235  16.895  0.1602 -1.2878  1.4687
18729TIP3   OH277677   2.384   3.793  13.589  0.5321 -0.0534 -0.1633
18729TIP3    H177678   2.419   3.708  13.562  0.1087 -0.1216 -0.5019
18729TIP3    H277679   2.423   3.809  13.675  1.4215 -0.1169 -0.5498
18730TIP3   OH277680   0.309   0.408   3.507  0.8588  0.9356  0.7114
18730TIP3    H177681   0.280   0.495   3.536  1.5762  1.4293 -0.0508
18730TIP3    H277682   0.235   0.374   3.457  0.7243  1.2587  0.6866
18731TIP3   OH277683   3.343   2.009   1.181 -0.3003 -0.2840 -0.2517
18731TIP3    H177684   3.369   2.005   1.089 -1.7187 -1.8921 -0.6136
18731TIP3    H277685   3.309   1.921   1.200 -0.5406  0.1966  1.6448
18732TIP3   OH277686   3.810   3.551   6.443  0.4999 -0.6326 -0.5490
18732TIP3    H177687   3.775   3.637   6.423  0.3117 -0.7849 -0.8923
18732TIP3    H277688   3.905   3.561   6.438  0.4400 -0.9292 -2.6963
18733TIP3   OH277689   0.146   1.586   1.573 -0.0122 -0.0610  0.0851
18733TIP3    H177690   0.078   1.629   1.625  1.3981  1.2107  0.9222
18733TIP3    H277691   0.131   1.492   1.587 -0.6557  0.2302  1.4965
18734TIP3   OH277692   5.845   3.037  11.172  0.3528  0.3896 -0.0125
18734TIP3    H177693   5.940   3.041  11.170  0.3853 -0.2084  0.2398
18734TIP3    H277694   5.823   2.966  11.111 -0.0699  2.4121 -2.2955
18735TIP3   OH277695   5.856   0.384  16.050 -0.0071  0.2034 -0.4988
18735TIP3    H177696   5.763   0.370  16.030 -0.9645  0.6065  3.3972
18735TIP3    H277697   5.899   0.303  16.023 -1.6661 -0.4485 -1.2589
18736TIP3   OH277698   3.855   1.898   0.223 -0.1962 -0.5012  0.3664
18736TIP3    H177699   3.906   1.867   0.148  0.2055  1.2190 -0.0827
18736TIP3    H277700   3.774   1.933   0.185  0.1580  0.6917  0.7048
18737TIP3   OH277701   5.119   4.010   4.068  0.0687 -0.3259  0.3415
18737TIP3    H177702   5.094   4.085   4.122 -0.6296  0.2332 -0.7399
18737TIP3    H277703   5.053   3.943   4.087  0.0836 -0.2921  0.5102
18738TIP3   OH277704   5.778   4.092   5.483  0.6178  0.0344  0.2608
18738TIP3    H177705   5.747   4.085   5.574  0.5598 -0.9066  0.1701
18738TIP3    H277706   5.736   4.171   5.450 -1.7665 -1.2447  0.1187
18739TIP3   OH277707   1.967   3.358   2.717 -0.1960 -0.2027  0.4567
18739TIP3    H177708   2.003   3.302   2.649  1.1865  1.4002 -0.1641
18739TIP3    H277709   2.010   3.443   2.704  1.9463 -0.4627  4.7592
18740TIP3   OH277710   2.253   4.498   2.694  0.3266  0.4777  0.5723
18740TIP3    H177711   2.231   4.591   2.700 -0.1257  0.4426 -0.4921
18740TIP3    H277712   2.314   4.492   2.621  1.2936  0.0941  1.3853
18741TIP3   OH277713   5.376   4.297  13.625  0.9410  0.4575 -0.0796
18741TIP3    H177714   5.349   4.388  13.615 -1.7441 -0.3160 -0.1086
18741TIP3    H277715   5.306   4.246  13.586  1.4243 -1.7234  1.7864
18742TIP3   OH277716   1.525   6.357   4.127 -0.0862 -0.0484 -0.0962
18742TIP3    H177717   1.527   6.281   4.185 -0.3572  0.6250  0.7925
18742TIP3    H277718   1.452   6.409   4.158  2.2422  2.3515  1.5789
18743TIP3   OH277719   2.330   3.027  14.548 -0.0848  0.2093 -0.0497
18743TIP3    H177720   2.329   3.054  14.456  0.0382 -2.3770 -0.8390
18743TIP3    H277721   2.246   3.057  14.583 -0.4166  0.6149 -1.1726
18744TIP3   OH277722   0.931   1.434  15.577 -0.4183  0.2282  0.4543
18744TIP3    H177723   0.927   1.524  15.607  0.2583  0.5544 -0.4276
18744TIP3    H277724   1.018   1.404  15.604  1.2816  1.3570 -3.4594
18745TIP3   OH277725   5.135   1.585   1.937 -0.0262 -0.3841  0.2485
18745TIP3    H177726   5.058   1.530   1.937  0.3381 -0.9023 -0.5980
18745TIP3    H277727   5.166   1.584   1.846  0.1646  0.9471  0.2870
18746TIP3   OH277728   4.244   0.129  10.349  0.3989  0.3079  0.6916
18746TIP3    H177729   4.258   0.209  10.298 -0.0697 -0.1514 -0.1666
18746TIP3    H277730   4.331   0.106  10.382  1.0900 -0.5182 -1.6083
18747TIP3   OH277731   2.052   4.566   3.431  0.4417  0.4124 -0.1532
18747TIP3    H177732   2.116   4.561   3.502  0.2065  0.2281  0.0457
18747TIP3    H277733   1.986   4.629   3.461  1.7339  2.3927 -1.3278
18748TIP3   OH277734   1.953   1.599  15.719  0.5776  0.2343 -0.1926
18748TIP3    H177735   2.035   1.553  15.704  2.0158  2.8505 -0.7062
18748TIP3    H277736   1.936   1.646  15.637 -0.0208  1.7702  0.7745
18749TIP3   OH277737   3.225   6.283   4.010 -0.1915 -0.2920 -0.5672
18749TIP3    H177738   3.231   6.374   4.037 -2.1077 -0.2440 -0.2443
18749TIP3    H277739   3.176   6.240   4.081 -0.3939 -1.2982 -1.2995
18750TIP3   OH277740   5.829   5.240   4.950 -0.2398 -0.0213 -0.4755
18750TIP3    H177741   5.787   5.313   4.904  3.9749  3.1275  0.4234
18750TIP3    H277742   5.784   5.235   5.034 -1.7739  0.2834 -1.2597
18751TIP3   OH277743   0.155   4.326  14.244 -0.0193  0.1487 -0.0791
18751TIP3    H177744   0.099   4.402  14.258 -1.5117 -0.9012 -0.1876
18751TIP3    H277745   0.205   4.348  14.165  0.1772  1.3654  0.3779
18752TIP3   OH277746   6.274   1.820   2.070 -0.8673  0.4924  0.1669
18752TIP3    H177747   6.249   1.911   2.085  1.8133  1.1049  1.0726
18752TIP3    H277748   6.278   1.812   1.975 -3.2733  0.6799  0.0186
18753TIP3   OH277749   4.250   4.968   4.558 -0.0697 -0.5128 -0.2936
18753TIP3    H177750   4.268   4.878   4.585  1.6821  0.6653  2.7081
18753TIP3    H277751   4.163   4.987   4.592 -0.7850 -1.3213 -1.6467
18754TIP3   OH277752   0.473   6.109  13.749 -0.0176  0.1324 -0.3556
18754TIP3    H177753   0.519   6.168  13.809  1.2026 -1.5569  0.4181
18754TIP3    H277754   0.537   6.091  13.679 -0.2858 -0.4606 -0.4523
18755TIP3   OH277755   2.758   1.566  12.964  0.2835  0.3082  0.4913
18755TIP3    H177756   2.665   1.567  12.941 -0.0201  0.6681  1.7154
18755TIP3    H277757   2.784   1.659  12.964  0.5461  0.2367  0.5533
18756TIP3   OH277758   5.670   6.757  13.260 -0.1783 -0.9282 -0.5774
18756TIP3    H177759   5.710   6.726  13.180  2.9274  0.8897  0.1817
18756TIP3    H277760   5.679   6.853  13.256  1.3980 -0.8641  2.5472
18757TIP3   OH277761   4.939   2.316   1.930 -0.9541 -0.3206  0.4022
18757TIP3    H177762   5.000   2.283   1.996 -1.3061  0.7704  1.2813
18757TIP3    H277763   4.994   2.334   1.853 -0.3816 -0.5936  0.7466
18758TIP3   OH277764   3.934   6.299  16.489 -0.3616  0.1784 -0.2364
18758TIP3    H177765   3.977   6.235  16.431  0.9765 -1.0386  2.0094
18758TIP3    H277766   3.921   6.376  16.434  1.0430 -0.8718 -2.1107
18759TIP3   OH277767   2.211   3.013   1.897 -0.0272  0.2214  0.5426
18759TIP3    H177768   2.152   3.083   1.925 -0.4594 -0.1051  0.4575
18759TIP3    H277769   2.261   3.051   1.826  0.3929  0.7442  1.1112
18760TIP3   OH277770   1.676   3.058   1.241 -0.1362  0.1498 -0.3128
18760TIP3    H177771   1.613   3.061   1.313  0.7692  0.6723  0.4688
18760TIP3    H277772   1.705   2.968   1.238  0.6603  0.3692  0.7121
18761TIP3   OH277773   2.616   3.178   4.073  0.2146  0.0524  0.2664
18761TIP3    H177774   2.523   3.158   4.069  0.6449 -1.8755 -0.4863
18761TIP3    H277775   2.656   3.121   4.007  1.6484  2.5932 -1.1073
18762TIP3   OH277776   3.085   2.569   2.961  0.0807 -0.7234 -0.5333
18762TIP3    H177777   3.144   2.561   2.886  0.4701  1.9989 -0.5543
18762TIP3    H277778   2.998   2.553   2.924  0.5039 -1.8881 -1.0621
18763TIP3   OH277779   2.106   3.366  10.532 -0.4686 -0.0019 -0.2680
18763TIP3    H177780   2.119   3.457  10.557  2.2500 -0.3069 -0.4541
18763TIP3    H277781   2.066   3.325  10.609  0.5844  0.7958  0.7183
18764TIP3   OH277782   6.183   1.050  12.699  0.1494  0.2764  0.1458
18764TIP3    H177783   6.089   1.070  12.692 -0.2108 -0.9468  1.1462
18764TIP3    H277784   6.187   0.983  12.767  1.8371  0.8294  0.5890
18765TIP3   OH277785   3.927   1.548   0.214  0.0358  0.0902 -0.0157
18765TIP3    H177786   3.942   1.457   0.186  0.0196  0.1336 -0.1677
18765TIP3    H277787   3.976   1.601   0.151 -0.5388  0.2200 -0.3598
18766TIP3   OH277788   4.004   0.047  16.072  0.7885 -0.5328  0.0670
18766TIP3    H177789   4.003   0.115  16.139  1.2378 -3.2792  2.9842
18766TIP3    H277790   3.911   0.025  16.059  0.8319 -1.7128  1.6483
18767TIP3   OH277791   1.080   5.720   6.388  0.1924  0.1957  0.4907
18767TIP3    H177792   1.123   5.637   6.371  1.8576  1.2925 -0.8484
18767TIP3    H277793   1.139   5.766   6.449  0.5802  1.4199 -0.7807
18768TIP3   OH277794   6.341   6.504   0.647  0.2297  0.5798 -0.2109
18768TIP3    H177795   6.418   6.496   0.591 -0.1332 -1.5347 -0.4609
18768TIP3    H277796   6.358   6.444   0.720 -1.9682 -1.3643 -1.2327
18769TIP3   OH277797   0.346   3.727  16.076  0.5157 -0.4072  0.0388
18769TIP3    H177798   0.295   3.702  15.999  0.8433  0.3915 -0.4394
18769TIP3    H277799   0.436   3.735  16.043  0.4177  1.4140  0.1895
18770TIP3   OH277800   1.532   1.815   4.186 -0.2095 -0.0181  0.4862
18770TIP3    H177801   1.494   1.732   4.214  0.2861 -0.3953  0.0479
18770TIP3    H277802   1.605   1.829   4.246 -0.8111  0.5250  1.0971
18771TIP3   OH277803   0.792   1.711   1.644 -0.2689  0.4534  0.4381
18771TIP3    H177804   0.757   1.797   1.665 -2.6916  0.3616 -2.7366
18771TIP3    H277805   0.736   1.650   1.691 -0.4816  0.5306  0.2881
18772TIP3   OH277806   0.731   3.002  16.537  0.1386 -0.1879 -0.3197
18772TIP3    H177807   0.688   3.011  16.622 -0.0385 -0.2522 -0.4016
18772TIP3    H277808   0.669   3.037  16.474  0.9359  1.3693 -0.2506
18773TIP3   OH277809   5.573   1.788   1.697 -0.0537  0.4713  0.6202
18773TIP3    H177810   5.627   1.719   1.735  0.7046 -0.3555 -1.8699
18773TIP3    H277811   5.635   1.859   1.678 -0.4237  0.8681  0.8937
18774TIP3   OH277812   5.450   0.900  10.645  0.0324  0.0346 -0.1505
18774TIP3    H177813   5.477   0.813  10.618  2.6183  0.9822 -0.7468
18774TIP3    H277814   5.506   0.920  10.720 -0.9305  0.9579  0.3322
18775TIP3   OH277815   3.499   1.461   1.246 -0.1192 -0.1897 -0.0587
18775TIP3    H177816   3.530   1.549   1.268 -2.0210  0.1047  1.6294
18775TIP3    H277817   3.579   1.409   1.234  1.0335  1.8689 -1.6288
18776TIP3   OH277818   0.099   5.740  15.006  0.0557  0.2873 -0.0188
18776TIP3    H177819   0.174   5.789  14.972  0.4478  0.4421  1.0506
18776TIP3    H277820   0.025   5.801  15.000 -0.1856 -0.1782 -1.9370
18777TIP3   OH277821   0.481   1.104  16.921 -0.0351  0.2838  0.1332
18777TIP3    H177822   0.491   1.196  16.947  1.2069 -0.0792  1.0016
18777TIP3    H277823   0.518   1.055  16.994 -0.8532 -0.9213 -0.2452
18778TIP3   OH277824   4.210   1.521  16.583  0.4051 -0.2579  0.0845
18778TIP3    H177825   4.267   1.549  16.512 -0.4310  0.4146 -0.3332
18778TIP3    H277826   4.129   1.495  16.540 -0.3408  0.7714  0.8319
18779TIP3   OH277827   4.951   4.478  12.971  0.3597  0.1120 -0.4279
18779TIP3    H177828   5.001   4.547  12.927  3.8038  0.0222  3.0623
18779TIP3    H277829   4.972   4.399  12.922  1.5616  0.5239 -0.6027
18780TIP3   OH277830   3.305   0.391  12.863 -0.1636 -0.4351  0.1060
18780TIP3    H177831   3.264   0.413  12.779  0.7041  0.8112 -0.0031
18780TIP3    H277832   3.396   0.370  12.841 -0.1733 -1.0620  0.6266
18781TIP3   OH277833   4.963   6.009   2.701 -0.2172  0.1925 -0.2676
18781TIP3    H177834   4.978   6.041   2.790 -1.3826  0.1979 -0.0708
18781TIP3    H277835   4.869   6.016   2.689 -0.2773 -1.5127 -0.8582
18782TIP3   OH277836   6.249   1.398   6.312  0.8457 -0.3438 -0.3755
18782TIP3    H177837   6.237   1.480   6.264  1.9367 -0.9314 -1.7033
18782TIP3    H277838   6.164   1.380   6.352  0.8482  1.8982  0.6925
18783TIP3   OH277839   0.664   3.936  15.181  0.3834 -0.6470  0.3101
18783TIP3    H177840   0.698   3.854  15.145  0.9576  0.1746 -1.0204
18783TIP3    H277841   0.569   3.928  15.173  0.4376 -1.1851  0.1994
18784TIP3   OH277842   3.780   4.575   4.196  0.3847  0.6911 -0.1276
18784TIP3    H177843   3.735   4.600   4.115  0.3715  0.7317 -0.1085
18784TIP3    H277844   3.856   4.633   4.200  1.4000 -0.5615 -1.0518
18785TIP3   OH277845   5.971   6.772   6.223 -0.8378 -0.3806 -0.6334
18785TIP3    H177846   5.878   6.761   6.202 -0.7028 -1.5403 -0.6379
18785TIP3    H277847   6.014   6.696   6.184  0.0390 -0.1200 -0.1859
18786TIP3   OH277848   6.669   3.922   4.699 -0.1858 -0.2437  0.0367
18786TIP3    H177849   6.600   3.930   4.634  0.1612 -0.3365 -0.3458
18786TIP3    H277850   6.663   3.831   4.730 -1.2492  0.1930  1.1502
18787TIP3   OH277851   4.041   6.656   4.587  0.3004 -0.2723  0.5224
18787TIP3    H177852   4.048   6.747   4.557  0.5831 -0.4646 -0.0007
18787TIP3    H277853   4.087   6.654   4.671  0.8503 -0.0765  0.2273
18788TIP3   OH277854   6.117   2.737   3.045 -0.7666 -0.1906 -0.4423
18788TIP3    H177855   6.078   2.761   2.961 -0.3520 -0.1789 -0.6323
18788TIP3    H277856   6.178   2.809   3.065  0.4781 -1.0597 -1.0146
18789TIP3   OH277857   0.016   4.567   1.769  0.6569  0.0966  0.0825
18789TIP3    H177858   0.048   4.622   1.841  2.4793 -0.0202 -0.5990
18789TIP3    H277859   0.084   4.574   1.702 -1.1150  0.3280 -1.6970
18790TIP3   OH277860   0.175   3.571   2.753  0.0747  0.1552 -0.2975
18790TIP3    H177861   0.265   3.577   2.786  0.5104 -1.9232 -1.0313
18790TIP3    H277862   0.142   3.660   2.758  2.4356  1.0858 -0.7320
18791TIP3   OH277863   1.093   0.025   3.466 -1.1560  0.4677 -0.5080
18791TIP3    H177864   1.001   0.048   3.454 -1.1775  0.5660 -0.1674
18791TIP3    H277865   1.126   0.088   3.530 -0.8638  0.4051 -0.5957
18792TIP3   OH277866   3.978   3.835   5.454 -0.0519  0.6723  0.2629
18792TIP3    H177867   4.038   3.902   5.487  1.3613  1.3105 -3.3243
18792TIP3    H277868   3.899   3.884   5.431  1.2956  1.4023 -3.1904
18793TIP3   OH277869   1.330   6.433  15.223 -0.0396 -0.3999 -0.4656
18793TIP3    H177870   1.344   6.498  15.154 -0.6266 -1.2339 -1.3891
18793TIP3    H277871   1.244   6.455  15.258 -1.1210 -1.8555 -2.1197
18794TIP3   OH277872   2.381   3.791   2.901 -0.2823 -0.0228  0.3465
18794TIP3    H177873   2.380   3.806   2.995 -0.8787  1.2097  0.1602
18794TIP3    H277874   2.334   3.708   2.889 -1.3957  0.5006  1.0254
18795TIP3   OH277875   5.417   1.555   0.185  0.6224 -0.6244  0.4259
18795TIP3    H177876   5.453   1.531   0.271  0.5833 -1.3266  0.2525
18795TIP3    H277877   5.399   1.471   0.143 -0.0844 -0.2768  0.0327
18796TIP3   OH277878   1.103   1.836   0.352  0.7514  0.2500  0.3399
18796TIP3    H177879   1.061   1.752   0.333 -1.0975  0.7378  2.1102
18796TIP3    H277880   1.194   1.814   0.371  0.6785 -1.1443 -0.8852
18797TIP3   OH277881   5.979   3.421   2.871  0.3644 -0.3144  0.3868
18797TIP3    H177882   5.985   3.418   2.966 -0.3216 -0.6617  0.4230
18797TIP3    H277883   5.887   3.403   2.852  0.5997 -0.7428 -0.3659
18798TIP3   OH277884   0.131   1.519  14.276  0.4608  0.0751 -0.4873
18798TIP3    H177885   0.048   1.483  14.245  0.1699  0.1254  0.2060
18798TIP3    H277886   0.194   1.500  14.207 -0.2219  0.4051 -1.1970
18799TIP3   OH277887   4.607   2.369  16.172 -0.1224  0.4692 -0.0454
18799TIP3    H177888   4.664   2.444  16.186  0.5845 -0.3830  1.8915
18799TIP3    H277889   4.529   2.389  16.225  0.5507 -0.6576  1.3938
18800TIP3   OH277890   0.367   5.941   4.011  0.2058  0.3466  0.4078
18800TIP3    H177891   0.457   5.942   4.043 -0.1505 -0.0737  1.4643
18800TIP3    H277892   0.327   5.865   4.054  0.0866 -1.0967 -2.1479
18801TIP3   OH277893   0.261   2.605  13.555 -0.6345 -0.1677  0.4297
18801TIP3    H177894   0.172   2.639  13.554 -0.9663 -1.0306 -1.7791
18801TIP3    H277895   0.261   2.541  13.626 -1.9364 -0.5899  0.0652
18802TIP3   OH277896   4.244   5.054   2.954  0.0186 -0.7355  0.7835
18802TIP3    H177897   4.186   4.978   2.957  0.3443 -1.2106 -2.5443
18802TIP3    H277898   4.219   5.100   2.874  2.4559  0.4633  0.6573
18803TIP3   OH277899   6.430   3.950  15.640 -0.0518 -0.0859  0.3071
18803TIP3    H177900   6.451   4.032  15.684  0.5467  0.1472 -0.4122
18803TIP3    H277901   6.362   3.910  15.695  0.4109  0.3844  1.2308
18804TIP3   OH277902   3.785   1.352  12.163 -0.6500  0.6389  0.2783
18804TIP3    H177903   3.861   1.321  12.213 -0.2590  0.6860 -0.2832
18804TIP3    H277904   3.753   1.275  12.117 -0.6188  0.7374  0.0934
18805TIP3   OH277905   3.493   4.594   1.235 -0.0106  0.0511 -0.0275
18805TIP3    H177906   3.575   4.622   1.194  0.0321 -1.0924 -0.7697
18805TIP3    H277907   3.426   4.615   1.171 -0.0178 -1.1669 -0.4335
18806TIP3   OH277908   5.274   1.111  14.004  0.6555  0.4108 -0.2090
18806TIP3    H177909   5.274   1.026  14.048 -2.3481  0.8591  0.7674
18806TIP3    H277910   5.271   1.090  13.910  1.6536 -0.5355 -0.0354
18807TIP3   OH277911   3.786   2.263  15.175  0.8024 -0.2053 -0.4186
18807TIP3    H177912   3.876   2.296  15.166  0.3532  1.3817  0.6796
18807TIP3    H277913   3.757   2.296  15.260 -1.0730 -0.0596 -1.0904
18808TIP3   OH277914   1.156   0.380  11.851 -0.5319  0.1186  0.1271
18808TIP3    H177915   1.109   0.320  11.908  1.9123 -1.7225  0.3060
18808TIP3    H277916   1.131   0.468  11.881 -1.6096 -0.8113  2.0078
18809TIP3   OH277917   6.663   1.684  13.507  0.0160 -0.1547 -0.2104
18809TIP3    H177918   6.594   1.619  13.519 -0.1768  0.0400 -0.2443
18809TIP3    H277919   6.715   1.679  13.587 -0.1240 -0.2028 -0.1218
18810TIP3   OH277920   2.404   2.103   4.163  0.3619  0.0048  0.0693
18810TIP3    H177921   2.411   2.078   4.071 -1.1394  0.0656 -0.0731
18810TIP3    H277922   2.322   2.153   4.169  1.5853  1.9448  1.0103
18811TIP3   OH277923   0.458   5.482  16.515  0.2939 -0.2848 -0.5521
18811TIP3    H177924   0.463   5.390  16.489  1.8592  0.5224 -3.3252
18811TIP3    H277925   0.549   5.510  16.521 -0.1948  1.6933 -2.1034
18812TIP3   OH277926   3.075   4.591  16.937  0.4264  0.0134 -0.6592
18812TIP3    H177927   3.099   4.679  16.966 -0.8270  0.2962 -0.4593
18812TIP3    H277928   2.980   4.587  16.949  0.4926 -1.4126 -0.5440
18813TIP3   OH277929   3.652   6.246  12.985 -0.1717  0.3005 -0.0244
18813TIP3    H177930   3.669   6.158  13.017 -0.0741  0.3271 -0.0046
18813TIP3    H277931   3.650   6.237  12.890 -1.4659  0.0376  0.0203
18814TIP3   OH277932   6.061   0.697  11.025  0.0050  0.2790 -0.4377
18814TIP3    H177933   6.063   0.613  10.979 -0.6301  0.1209 -0.1956
18814TIP3    H277934   6.044   0.673  11.116  0.6526  0.6245 -0.2268
18815TIP3   OH277935   6.096   0.068  14.669 -0.3066 -0.8568  0.0752
18815TIP3    H177936   6.085   0.163  14.663  0.1772 -0.9237 -2.3940
18815TIP3    H277937   6.143   0.044  14.589 -0.7746 -3.2166  0.4674
18816TIP3   OH277938   4.039   6.654  11.255  0.1035 -0.5337  0.2108
18816TIP3    H177939   4.039   6.567  11.214  2.3050  0.1396 -1.2921
18816TIP3    H277940   4.127   6.688  11.239 -0.3777  1.5299  1.7789
18817TIP3   OH277941   5.558   3.356   4.500 -0.7542  0.1584 -0.0110
18817TIP3    H177942   5.619   3.292   4.535  0.6211  2.2329  1.5120
18817TIP3    H277943   5.541   3.327   4.410  2.0356 -0.7612 -0.2846
18818TIP3   OH277944   4.003   5.677   1.450 -0.3141 -0.0332 -0.2989
18818TIP3    H177945   4.028   5.683   1.542 -0.5487 -1.1175 -0.1587
18818TIP3    H277946   4.018   5.765   1.416  0.5784  0.1690  0.5679
18819TIP3   OH277947   6.093   1.337  15.644  0.5209  0.4604  0.1114
18819TIP3    H177948   6.180   1.297  15.650  0.5944  0.2586 -1.8788
18819TIP3    H277949   6.034   1.272  15.683  1.4085  1.2594  2.9200
18820TIP3   OH277950   5.477   2.242   2.122 -0.1047  0.3620  0.1879
18820TIP3    H177951   5.484   2.147   2.133  0.7183  0.4431  0.4037
18820TIP3    H277952   5.567   2.274   2.131 -0.3688  1.1568  0.0516
18821TIP3   OH277953   5.827   1.289  16.713  0.3634 -0.4396  0.0185
18821TIP3    H177954   5.827   1.382  16.689  1.5625 -0.1440  1.1475
18821TIP3    H277955   5.804   1.288  16.806  2.1708 -1.1304  0.4773
18822TIP3   OH277956   5.151   4.953   0.839  0.3704  0.5108 -0.2600
18822TIP3    H177957   5.105   4.991   0.914 -0.2572 -0.2042 -0.2812
18822TIP3    H277958   5.244   4.962   0.861  0.2665  2.4561 -0.4583
18823TIP3   OH277959   1.835   2.558  13.721 -0.0301 -0.4355  0.0772
18823TIP3    H177960   1.843   2.465  13.698 -0.8491 -0.7210  0.9237
18823TIP3    H277961   1.924   2.592  13.715 -0.0289 -0.7327 -2.5127
18824TIP3   OH277962   1.086   1.725   2.369  0.0600  0.3784  0.1551
18824TIP3    H177963   1.131   1.690   2.446  0.1557  1.7163  0.7174
18824TIP3    H277964   0.997   1.744   2.400  0.2623  1.4527  0.0974
18825TIP3   OH277965   6.223   5.130  11.440 -0.1767  0.4502 -0.8496
18825TIP3    H177966   6.209   5.113  11.346  1.0490  0.8875 -1.1243
18825TIP3    H277967   6.138   5.160  11.472 -0.2020  1.8989 -2.1980
18826TIP3   OH277968   1.795   0.824  11.661  0.1207  0.3576 -0.2926
18826TIP3    H177969   1.784   0.800  11.569  1.6852 -0.4038 -0.3037
18826TIP3    H277970   1.728   0.773  11.707 -1.7310  1.9566 -1.1557
18827TIP3   OH277971   6.150   6.364  11.341 -0.0913 -0.0387 -0.0452
18827TIP3    H177972   6.055   6.358  11.331 -0.0934  0.0566 -0.0899
18827TIP3    H277973   6.176   6.279  11.375 -0.1872 -0.0826 -0.0799
18828TIP3   OH277974   0.211   5.094  16.531 -0.1297 -0.2503 -0.0234
18828TIP3    H177975   0.240   5.009  16.499 -0.4171  0.6596 -2.8286
18828TIP3    H277976   0.116   5.091  16.525 -0.3120 -0.7443  2.6361
18829TIP3   OH277977   5.377   1.877  12.102  0.3530  0.0141  0.2425
18829TIP3    H177978   5.447   1.812  12.104  0.3466 -0.0166 -0.3794
18829TIP3    H277979   5.414   1.951  12.054 -0.3518 -0.3798 -0.9309
18830TIP3   OH277980   6.023   0.158   5.636 -0.1664 -0.4548  0.2425
18830TIP3    H177981   5.951   0.153   5.699 -1.0644 -1.5320 -0.8190
18830TIP3    H277982   5.991   0.217   5.568  0.3188 -0.2143  0.2251
18831TIP3   OH277983   2.929   5.316   3.321  0.1487 -0.6610 -0.2082
18831TIP3    H177984   2.999   5.378   3.345 -0.0746 -0.1782 -0.7888
18831TIP3    H277985   2.965   5.230   3.343  0.7709 -0.3858 -0.1216
18832TIP3   OH277986   2.973   5.423   4.999 -0.0038  0.0914  0.1069
18832TIP3    H177987   3.059   5.461   5.015  1.0073 -1.7280 -0.8139
18832TIP3    H277988   2.974   5.341   5.049 -1.3536  0.2329  0.3871
18833TIP3   OH277989   1.087   2.276   2.458  0.5020 -0.0205 -0.4656
18833TIP3    H177990   1.041   2.269   2.542 -0.9755  0.3514 -1.2267
18833TIP3    H277991   1.108   2.186   2.435 -0.1543 -0.2238 -0.2791
18834TIP3   OH277992   5.092   5.890   4.775  0.7255 -0.2627 -0.3879
18834TIP3    H177993   5.038   5.812   4.781 -1.3193  1.2227  1.1563
18834TIP3    H277994   5.034   5.958   4.740  1.7142  1.2380  0.7928
18835TIP3   OH277995   0.881   4.419  15.237 -0.3886 -0.0405  0.0118
18835TIP3    H177996   0.977   4.411  15.238 -0.5139 -1.9518 -0.8708
18835TIP3    H277997   0.852   4.347  15.181 -2.2986  1.1567 -0.5880
18836TIP3   OH277998   5.661   4.586  13.464 -0.4641 -0.9707 -0.0308
18836TIP3    H177999   5.693   4.596  13.374  0.2633  0.4624  0.3833
18836TIP3    H278000   5.582   4.639  13.467 -0.5808 -1.1555  0.1319
18837TIP3   OH278001   4.212   3.936   5.021  0.4159  0.1747 -0.6470
18837TIP3    H178002   4.181   4.026   5.016  0.6661  0.2880 -0.2368
18837TIP3    H278003   4.264   3.923   4.941  1.8982  0.9843  0.1500
18838TIP3   OH278004   6.029   3.926  15.657 -0.0612 -0.4331 -0.2281
18838TIP3    H178005   5.993   3.935  15.745  1.4714  0.0674  0.3501
18838TIP3    H278006   6.090   3.852  15.664  0.1519 -0.3160 -0.8528
18839TIP3   OH278007   1.225   2.249   5.839 -0.1493 -0.3277 -0.0986
18839TIP3    H178008   1.153   2.228   5.899  0.3268  0.7937  0.8902
18839TIP3    H278009   1.191   2.226   5.752 -2.4884  2.1283  0.1132
18840TIP3   OH278010   6.083   5.591   5.604  0.0673 -0.5651 -0.0572
18840TIP3    H178011   6.107   5.499   5.592  0.5616 -0.2858 -1.3156
18840TIP3    H278012   6.070   5.601   5.698 -0.5828 -2.0685  0.0159
18841TIP3   OH278013   1.373   4.061   3.646  0.5750 -0.1777 -0.0880
18841TIP3    H178014   1.307   4.052   3.715  0.0304  3.7664 -0.0183
18841TIP3    H278015   1.449   4.014   3.680 -0.3042  0.1189  2.3975
18842TIP3   OH278016   2.970   6.350  16.855  0.1636  0.8176  0.4606
18842TIP3    H178017   3.047   6.319  16.808  0.7649  0.3104  1.7572
18842TIP3    H278018   2.992   6.440  16.880 -0.5724  1.4493 -1.1096
18843TIP3   OH278019   2.451   4.547  14.816  0.2694  0.2189  0.8595
18843TIP3    H178020   2.500   4.537  14.735  0.4246  1.1605  0.8321
18843TIP3    H278021   2.360   4.534  14.790  0.2915  0.8050  0.4753
18844TIP3   OH278022   3.383   4.228  17.070  0.5434 -0.0591 -0.4798
18844TIP3    H178023   3.339   4.249  17.152 -0.3662 -1.9653 -0.4393
18844TIP3    H278024   3.474   4.213  17.095  0.3276 -0.3575  0.1487
18845TIP3   OH278025   6.800   2.194   0.939 -0.0994  0.1162  0.4938
18845TIP3    H178026   6.758   2.259   0.995 -1.0658  0.1705 -0.2905
18845TIP3    H278027   6.889   2.186   0.974 -0.4997  0.6201  1.6292
18846TIP3   OH278028   4.073   6.818   2.411  0.1970  0.3012 -0.0377
18846TIP3    H178029   4.009   6.792   2.345  0.7114 -0.8676 -0.0743
18846TIP3    H278030   4.149   6.847   2.361  0.6936 -0.8584  0.0463
18847TIP3   OH278031   2.713   3.345   1.312 -0.2109  0.3663 -0.5642
18847TIP3    H178032   2.783   3.399   1.275 -0.5017  0.6905 -0.6400
18847TIP3    H278033   2.647   3.341   1.243 -0.8572  1.1602  0.0074
18848TIP3   OH278034   6.336   0.830  11.669 -0.5018 -0.5781 -0.1801
18848TIP3    H178035   6.344   0.781  11.587 -1.6530  1.4060 -1.5073
18848TIP3    H278036   6.261   0.791  11.713 -1.3049 -0.1243 -1.1450
18849TIP3   OH278037   1.464   1.137  13.028  0.3553  0.5791 -0.1371
18849TIP3    H178038   1.513   1.056  13.012 -1.2857 -0.4086 -0.2641
18849TIP3    H278039   1.402   1.142  12.955 -0.1186  1.5232  0.3220
18850TIP3   OH278040   6.625   6.636  14.876 -0.7269  0.3081 -0.0083
18850TIP3    H178041   6.705   6.670  14.915 -0.4965  1.7701 -1.7083
18850TIP3    H278042   6.620   6.545  14.906  2.1899 -0.1819 -0.8870
18851TIP3   OH278043   1.744   2.302   3.505 -0.3824  0.0087  0.1214
18851TIP3    H178044   1.751   2.342   3.592  0.5991  1.1751 -0.4905
18851TIP3    H278045   1.653   2.319   3.479 -0.9756 -1.2387  1.3451
18852TIP3   OH278046   2.466   2.947   4.457  0.4851  0.2523 -0.2284
18852TIP3    H178047   2.373   2.954   4.433  1.0926  0.1639 -2.8019
18852TIP3    H278048   2.488   2.855   4.439  0.4861 -0.3646  2.7397
18853TIP3   OH278049   3.765   3.296   0.284  0.4064 -0.2018  0.1628
18853TIP3    H178050   3.697   3.305   0.218  0.3889  1.4655  0.3807
18853TIP3    H278051   3.846   3.283   0.234  0.4966  1.7444 -0.2397
18854TIP3   OH278052   2.198   1.972  15.120  0.2880 -0.5296  0.4070
18854TIP3    H178053   2.153   1.988  15.203  0.8712  1.6863  0.3319
18854TIP3    H278054   2.251   1.894  15.135 -0.9220 -1.1362  1.5742
18855TIP3   OH278055   5.285   2.933   1.441 -0.0039  0.0603  0.2092
18855TIP3    H178056   5.327   2.893   1.365  0.5045  0.3229  0.3514
18855TIP3    H278057   5.277   2.861   1.505 -0.5473 -0.1910 -0.1369
18856TIP3   OH278058   2.056   6.731   0.011  0.1994 -0.1783 -0.0513
18856TIP3    H178059   2.006   6.654   0.040  1.2350 -1.1295 -0.7622
18856TIP3    H278060   2.147   6.710   0.034  0.6678  0.2480 -1.4921
18857TIP3   OH278061   3.334   2.555  15.338  1.0217 -0.1768  0.6451
18857TIP3    H178062   3.395   2.594  15.401  1.5768  1.0335 -0.6035
18857TIP3    H278063   3.281   2.628  15.308  1.2839 -0.5810 -0.8511
18858TIP3   OH278064   2.443   3.951   6.083  0.2728  0.3514  0.9959
18858TIP3    H178065   2.510   3.995   6.134 -0.3862 -1.4954  3.5394
18858TIP3    H278066   2.448   3.860   6.110 -0.2428 -0.6520 -2.1367
18859TIP3   OH278067   4.241   4.012   5.486 -0.4255 -0.0637 -0.7508
18859TIP3    H178068   4.330   3.996   5.517 -0.4602  1.2345  0.0685
18859TIP3    H278069   4.241   4.103   5.457 -1.2285 -0.3475 -1.6846
18860TIP3   OH278070   3.750   0.141  15.778  0.6724  0.6915 -0.3436
18860TIP3    H178071   3.747   0.109  15.868 -2.9034  1.8690  0.0426
18860TIP3    H278072   3.784   0.067  15.727 -0.3928 -1.1172  1.5204
18861TIP3   OH278073   2.712   2.503  13.298  0.2367  0.0092 -0.5441
18861TIP3    H178074   2.682   2.516  13.208  0.7396 -0.1798 -0.7392
18861TIP3    H278075   2.713   2.408  13.309 -0.8792  0.0467  0.0191
18862TIP3   OH278076   4.273   5.807  13.843  0.1637  0.1522  0.3890
18862TIP3    H178077   4.247   5.850  13.924  2.0686  1.6652  0.2361
18862TIP3    H278078   4.368   5.818  13.839  0.2234 -0.7411 -1.5641
18863TIP3   OH278079   4.686   2.156  11.547 -0.2662 -0.5420 -0.1519
18863TIP3    H178080   4.741   2.099  11.601  1.3002 -0.3675 -1.5102
18863TIP3    H278081   4.616   2.100  11.515  0.9601 -1.5916 -1.0430
18864TIP3   OH278082   6.126   0.132   1.977  0.8640 -0.1004 -0.4640
18864TIP3    H178083   6.045   0.092   2.009  1.1588  0.4966  1.0597
18864TIP3    H278084   6.190   0.061   1.975  0.7202 -0.2341 -0.1809
18865TIP3   OH278085   1.217   0.878   1.427 -0.1973  0.0495 -0.0071
18865TIP3    H178086   1.124   0.868   1.409 -0.3387 -0.5861  1.0464
18865TIP3    H278087   1.249   0.936   1.358 -1.1903 -0.4458 -0.8876
18866TIP3   OH278088   2.295   0.358   6.047  0.6250 -0.0188  0.0613
18866TIP3    H178089   2.228   0.293   6.028  0.9918 -0.3006 -0.2707
18866TIP3    H278090   2.251   0.422   6.103 -0.0140 -0.0259 -0.4217
18867TIP3   OH278091   0.925   3.236  16.934  0.9486 -0.7943 -0.0221
18867TIP3    H178092   0.941   3.318  16.888  0.3908  0.2838  1.6607
18867TIP3    H278093   0.945   3.168  16.869  2.6578  0.6272 -1.0366
18868TIP3   OH278094   3.443   4.406  12.700 -0.2917  0.3184 -0.2013
18868TIP3    H178095   3.381   4.439  12.765  0.3218  0.2709  0.4155
18868TIP3    H278096   3.391   4.397  12.620 -1.8969 -2.8559  1.1001
18869TIP3   OH278097   2.503   2.439   2.033 -0.1455 -0.2651 -0.1149
18869TIP3    H178098   2.501   2.364   2.093  1.6014  1.4757  2.1949
18869TIP3    H278099   2.413   2.448   2.002 -1.1229 -1.0966  2.3894
18870TIP3   OH278100   2.674   0.597   2.713 -0.0246 -0.1662  0.1422
18870TIP3    H178101   2.744   0.648   2.671  0.2627 -0.3149  0.4354
18870TIP3    H278102   2.655   0.527   2.650 -0.2316  0.1410 -0.1410
18871TIP3   OH278103   5.754   0.991  15.430 -0.6654  0.5984  0.9146
18871TIP3    H178104   5.780   1.068  15.380  1.8597  0.3921  1.8600
18871TIP3    H278105   5.713   0.934  15.365 -0.0707  1.5727 -0.3394
18872TIP3   OH278106   2.644   5.082  16.455 -0.5732  0.2625 -0.0344
18872TIP3    H178107   2.587   5.156  16.433  1.4095  1.6163 -0.7266
18872TIP3    H278108   2.716   5.121  16.505  0.6201 -1.1692 -0.6055
18873TIP3   OH278109   5.598   2.629  16.362  0.0552 -0.4729  0.2197
18873TIP3    H178110   5.516   2.580  16.357 -0.0874 -0.2472  0.3733
18873TIP3    H278111   5.655   2.573  16.415 -0.3010 -0.2052  0.8926
18874TIP3   OH278112   2.636   3.677   2.851  0.0846  0.1308 -0.1752
18874TIP3    H178113   2.547   3.711   2.847  0.4541  1.1776  0.3403
18874TIP3    H278114   2.626   3.583   2.835 -1.4404 -0.2667  2.6955
18875TIP3   OH278115   6.335   1.002   1.433 -0.1939 -0.3156 -0.0068
18875TIP3    H178116   6.429   0.992   1.414  0.0104  0.3485  0.5997
18875TIP3    H278117   6.332   1.070   1.500 -1.0878 -0.6744  0.3186
18876TIP3   OH278118   0.889   2.456  15.494  0.2018  0.4834  0.3490
18876TIP3    H178119   0.821   2.424  15.554 -0.2286 -1.6049 -1.1578
18876TIP3    H278120   0.971   2.443  15.541 -0.3428  1.7937  1.6787
18877TIP3   OH278121   6.532   4.796  15.890 -0.2275 -0.8974  0.3735
18877TIP3    H178122   6.532   4.796  15.794  1.4258  0.1916  0.3587
18877TIP3    H278123   6.597   4.730  15.913  0.3502 -0.1965  0.7395
18878TIP3   OH278124   0.053   3.046   5.394 -0.0324 -0.6308  0.7515
18878TIP3    H178125   0.090   3.082   5.474 -0.5963  1.1594  0.2109
18878TIP3    H278126  -0.001   3.116   5.358  0.1292 -1.4495 -1.1426
18879TIP3   OH278127   2.293   5.681  13.135 -0.0623 -0.1000  0.1309
18879TIP3    H178128   2.366   5.620  13.139  0.5861  0.7359  1.3046
18879TIP3    H278129   2.257   5.682  13.224  0.0809  1.4017  0.1823
18880TIP3   OH278130   1.802   1.991  16.370 -0.4238 -1.0531 -0.0406
18880TIP3    H178131   1.802   1.976  16.276  1.3716 -2.7000  0.1849
18880TIP3    H278132   1.720   2.038  16.387 -1.5446 -2.1602 -2.1837
18881TIP3   OH278133   5.772   4.247   1.822  0.9033 -0.2825 -0.2731
18881TIP3    H178134   5.818   4.259   1.906  0.9518 -0.1991 -0.3117
18881TIP3    H278135   5.735   4.159   1.828 -1.5011  0.7586  1.0254
18882TIP3   OH278136   1.450   5.541   0.146  0.4773  0.2140  0.4021
18882TIP3    H178137   1.537   5.518   0.177  0.0624 -0.9274  0.7373
18882TIP3    H278138   1.436   5.630   0.179  2.9121  1.8325 -2.6180
18883TIP3   OH278139   1.046   5.350   3.678  0.0869 -0.4515  0.7759
18883TIP3    H178140   1.018   5.424   3.622  2.1206  1.4330  2.1622
18883TIP3    H278141   1.131   5.324   3.642  0.5604 -0.4212  1.8524
18884TIP3   OH278142   3.499   6.432   2.032  0.2536 -0.2722 -1.1966
18884TIP3    H178143   3.441   6.450   2.106 -1.2302 -1.8231 -1.9770
18884TIP3    H278144   3.489   6.509   1.975  0.4791  0.3676 -0.3864
18885TIP3   OH278145   6.400   1.935  15.838 -0.0048  0.4644  0.4753
18885TIP3    H178146   6.445   1.998  15.895  0.3501  0.0103  0.7058
18885TIP3    H278147   6.355   1.876  15.899 -0.7557  0.7973  0.2499
18886TIP3   OH278148   3.106   2.403  11.830 -0.3288  0.0321 -0.5440
18886TIP3    H178149   3.123   2.494  11.807  0.1812  0.0069 -0.2849
18886TIP3    H278150   3.169   2.353  11.776  0.3567 -0.0759  0.3428
18887TIP3   OH278151   5.411   3.750   4.172  0.2050  0.7905  0.2046
18887TIP3    H178152   5.412   3.743   4.076  0.1819 -0.3631  0.2862
18887TIP3    H278153   5.413   3.845   4.188 -0.4504  1.0207 -0.9419
18888TIP3   OH278154   4.875   0.079  14.253  0.5132  0.2820  0.3085
18888TIP3    H178155   4.854   0.111  14.341  0.0873  1.7434 -0.3156
18888TIP3    H278156   4.829  -0.005  14.247  0.0731  0.4392  1.2698
18889TIP3   OH278157   5.463   4.560  12.420  0.3637  0.5692 -0.3428
18889TIP3    H178158   5.521   4.486  12.437 -0.9762  0.0530  2.1912
18889TIP3    H278159   5.503   4.634  12.465 -0.3871  0.4372  0.5656
18890TIP3   OH278160   0.847   4.327   5.928 -0.8340  0.0002 -0.3062
18890TIP3    H178161   0.900   4.407   5.935 -1.1305  0.1130  0.7002
18890TIP3    H278162   0.909   4.256   5.940 -0.8705  0.1276  0.6789
18891TIP3   OH278163   4.875   3.612   1.264 -0.2512 -0.2793  0.3640
18891TIP3    H178164   4.829   3.695   1.274 -2.1024 -1.2262 -0.1739
18891TIP3    H278165   4.893   3.584   1.354  2.4828  1.8015  0.5460
18892TIP3   OH278166   4.757   6.103   0.991  0.4207 -0.2676 -0.1080
18892TIP3    H178167   4.673   6.080   1.030  0.2966 -0.2230 -0.3503
18892TIP3    H278168   4.769   6.040   0.920  2.3396 -2.6892  2.2596
18893TIP3   OH278169   1.790   2.800   4.145 -0.5958 -0.1224 -0.0916
18893TIP3    H178170   1.702   2.796   4.107 -0.6602 -0.2165  0.0669
18893TIP3    H278171   1.776   2.830   4.235 -0.3540  1.1283 -0.4562
18894TIP3   OH278172   3.190   4.119   5.044 -0.3274  0.0309  0.5118
18894TIP3    H178173   3.277   4.079   5.038 -0.6134 -0.7467  1.4062
18894TIP3    H278174   3.161   4.126   4.953  1.4182  2.0010  0.0733
18895TIP3   OH278175   1.832   2.275  13.735 -0.2197 -0.2314 -0.0094
18895TIP3    H178176   1.859   2.238  13.651 -1.7789 -0.6750 -0.3235
18895TIP3    H278177   1.860   2.210  13.800 -1.0695 -0.9754 -0.3854
18896TIP3   OH278178   1.060   3.499   0.505 -0.2627  0.2600  0.2932
18896TIP3    H178179   1.145   3.524   0.543 -0.7968  1.6002  0.6649
18896TIP3    H278180   1.003   3.485   0.581 -0.9056  1.3644  0.0352
18897TIP3   OH278181   1.143   2.811   4.051  0.2147 -0.3115 -0.0299
18897TIP3    H178182   1.155   2.824   3.957  0.9346 -0.4997  0.0348
18897TIP3    H278183   1.103   2.725   4.059 -1.8488  0.6054 -0.2891
18898TIP3   OH278184   4.755   0.933  12.187 -0.0212  0.1939  0.4408
18898TIP3    H178185   4.799   0.935  12.271  0.8541 -1.4578  0.0495
18898TIP3    H278186   4.719   0.844  12.181 -0.7872  0.5580 -0.5603
18899TIP3   OH278187   0.573   1.345   0.146  0.0771  0.1868 -0.0262
18899TIP3    H178188   0.541   1.411   0.084 -1.0839  0.7731  1.1648
18899TIP3    H278189   0.538   1.374   0.231  1.1614 -0.9165  0.8073
18900TIP3   OH278190   0.142   0.606  12.671  0.4417  0.1730 -0.4825
18900TIP3    H178191   0.148   0.516  12.701 -1.0521 -0.1429 -1.0672
18900TIP3    H278192   0.148   0.659  12.751 -3.8464 -0.6622  0.5310
18901TIP3   OH278193   4.352   5.080   0.601  0.1903  0.0338  0.2123
18901TIP3    H178194   4.384   5.095   0.689  1.2384  1.2162 -0.3667
18901TIP3    H278195   4.273   5.027   0.613 -0.0947  0.8261  1.8885
18902TIP3   OH278196   0.289   2.426   5.713  0.2424  0.3367  0.9396
18902TIP3    H178197   0.341   2.488   5.662 -1.4311  0.5796 -0.5138
18902TIP3    H278198   0.326   2.340   5.693  1.1381  0.6539  1.2152
18903TIP3   OH278199   1.401   1.901  13.016  0.3108  1.1263 -0.4967
18903TIP3    H178200   1.485   1.935  12.985  0.9092 -1.1416 -1.5096
18903TIP3    H278201   1.352   1.880  12.937  0.5805 -1.6991  0.0028
18904TIP3   OH278202   4.514   4.295   3.430 -0.5511 -0.4134 -0.2805
18904TIP3    H178203   4.565   4.343   3.365  0.6121  1.1458  1.7118
18904TIP3    H278204   4.455   4.360   3.468 -2.6608 -1.7628 -1.1819
18905TIP3   OH278205   4.470   5.767  11.922 -0.5115  0.6146  0.1631
18905TIP3    H178206   4.418   5.837  11.962  0.4932  1.2070  0.4422
18905TIP3    H278207   4.507   5.807  11.843  0.2372  0.4649  0.4366
18906TIP3   OH278208   1.700   6.202  12.005 -0.1072  0.3390  0.1503
18906TIP3    H178209   1.659   6.189  11.919 -0.8908 -1.0509  0.7067
18906TIP3    H278210   1.758   6.277  11.993  0.6938 -0.5781 -1.9115
18907TIP3   OH278211   3.332   1.989  11.018 -0.1210  0.0441  0.5747
18907TIP3    H178212   3.416   1.952  10.992 -0.0269  0.2954  0.5129
18907TIP3    H278213   3.280   1.914  11.046  0.2307 -0.0766  0.9062
18908TIP3   OH278214   0.621   4.555   3.984 -0.3703  0.4050  0.0852
18908TIP3    H178215   0.606   4.486   4.048 -1.1349 -0.4187 -0.9736
18908TIP3    H278216   0.715   4.550   3.966 -0.2745  0.1886  0.6259
18909TIP3   OH278217   4.412   5.095  12.628  0.0573  0.2760 -0.1111
18909TIP3    H178218   4.385   5.018  12.576 -0.0839  0.5571 -0.4585
18909TIP3    H278219   4.498   5.072  12.662  0.3258  0.2509 -0.8083
18910TIP3   OH278220   0.507   3.100  16.008  0.2856 -0.4139  0.3676
18910TIP3    H178221   0.530   3.104  16.101  0.6540 -0.3029  0.2748
18910TIP3    H278222   0.473   3.187  15.988 -2.0156 -1.1373  0.9639
18911TIP3   OH278223   5.650   4.630   4.953 -0.0342  0.3653 -0.5176
18911TIP3    H178224   5.695   4.712   4.933 -0.5537  0.9706  0.7408
18911TIP3    H278225   5.565   4.639   4.910  0.6059 -0.3079 -1.9509
18912TIP3   OH278226   2.319   0.545   3.983 -0.3012  0.3732  0.1173
18912TIP3    H178227   2.359   0.565   4.067  0.3022 -1.2175  0.2213
18912TIP3    H278228   2.229   0.520   4.004 -0.4552  0.9661  0.1797
18913TIP3   OH278229   2.176   4.702  13.469  0.0236  0.2238  0.0669
18913TIP3    H178230   2.140   4.732  13.385  1.3932  0.0273 -0.6071
18913TIP3    H278231   2.266   4.736  13.470  0.3175 -0.5642  1.0446
18914TIP3   OH278232   4.420   4.457  13.834 -0.1443 -0.1321 -0.0701
18914TIP3    H178233   4.483   4.450  13.762  1.3631  0.8794  1.1012
18914TIP3    H278234   4.406   4.551  13.845 -2.3038 -0.3787 -0.6727
18915TIP3   OH278235   0.155   4.619   2.975  0.0422  0.0415  0.0442
18915TIP3    H178236   0.155   4.529   3.008  0.7012 -0.9966 -2.6410
18915TIP3    H278237   0.214   4.666   3.033 -1.6989 -0.8165  2.5728
18916TIP3   OH278238   0.922   4.552  15.661  0.0139 -0.2161  0.7683
18916TIP3    H178239   0.891   4.588  15.578 -0.6856 -1.0524  0.6619
18916TIP3    H278240   0.993   4.493  15.636 -2.4920 -3.2201  0.3786
18917TIP3   OH278241   4.100   2.318  13.993  0.0161 -0.5494  0.0172
18917TIP3    H178242   4.109   2.270  14.075  0.3589 -3.3148 -1.5891
18917TIP3    H278243   4.185   2.360  13.980 -0.3931  0.7971  1.6049
18918TIP3   OH278244   0.769   0.491   5.992 -0.4818  0.2798  0.0018
18918TIP3    H178245   0.684   0.535   5.991 -0.3884  0.4463 -0.8318
18918TIP3    H278246   0.820   0.541   6.056 -0.5069  1.1463 -0.6432
18919TIP3   OH278247   5.203   1.054   3.449 -0.1491 -0.0560  0.0542
18919TIP3    H178248   5.257   1.098   3.383  0.5055 -1.0170 -0.0576
18919TIP3    H278249   5.194   0.965   3.417 -0.5370 -0.3059  0.8414
18920TIP3   OH278250   0.355   0.962   4.074 -0.3710  0.0547 -0.4002
18920TIP3    H178251   0.386   1.050   4.051  0.1525 -0.0722 -0.1980
18920TIP3    H278252   0.353   0.962   4.170 -1.5343  0.2380 -0.4232
18921TIP3   OH278253   0.923   1.240  13.420 -0.0998  0.1307 -0.1365
18921TIP3    H178254   1.014   1.211  13.414 -0.4449 -0.7897 -1.0034
18921TIP3    H278255   0.926   1.313  13.483  1.0688 -0.5590  0.6428
18922TIP3   OH278256   5.520   4.210   0.446  0.3130  0.5749  0.6669
18922TIP3    H178257   5.457   4.173   0.384  1.2996  0.1274 -0.0741
18922TIP3    H278258   5.605   4.173   0.420  0.7739  0.5346  2.1524
18923TIP3   OH278259   4.683   0.101   1.066  0.0939 -0.0588 -0.0576
18923TIP3    H178260   4.686   0.153   0.985  0.3123  0.9042  0.5686
18923TIP3    H278261   4.630   0.153   1.126 -1.8735 -1.7731 -0.2649
18924TIP3   OH278262   1.468   5.848   6.185 -0.2621 -0.5377  0.7055
18924TIP3    H178263   1.377   5.836   6.157 -0.2884  0.9576  0.0825
18924TIP3    H278264   1.508   5.762   6.173 -1.2575 -0.8776 -0.3199
18925TIP3   OH278265   2.239   3.125   4.951 -0.0341  0.2065 -0.0872
18925TIP3    H178266   2.248   3.162   4.863  1.3211  0.9319  0.3430
18925TIP3    H278267   2.145   3.106   4.960 -0.6731  3.0079 -0.5294
18926TIP3   OH278268   2.325   1.608   3.428 -0.0605  0.0233 -0.0362
18926TIP3    H178269   2.308   1.550   3.354  0.1627  0.4553 -0.4302
18926TIP3    H278270   2.239   1.631   3.462 -0.1198 -2.4325  1.6180
18927TIP3   OH278271   5.180   2.475   6.111 -0.0112 -0.4492 -0.4731
18927TIP3    H178272   5.229   2.515   6.183 -0.2479 -0.3887 -0.3426
18927TIP3    H278273   5.226   2.392   6.094 -0.3914 -0.8171  0.2539
18928TIP3   OH278274   5.736   4.870   1.585 -0.1042  0.0897 -0.1086
18928TIP3    H178275   5.797   4.812   1.540 -0.5115 -1.0946  0.8369
18928TIP3    H278276   5.786   4.950   1.600  1.0688 -0.6878  0.2133
18929TIP3   OH278277   1.632   6.642  14.034 -0.0971  0.7704  0.3709
18929TIP3    H178278   1.696   6.702  14.072  0.7427 -0.5642  1.1172
18929TIP3    H278279   1.552   6.658  14.084 -0.1263  1.8778 -0.0201
18930TIP3   OH278280   3.894   4.047  12.524 -0.0159  0.7426  0.0051
18930TIP3    H178281   3.891   4.035  12.429 -0.1743  0.1477  0.0852
18930TIP3    H278282   3.985   4.068  12.543  0.6999 -2.2567  0.0960
18931TIP3   OH278283   3.036   0.620  16.800 -0.2781 -0.4988  0.0839
18931TIP3    H178284   2.972   0.606  16.870  0.2841 -1.0079  0.5141
18931TIP3    H278285   3.058   0.531  16.770  2.3260 -0.5245  1.8923
18932TIP3   OH278286   0.563   4.038   4.253  0.1985  0.1825 -0.6939
18932TIP3    H178287   0.594   4.121   4.217 -0.4528  1.3518  1.3226
18932TIP3    H278288   0.504   4.003   4.186  0.1637  1.5632 -1.3970
18933TIP3   OH278289   6.653   4.289  13.810 -0.5089 -0.4300  0.0730
18933TIP3    H178290   6.703   4.243  13.877  1.3400 -1.3558 -1.8930
18933TIP3    H278291   6.631   4.222  13.745 -2.9243  0.2939  0.1090
18934TIP3   OH278292   0.895   1.211  11.638  0.2259 -0.3711  0.5932
18934TIP3    H178293   0.936   1.239  11.720  0.4733 -1.4516  0.8495
18934TIP3    H278294   0.831   1.279  11.619  0.3759  0.0420  1.5275
18935TIP3   OH278295   2.959   5.253   3.766  0.0342 -0.7509 -0.5094
18935TIP3    H178296   3.031   5.313   3.788  2.2101 -2.7437 -1.9010
18935TIP3    H278297   2.925   5.224   3.850  0.5515  0.5726  0.1773
18936TIP3   OH278298   1.456   4.063  12.213  0.6387 -0.3929 -0.2240
18936TIP3    H178299   1.520   3.993  12.229  1.8045  0.4831 -1.0280
18936TIP3    H278300   1.443   4.103  12.299 -0.1802 -1.7061  0.2799
18937TIP3   OH278301   5.612   3.473  12.070  0.2409 -0.3674  0.0758
18937TIP3    H178302   5.699   3.467  12.030  0.9833 -0.5695  1.6502
18937TIP3    H278303   5.623   3.431  12.156 -1.5941 -1.0424  0.0074
18938TIP3   OH278304   2.897   0.987  14.573  0.4266 -0.3847 -0.3843
18938TIP3    H178305   2.886   1.044  14.497 -2.2337  0.2065  0.4248
18938TIP3    H278306   2.841   0.911  14.555 -1.7798  0.6670  1.8522
18939TIP3   OH278307   5.921   2.912   4.533  0.6908  0.7590  0.1026
18939TIP3    H178308   5.919   3.008   4.535 -0.0827  0.7536 -0.2238
18939TIP3    H278309   5.873   2.886   4.611 -0.8956  0.6399 -0.8868
18940TIP3   OH278310   4.133   3.763   4.201 -0.0548  0.2033 -0.4890
18940TIP3    H178311   4.218   3.767   4.244  0.0882 -0.0687 -0.7434
18940TIP3    H278312   4.132   3.837   4.141  0.3007 -0.2308 -1.0303
18941TIP3   OH278313   2.976   2.316   1.828 -0.4611 -0.2153  0.1708
18941TIP3    H178314   2.971   2.239   1.884 -0.6777 -0.6165 -0.4032
18941TIP3    H278315   2.887   2.328   1.795 -0.1725 -0.4178 -0.6801
18942TIP3   OH278316   6.675   0.393   2.480  0.3786  0.6194  0.2334
18942TIP3    H178317   6.600   0.451   2.493 -0.2605  0.0330 -0.7451
18942TIP3    H278318   6.746   0.451   2.453  0.2965  1.1844  1.2119
18943TIP3   OH278319   6.543   5.430  17.093  0.1101 -0.4378 -0.3391
18943TIP3    H178320   6.632   5.460  17.110 -0.3232  1.6819 -1.6378
18943TIP3    H278321   6.488   5.487  17.146 -0.5886 -0.3767 -1.1204
18944TIP3   OH278322   0.492   5.042  13.697 -0.5090  0.0567 -0.0205
18944TIP3    H178323   0.413   5.015  13.650 -0.7254  0.8961 -0.1627
18944TIP3    H278324   0.556   5.060  13.628  0.8866 -3.7378  0.1852
18945TIP3   OH278325   3.923   1.913  14.520 -0.1252  0.6953 -0.1850
18945TIP3    H178326   3.967   1.998  14.510  1.6636 -0.0577  1.2591
18945TIP3    H278327   3.970   1.869  14.590 -1.4817 -1.2416 -0.4585
18946TIP3   OH278328   6.190   3.698   1.430 -0.0434 -0.1814  0.3086
18946TIP3    H178329   6.157   3.626   1.376 -0.2345  1.3494 -1.6870
18946TIP3    H278330   6.269   3.663   1.471 -0.3019 -1.6274 -0.4010
18947TIP3   OH278331   6.359   6.138  11.375  0.3607  0.3527  0.9191
18947TIP3    H178332   6.436   6.143  11.431 -0.2601 -2.2065  2.1082
18947TIP3    H278333   6.287   6.120  11.436 -1.1154  2.3086 -0.2033
18948TIP3   OH278334   0.693   4.946   5.590  0.1986 -0.4453 -0.2833
18948TIP3    H178335   0.760   4.880   5.608  0.3276 -0.1101  0.4869
18948TIP3    H278336   0.707   4.971   5.499  2.3400  1.0255  0.4192
18949TIP3   OH278337   1.442   3.236   3.229  0.6123 -0.0075  0.5712
18949TIP3    H178338   1.458   3.317   3.277  2.9625  0.4242 -0.8661
18949TIP3    H278339   1.530   3.203   3.208 -0.3416 -1.3456 -1.4825
18950TIP3   OH278340   3.793   3.142   3.462 -0.8643 -0.1944  0.3118
18950TIP3    H178341   3.757   3.184   3.383 -0.5218  0.5227  0.5263
18950TIP3    H278342   3.747   3.059   3.468 -1.2246 -0.0552 -0.3951
18951TIP3   OH278343   3.881   3.182  12.681 -0.5105 -0.1682  0.1760
18951TIP3    H178344   3.939   3.157  12.610 -1.5594  0.9116 -1.0942
18951TIP3    H278345   3.937   3.181  12.759  1.3129  1.1571 -1.0499
18952TIP3   OH278346   6.007   5.011   4.642  0.3304 -0.1594 -0.3839
18952TIP3    H178347   6.100   5.013   4.666  0.3126  1.1723 -0.3868
18952TIP3    H278348   6.007   4.973   4.554  0.7810 -1.0444 -0.0102
18953TIP3   OH278349   3.405   4.390   4.787  0.1334 -0.3816  0.0834
18953TIP3    H178350   3.429   4.354   4.872  0.4017 -3.2003 -1.1374
18953TIP3    H278351   3.314   4.364   4.775 -0.1244  0.6289 -0.1918
18954TIP3   OH278352   5.427   0.029  10.874 -0.2650 -0.0919  0.0794
18954TIP3    H178353   5.398   0.107  10.827  1.5565  0.1429 -0.7126
18954TIP3    H278354   5.373  -0.041  10.839 -0.9503  0.5892 -0.2348
18955TIP3   OH278355   2.299   2.509  14.369  0.1261  0.1023 -0.2306
18955TIP3    H178356   2.341   2.593  14.387 -0.9797  0.5184  0.4643
18955TIP3    H278357   2.346   2.447  14.425  1.4244  0.0989 -1.2779
18956TIP3   OH278358   5.306   6.812  10.590 -0.3107  0.3102 -0.0478
18956TIP3    H178359   5.399   6.791  10.584 -0.4048  0.4548 -2.7498
18956TIP3    H278360   5.304   6.901  10.626  0.4329 -0.8736  3.0462
18957TIP3   OH278361   3.718   1.848  17.028 -0.0101  0.8877 -0.3383
18957TIP3    H178362   3.798   1.797  17.038  0.9794  2.4446 -0.1124
18957TIP3    H278363   3.726   1.888  16.941  1.2239  3.9455  1.0903
18958TIP3   OH278364   2.355   0.542   1.719 -0.2162 -0.1198 -0.1788
18958TIP3    H178365   2.391   0.629   1.732 -0.9810  0.1456  0.2132
18958TIP3    H278366   2.308   0.523   1.801 -2.3351  0.2162 -1.2814
18959TIP3   OH278367   3.586   2.332  11.627 -0.1290  0.3728  0.1905
18959TIP3    H178368   3.536   2.274  11.684  1.2004  0.4954  1.5173
18959TIP3    H278369   3.563   2.304  11.538 -0.7893 -1.0594  0.7921
18960TIP3   OH278370   0.382   5.677   5.230 -0.5706  0.2087  0.1785
18960TIP3    H178371   0.357   5.666   5.322  0.8730 -2.2586  0.3331
18960TIP3    H278372   0.474   5.704   5.233  0.0208 -1.6063 -0.5222
18961TIP3   OH278373   2.528   3.599   2.126 -0.7128 -0.7262  0.4719
18961TIP3    H178374   2.442   3.617   2.088 -0.1417 -2.5721 -1.8277
18961TIP3    H278375   2.588   3.602   2.052  1.4513  1.7487  2.2439
18962TIP3   OH278376   3.333   3.305   2.166  0.2366  0.6262  0.0829
18962TIP3    H178377   3.346   3.284   2.259  1.5908 -0.6120 -0.3617
18962TIP3    H278378   3.293   3.226   2.130  1.0266  0.5616 -0.6631
18963TIP3   OH278379   1.946   3.457   0.251 -0.1830  0.7129  0.5004
18963TIP3    H178380   1.912   3.501   0.329 -0.9341  2.7428 -0.9242
18963TIP3    H278381   1.868   3.441   0.197  0.4934  0.7408 -0.5084
18964TIP3   OH278382   4.739   6.243   1.410  0.1436 -0.2728 -0.4751
18964TIP3    H178383   4.773   6.231   1.321 -1.7725 -0.2273 -1.2333
18964TIP3    H278384   4.815   6.273   1.461  1.0582  0.5729 -2.2880
18965TIP3   OH278385   4.477   3.938   5.557  0.5983  0.2050  0.0775
18965TIP3    H178386   4.502   3.851   5.525  2.3714  0.3316  1.1175
18965TIP3    H278387   4.559   3.984   5.571 -0.2954  1.6614  0.6906
18966TIP3   OH278388   3.560   5.245  15.156 -0.2839 -0.1598  0.0850
18966TIP3    H178389   3.537   5.326  15.110 -0.4551 -1.6918 -2.6284
18966TIP3    H278390   3.483   5.224  15.208  0.5982  2.6111  2.6008
18967TIP3   OH278391   5.232   2.137   2.975  0.1443 -0.0591  1.0286
18967TIP3    H178392   5.255   2.185   3.055  0.2061 -1.6050  1.9649
18967TIP3    H278393   5.185   2.201   2.921  3.0137  2.0017  0.8302
18968TIP3   OH278394   2.511   4.679  12.513  0.1660  0.2374  0.2752
18968TIP3    H178395   2.539   4.595  12.476  0.2449  0.5590 -0.4004
18968TIP3    H278396   2.514   4.666  12.608  0.4563 -0.4328  0.1730
18969TIP3   OH278397   6.287   2.372   2.203 -0.3779  0.1864 -0.3971
18969TIP3    H178398   6.252   2.347   2.288  1.7876  0.1921  0.5370
18969TIP3    H278399   6.211   2.371   2.144 -1.9811  0.5552  1.5940
18970TIP3   OH278400   4.744   3.306   2.543 -0.8240 -0.2495  0.2233
18970TIP3    H178401   4.726   3.338   2.455 -0.6749  1.0954  0.6611
18970TIP3    H278402   4.826   3.350   2.567 -2.2994  1.5835  2.0776
18971TIP3   OH278403   0.252   4.433   4.853  0.2338  0.7260 -0.2264
18971TIP3    H178404   0.183   4.459   4.914 -0.6991  0.4465 -1.1585
18971TIP3    H278405   0.287   4.352   4.891 -0.5369  0.3942 -0.2032
18972TIP3   OH278406   2.242   4.216   0.830 -0.5720 -0.1397 -0.1686
18972TIP3    H178407   2.179   4.144   0.832 -0.0793 -0.5480  0.9323
18972TIP3    H278408   2.260   4.230   0.737 -1.4109 -0.7838 -0.4272
18973TIP3   OH278409   0.839   2.446  12.039  0.5759  0.4387  0.1347
18973TIP3    H178410   0.829   2.513  12.107  1.4595 -0.3167  1.0266
18973TIP3    H278411   0.907   2.388  12.073  1.0929  0.1048 -1.4590
18974TIP3   OH278412   1.621   5.990  17.182  0.6536 -0.3151 -0.1095
18974TIP3    H178413   1.585   5.907  17.211  1.0787 -0.4470  0.0525
18974TIP3    H278414   1.595   6.053  17.249  0.6055 -0.3831 -0.0645
18975TIP3   OH278415   0.367   2.326  11.118  0.2659  0.7021  0.2007
18975TIP3    H178416   0.340   2.271  11.045 -0.8677  1.8891 -0.2952
18975TIP3    H278417   0.386   2.265  11.189 -0.7174 -0.3368 -0.4157
18976TIP3   OH278418   4.228   1.095   1.264 -0.0652 -0.1436 -0.1167
18976TIP3    H178419   4.245   1.020   1.206 -1.8674 -0.3485 -0.4038
18976TIP3    H278420   4.234   1.059   1.352  1.4474 -0.0989 -0.1843
18977TIP3   OH278421   1.797   1.836  15.265  0.2113  0.0453  0.1897
18977TIP3    H178422   1.892   1.826  15.276  0.1021 -0.2152  0.9146
18977TIP3    H278423   1.788   1.911  15.206  0.9128 -1.3028 -1.6896
18978TIP3   OH278424   2.234   4.930  15.301  0.1878  0.5226 -0.6352
18978TIP3    H178425   2.165   4.891  15.248 -0.2110  1.0157 -0.4776
18978TIP3    H278426   2.312   4.926  15.245 -0.1060  0.5261 -1.0434
18979TIP3   OH278427   6.572   0.057   3.702 -0.1317 -0.7780 -0.4246
18979TIP3    H178428   6.644   0.048   3.764 -1.2882 -0.3489  1.0257
18979TIP3    H278429   6.496   0.024   3.749 -1.4445  1.6051 -0.7713
18980TIP3   OH278430   1.488   4.282   2.553  0.1012 -0.1274  0.7528
18980TIP3    H178431   1.415   4.301   2.612 -0.3409 -1.9846  0.8289
18980TIP3    H278432   1.501   4.363   2.504 -1.0567  0.6851  1.7629
18981TIP3   OH278433   0.166   1.443  16.539  0.2734  0.4918  0.3121
18981TIP3    H178434   0.176   1.365  16.593 -0.8813  1.3609  1.7953
18981TIP3    H278435   0.075   1.469  16.551 -0.4760 -0.2111 -3.3226
18982TIP3   OH278436   1.154   5.314   5.406 -0.8484 -0.1304  0.2041
18982TIP3    H178437   1.240   5.273   5.412 -0.9946 -0.2795  1.3630
18982TIP3    H278438   1.099   5.247   5.365 -0.2491  0.2464 -1.2641
18983TIP3   OH278439   3.546   4.611  16.173 -0.1142  0.4732  0.0047
18983TIP3    H178440   3.458   4.581  16.151 -0.0712  0.4666 -0.1596
18983TIP3    H278441   3.536   4.658  16.256 -0.4382  1.3625 -0.5314
18984TIP3   OH278442   4.026   4.072   5.707  0.0050  0.6260  0.0184
18984TIP3    H178443   4.056   4.112   5.789  0.2238  1.5968 -0.5274
18984TIP3    H278444   4.107   4.054   5.658 -0.1341  0.1813 -0.0501
18985TIP3   OH278445   1.352   1.285  11.103  0.9855 -0.3786  0.0402
18985TIP3    H178446   1.408   1.298  11.180  1.8252 -0.6192 -0.5151
18985TIP3    H278447   1.414   1.272  11.031  0.2044 -0.7983 -0.5648
18986TIP3   OH278448   6.807   5.329  15.859  1.0301  0.7193  0.1503
18986TIP3    H178449   6.731   5.295  15.907  2.8284 -1.1596  1.7500
18986TIP3    H278450   6.813   5.273  15.781  1.6209 -0.0485  0.7491
18987TIP3   OH278451   0.377   5.857  12.002  0.2211  0.3678 -0.5399
18987TIP3    H178452   0.314   5.876  12.071  0.8435 -1.9497  0.7407
18987TIP3    H278453   0.463   5.866  12.045  0.6698  0.5948 -1.4673
18988TIP3   OH278454   1.454   0.135  13.566 -0.4929  0.4944  0.3153
18988TIP3    H178455   1.472   0.116  13.658  1.2563  0.4115 -0.0207
18988TIP3    H278456   1.432   0.228  13.564  0.0524  0.6348  0.7488
18989TIP3   OH278457   3.980   0.519   4.865  0.0443 -0.3971 -0.5955
18989TIP3    H178458   4.070   0.543   4.845 -0.1217 -0.8626 -1.9093
18989TIP3    H278459   3.987   0.431   4.903 -0.1071 -1.6023 -3.2984
18990TIP3   OH278460   3.533   4.089   0.986  0.3085 -0.4485 -0.3336
18990TIP3    H178461   3.528   4.098   0.891 -0.8447  1.0906 -0.1420
18990TIP3    H278462   3.563   4.175   1.016  1.2221 -1.1017  0.6693
18991TIP3   OH278463   0.677   5.970  13.548  0.0974  0.0114 -0.3013
18991TIP3    H178464   0.746   6.036  13.553 -0.0373  0.0507  1.2471
18991TIP3    H278465   0.697   5.920  13.469  2.4594 -0.6093  0.6590
18992TIP3   OH278466   5.633   2.937  17.135  0.1175 -0.0484  0.3209
18992TIP3    H178467   5.573   2.864  17.146 -0.4797  0.6065  1.3988
18992TIP3    H278468   5.657   2.963  17.224 -0.3515  1.6240 -0.0167
18993TIP3   OH278469   2.266   2.486   5.719  0.0606  0.2523  0.1906
18993TIP3    H178470   2.224   2.453   5.639 -1.0925 -0.6202  1.1354
18993TIP3    H278471   2.307   2.568   5.693 -0.6776  0.1914 -1.1988
18994TIP3   OH278472   5.727   0.867   4.073 -0.5303 -0.1594 -0.1083
18994TIP3    H178473   5.733   0.773   4.089  0.5827 -0.0902 -0.0835
18994TIP3    H278474   5.641   0.879   4.032 -0.2328 -1.3307 -1.1048
18995TIP3   OH278475   1.206   1.730   6.561  0.4386  0.1986 -0.0002
18995TIP3    H178476   1.243   1.656   6.513  0.9682  1.2653 -1.2867
18995TIP3    H278477   1.275   1.797   6.557 -0.4785  1.1532  0.1623
18996TIP3   OH278478   2.286   3.457   5.484 -0.0777  0.6870 -0.0113
18996TIP3    H178479   2.298   3.552   5.483 -0.1335  0.6819 -0.9871
18996TIP3    H278480   2.375   3.422   5.495 -0.1749  0.8695  1.4934
18997TIP3   OH278481   0.546   1.922   3.824  0.2991  0.1595  0.6460
18997TIP3    H178482   0.517   1.972   3.748  1.9227  0.2088  0.0414
18997TIP3    H278483   0.629   1.963   3.849  0.0966 -0.2655  2.0494
18998TIP3   OH278484   0.007   5.151  15.644 -0.6536 -0.5685  0.7220
18998TIP3    H178485   0.015   5.062  15.678  0.5608 -0.6290  0.3143
18998TIP3    H278486   0.063   5.152  15.567  1.4953  1.2889  2.2316
18999TIP3   OH278487   3.947   1.833  14.955 -0.4465 -0.0737  0.9224
18999TIP3    H178488   3.862   1.800  14.927 -0.6777  0.5937  0.8170
18999TIP3    H278489   3.927   1.907  15.013  0.0565  1.3003 -0.6058
19000TIP3   OH278490   2.058   4.103   3.318  0.0850  0.2228 -0.2086
19000TIP3    H178491   2.114   4.116   3.242 -0.2881  1.1981 -0.3313
19000TIP3    H278492   2.090   4.166   3.383 -1.2720  1.2830 -0.5246
19001TIP3   OH278493   0.538   2.126  13.918  0.0552  0.1478 -0.2909
19001TIP3    H178494   0.457   2.176  13.915  0.5178  0.8787 -0.6878
19001TIP3    H278495   0.532   2.075  13.999 -0.6363  0.4579 -0.1432
19002TIP3   OH278496   1.675   3.602  13.544 -0.1909 -0.3081 -0.9847
19002TIP3    H178497   1.622   3.522  13.542 -1.1456  0.2906 -0.3101
19002TIP3    H278498   1.622   3.666  13.496 -1.2428  0.9620  1.7316
19003TIP3   OH278499   6.355   6.689   3.094  0.2818 -0.5212  0.3194
19003TIP3    H178500   6.299   6.728   3.161  0.6796  0.9194 -0.1836
19003TIP3    H278501   6.294   6.653   3.029 -0.0709  0.9094 -0.1491
19004TIP3   OH278502   0.698   0.938   2.959  0.8669 -0.1935 -0.1364
19004TIP3    H178503   0.659   0.852   2.978 -3.3876  1.1615 -2.1329
19004TIP3    H278504   0.708   0.938   2.864  2.8133  0.7857  0.0482
19005TIP3   OH278505   3.556   0.076  13.356 -0.3318  0.5681 -0.6534
19005TIP3    H178506   3.467   0.107  13.377 -0.7320 -1.3538  0.6949
19005TIP3    H278507   3.541  -0.001  13.300  0.4522 -0.0392 -0.0342
19006TIP3   OH278508   3.439   3.666   4.728 -0.8008 -0.0783 -0.5467
19006TIP3    H178509   3.487   3.734   4.775 -0.8352  0.0856 -0.7471
19006TIP3    H278510   3.366   3.712   4.686 -2.5472 -0.7053  1.7068
19007TIP3   OH278511   6.615   2.392   0.235  0.3746  0.1748  0.0172
19007TIP3    H178512   6.619   2.432   0.323 -2.0271 -0.1291  0.2880
19007TIP3    H278513   6.686   2.328   0.235  1.5060  1.3772  1.1149
19008TIP3   OH278514   3.260   3.160  11.480 -0.2961  0.1173 -0.0630
19008TIP3    H178515   3.197   3.222  11.516  1.1321 -0.0678  2.9164
19008TIP3    H278516   3.343   3.181  11.523  0.7059 -2.4699 -0.5960
19009TIP3   OH278517   2.035   0.828   0.710 -0.3213 -0.0406 -0.6025
19009TIP3    H178518   1.958   0.811   0.656  0.1749 -0.5239 -1.1692
19009TIP3    H278519   2.046   0.923   0.709  0.2667 -0.1098 -2.1811
19010TIP3   OH278520   3.071   0.870  12.641  0.7882 -0.5897  0.4256
19010TIP3    H178521   3.058   0.794  12.698  2.6463  0.0009  1.6634
19010TIP3    H278522   3.014   0.937  12.679  0.6727 -0.7465  0.5324
19011TIP3   OH278523   2.708   4.147  12.061 -0.0379  0.2347  0.4592
19011TIP3    H178524   2.616   4.132  12.081 -0.3191  0.0502 -0.9537
19011TIP3    H278525   2.708   4.188  11.975  1.2571 -0.8462 -0.0737
19012TIP3   OH278526   4.275   4.640  16.259  0.3239 -0.4077  0.3931
19012TIP3    H178527   4.330   4.678  16.191  0.2040  1.1762  1.1664
19012TIP3    H278528   4.273   4.546  16.238  2.3850 -0.3271 -0.2728
19013TIP3   OH278529   3.625   2.894   1.260 -0.0222  0.4897  0.4125
19013TIP3    H178530   3.575   2.891   1.341 -0.9387  1.5659 -0.1087
19013TIP3    H278531   3.708   2.935   1.285  0.1874 -0.2866  1.0392
19014TIP3   OH278532   5.459   6.029  12.777 -0.8457  0.2855  0.2366
19014TIP3    H178533   5.503   5.956  12.733  1.9200  2.4078 -0.6734
19014TIP3    H278534   5.461   6.006  12.869  3.4432  0.8254  0.3917
19015TIP3   OH278535   0.801   3.993  17.186 -0.2499  0.1679 -0.0706
19015TIP3    H178536   0.861   3.921  17.165 -0.0995  0.3393 -0.2261
19015TIP3    H278537   0.858   4.065  17.213 -0.4555 -0.1557  1.2507
19016TIP3   OH278538   1.057   1.445   1.052 -0.4054  0.1631  0.2429
19016TIP3    H178539   1.097   1.502   0.986 -0.5514 -0.6595 -0.5607
19016TIP3    H278540   1.112   1.456   1.130  0.3182  0.4222 -0.2988
19017TIP3   OH278541   3.244   3.241  16.850 -0.0129  0.2219 -0.3953
19017TIP3    H178542   3.338   3.261  16.849 -0.1932  1.0937  0.1343
19017TIP3    H278543   3.203   3.313  16.804 -0.7470  1.6227  2.3169
19018TIP3   OH278544   0.215   6.295  12.102 -0.4941 -0.3997 -0.8558
19018TIP3    H178545   0.218   6.215  12.155 -0.4500  0.0559 -0.1565
19018TIP3    H278546   0.289   6.347  12.134  0.3360 -0.6654 -2.2699
19019TIP3   OH278547   4.117   2.510  14.253  0.1374 -0.2169  0.1634
19019TIP3    H178548   4.139   2.515  14.346  0.0594 -0.1241  0.1773
19019TIP3    H278549   4.082   2.421  14.242 -0.5959  0.0383  0.3890
19020TIP3   OH278550   2.223   0.686  16.023 -0.0523 -0.2328 -0.6224
19020TIP3    H178551   2.128   0.695  16.027 -0.0417 -0.6236  0.6059
19020TIP3    H278552   2.247   0.725  15.939 -0.7850  4.4697  1.1690
19021TIP3   OH278553   2.616   6.050  11.256 -0.3305  0.4359 -0.3399
19021TIP3    H178554   2.705   6.076  11.281 -0.6982  1.5837 -0.2092
19021TIP3    H278555   2.626   5.961  11.222  0.8570  0.5357 -0.2746
19022TIP3   OH278556   2.654   5.928  13.031 -0.1216  0.2347 -0.1419
19022TIP3    H178557   2.567   5.889  13.035 -0.3116  0.5099 -1.5368
19022TIP3    H278558   2.638   6.020  13.007  0.5427  0.2949 -0.3526
19023TIP3   OH278559   5.454   3.775   3.851 -0.4586 -0.3834  0.7808
19023TIP3    H178560   5.372   3.801   3.809 -1.1266 -1.6537  1.2766
19023TIP3    H278561   5.464   3.682   3.829  0.8771 -0.2239  0.6796
19024TIP3   OH278562   6.325   4.770   5.647 -0.4832 -0.0901 -0.3690
19024TIP3    H178563   6.412   4.730   5.640 -0.3489  0.2491 -0.6682
19024TIP3    H278564   6.269   4.701   5.682  0.4389  0.4445  2.2129
19025TIP3   OH278565   3.003   3.582  16.280  0.0709  0.2504 -0.7367
19025TIP3    H178566   2.951   3.604  16.202  0.4005  0.8951 -0.7767
19025TIP3    H278567   2.958   3.506  16.317 -0.2307  0.0863 -1.4167
19026TIP3   OH278568   5.605   2.354  13.850  0.0480 -0.1094  0.2075
19026TIP3    H178569   5.632   2.264  13.831 -1.5757 -0.3508 -1.0340
19026TIP3    H278570   5.510   2.353  13.840  0.1232  1.9998 -0.9591
19027TIP3   OH278571   4.902   2.984  12.656  0.2123  0.4014 -0.3920
19027TIP3    H178572   4.828   2.939  12.698  0.3138 -0.8110 -1.4797
19027TIP3    H278573   4.871   3.000  12.567  0.8698  0.8589 -0.5347
19028TIP3   OH278574   0.852   4.152  15.124  0.5328 -0.0675  0.6607
19028TIP3    H178575   0.927   4.092  15.122 -0.5655 -1.4385 -1.7976
19028TIP3    H278576   0.775   4.096  15.123 -0.5272  1.3505 -0.8436
19029TIP3   OH278577   0.830   5.226   6.522 -0.0775 -0.2930  0.3986
19029TIP3    H178578   0.845   5.163   6.450 -1.2256 -1.0387  0.7949
19029TIP3    H278579   0.775   5.294   6.483  1.4310  0.6508 -0.1179
19030TIP3   OH278580   2.997   3.207  14.157  0.4651 -0.2715  0.0449
19030TIP3    H178581   2.961   3.148  14.091 -1.5801  0.1934  0.6853
19030TIP3    H278582   3.051   3.269  14.109  0.8758 -1.3494 -0.8931
19031TIP3   OH278583   5.681   4.613  14.938  0.0888  0.1435  0.2226
19031TIP3    H178584   5.611   4.570  14.889 -0.4565  1.0183  0.2179
19031TIP3    H278585   5.639   4.691  14.976  1.6717  2.0311 -1.8138
19032TIP3   OH278586   5.653   2.731  11.556 -0.5631  0.2632  0.0132
19032TIP3    H178587   5.708   2.787  11.502 -0.6180  0.2340 -0.0721
19032TIP3    H278588   5.666   2.763  11.645 -0.0431 -0.0505  0.0484
19033TIP3   OH278589   0.646   0.909   1.524  0.1564  0.2506  0.2828
19033TIP3    H178590   0.671   0.893   1.615  0.4232 -3.9360 -0.4332
19033TIP3    H278591   0.551   0.919   1.526  0.1302 -0.1646  0.9907
19034TIP3   OH278592   5.102   6.518   1.042  0.0868  0.6601 -0.4026
19034TIP3    H178593   5.007   6.508   1.044 -0.2229  3.3223  2.9807
19034TIP3    H278594   5.117   6.595   0.987  0.2055  0.7181 -0.2905
19035TIP3   OH278595   2.787   0.312   3.458  0.0262  0.4651  0.1561
19035TIP3    H178596   2.879   0.293   3.476  0.3975  3.2258  1.4302
19035TIP3    H278597   2.789   0.385   3.397 -1.3539 -1.2126 -1.9726
19036TIP3   OH278598   0.076   4.419   3.546  0.5979  0.0548  0.6584
19036TIP3    H178599  -0.014   4.391   3.530  0.0939  0.4878  2.6551
19036TIP3    H278600   0.094   4.393   3.636  2.1644  0.7896  0.5770
19037TIP3   OH278601   5.161   0.225   3.301 -0.2000  0.1291  0.1924
19037TIP3    H178602   5.075   0.194   3.276  0.2124 -1.9034  1.1481
19037TIP3    H278603   5.155   0.238   3.396  0.5373 -0.0380  0.2676
19038TIP3   OH278604   0.788   1.753   2.401 -0.8565 -0.0760  0.8562
19038TIP3    H178605   0.706   1.781   2.360  0.0360  1.1260 -0.1246
19038TIP3    H278606   0.843   1.831   2.401  0.7231 -1.1785  0.4531
19039TIP3   OH278607   3.920   6.139  11.401  0.1009  0.1791  0.0509
19039TIP3    H178608   3.933   6.076  11.472 -2.0115  0.7298  0.9620
19039TIP3    H278609   3.998   6.194  11.402 -0.5119  1.0101  2.7834
19040TIP3   OH278610   0.957   1.700   1.243  0.4955 -0.1685  0.3477
19040TIP3    H178611   1.022   1.726   1.177  0.1007  0.0512  0.0399
19040TIP3    H278612   0.979   1.751   1.320  0.2705  0.4292  0.0228
19041TIP3   OH278613   5.137   5.390  13.156  0.6697  0.0557 -0.4508
19041TIP3    H178614   5.090   5.315  13.193  2.2510 -0.9087 -0.3354
19041TIP3    H278615   5.211   5.351  13.109  1.8582  1.5682  0.1130
19042TIP3   OH278616   5.818   1.672   1.001  0.0146 -0.2358  0.3131
19042TIP3    H178617   5.895   1.715   0.964  0.8809  0.0650  2.3918
19042TIP3    H278618   5.853   1.594   1.045 -0.7314  0.3578  2.0068
19043TIP3   OH278619   0.243   3.273  12.920 -0.0370 -0.3308  0.5430
19043TIP3    H178620   0.169   3.265  12.860 -0.7736  0.9149  1.2738
19043TIP3    H278621   0.244   3.365  12.946  2.5388 -0.0425 -0.4060
19044TIP3   OH278622   5.230   1.880   2.878  0.0629 -0.4440 -0.1389
19044TIP3    H178623   5.228   1.972   2.902  0.3495 -0.3446 -0.4972
19044TIP3    H278624   5.139   1.852   2.886 -0.0099 -0.1556  0.0640
19045TIP3   OH278625   0.080   1.953  16.460 -0.1227  0.4463 -0.0800
19045TIP3    H178626   0.095   2.040  16.500 -0.9975  0.8649 -0.6516
19045TIP3    H278627   0.145   1.947  16.391  0.2604  0.4421  0.2735
19046TIP3   OH278628   3.655   1.656  13.088  0.6761 -0.0609 -0.6255
19046TIP3    H178629   3.725   1.715  13.115  0.8630 -0.1598 -0.8898
19046TIP3    H278630   3.578   1.712  13.079  0.4361 -0.1327  0.7874
19047TIP3   OH278631   3.209   5.658   1.035  0.1483  0.5361 -0.1874
19047TIP3    H178632   3.189   5.699   0.951  1.6454  3.3017  0.7536
19047TIP3    H278633   3.252   5.726   1.086  1.7252 -1.9098  1.8809
19048TIP3   OH278634   4.904   3.983  11.557  0.4765 -0.1276 -0.4666
19048TIP3    H178635   4.925   3.964  11.649  0.9488 -0.8684 -0.7261
19048TIP3    H278636   4.908   3.898  11.514 -0.5367  0.0965 -1.0262
19049TIP3   OH278637   0.173   5.839   1.370 -0.4694  0.2064 -0.0717
19049TIP3    H178638   0.095   5.789   1.393 -0.8582 -0.2351 -2.2009
19049TIP3    H278639   0.241   5.806   1.428 -1.4228 -0.7707  0.5124
19050TIP3   OH278640   5.775   5.921  16.182  0.6658 -0.5829 -0.0765
19050TIP3    H178641   5.757   5.929  16.088 -0.5883 -0.6201  0.1552
19050TIP3    H278642   5.769   6.011  16.215 -0.2271 -0.7472  0.2025
19051TIP3   OH278643   4.217   0.822  13.845  0.2816  0.2993  0.2246
19051TIP3    H178644   4.223   0.896  13.907  0.0973  0.3437  0.1889
19051TIP3    H278645   4.156   0.852  13.778 -1.0691 -0.5055  1.0793
19052TIP3   OH278646   1.959   4.319  16.662  0.6735 -0.4282  0.4161
19052TIP3    H178647   1.895   4.295  16.729  0.1907  0.4719  0.2936
19052TIP3    H278648   1.934   4.408  16.637  0.6228 -0.8837 -1.2220
19053TIP3   OH278649   6.244   2.953   1.730 -0.2530  0.2914  0.1933
19053TIP3    H178650   6.263   2.860   1.745  1.2739  0.2595 -1.7478
19053TIP3    H278651   6.175   2.952   1.663 -0.6323  0.5539  0.5791
19054TIP3   OH278652   3.237   0.179  15.808 -0.5836 -0.7338  0.9288
19054TIP3    H178653   3.174   0.115  15.773 -1.1158  0.5936 -0.6127
19054TIP3    H278654   3.309   0.126  15.841 -0.3256 -2.1038 -1.7079
19055TIP3   OH278655   0.794   6.468   5.166  0.6970  0.5598 -0.3205
19055TIP3    H178656   0.764   6.553   5.197 -1.0080  0.2428 -0.9901
19055TIP3    H278657   0.749   6.405   5.223  0.5746  0.0731 -0.9527
19056TIP3   OH278658   1.646   3.504  12.939  0.4610 -1.1571  0.1211
19056TIP3    H178659   1.577   3.566  12.915  0.9520 -0.5523  0.2723
19056TIP3    H278660   1.637   3.491  13.033  1.9397  0.6156  0.5198
19057TIP3   OH278661   6.306   3.735  16.330  0.5822  0.0600 -0.0044
19057TIP3    H178662   6.318   3.641  16.316 -0.8840 -0.1674  0.1688
19057TIP3    H278663   6.312   3.745  16.425  1.0249  0.1908 -0.0451
19058TIP3   OH278664   5.663   2.216  11.009  0.2126  0.2087  0.1183
19058TIP3    H178665   5.645   2.308  11.029  1.1884  0.4412 -0.0617
19058TIP3    H278666   5.662   2.173  11.095 -1.0107  0.2368  0.1336
19059TIP3   OH278667   4.607   6.144   5.539 -0.0102 -0.0546  0.2195
19059TIP3    H178668   4.538   6.191   5.587  1.1719  1.1198  0.7905
19059TIP3    H278669   4.616   6.192   5.457 -0.3971 -0.6748 -0.1947
19060TIP3   OH278670   5.100   1.465   5.987  0.3751  0.1054  0.0845
19060TIP3    H178671   5.139   1.490   5.903 -0.6177 -0.1620 -0.4688
19060TIP3    H278672   5.174   1.437   6.041  0.6550 -3.3304 -1.9652
19061TIP3   OH278673   1.447   0.428  13.214 -0.1932 -0.7141 -0.1364
19061TIP3    H178674   1.489   0.427  13.128 -0.4273  0.9632 -0.2973
19061TIP3    H278675   1.404   0.343  13.221  0.0491 -0.9673 -1.5655
19062TIP3   OH278676   4.605   1.993   0.294 -0.2847 -0.0307 -0.6771
19062TIP3    H178677   4.566   1.957   0.214  2.1927 -0.3107 -1.7772
19062TIP3    H278678   4.557   1.948   0.365 -1.3191 -1.0606 -1.9877
19063TIP3   OH278679   3.173   5.765  10.914 -0.0238  0.2419  0.4297
19063TIP3    H178680   3.223   5.803  10.842 -0.2448 -0.4573 -0.0946
19063TIP3    H278681   3.081   5.776  10.889 -0.0967 -2.7702 -0.9000
19064TIP3   OH278682   0.042   1.813   1.095  0.6293  0.5620  0.2277
19064TIP3    H178683   0.104   1.877   1.130 -1.3029  2.1600  0.8324
19064TIP3    H278684  -0.004   1.779   1.172 -0.6373  0.9053 -0.3503
19065TIP3   OH278685   6.752   6.026   4.711 -0.1103  0.2164 -0.1936
19065TIP3    H178686   6.666   6.002   4.676 -0.1400  0.5436 -0.3509
19065TIP3    H278687   6.802   5.945   4.709 -1.3932 -0.7077  2.8354
19066TIP3   OH278688   6.557   6.735   0.469 -1.0599 -0.5748  0.7176
19066TIP3    H178689   6.539   6.645   0.444  0.7611 -0.3945 -1.4747
19066TIP3    H278690   6.492   6.787   0.421 -0.6455 -0.5975  0.1077
19067TIP3   OH278691   3.048   2.077  13.357 -0.1181 -0.3250 -0.3701
19067TIP3    H178692   2.980   2.043  13.298 -1.3302  2.1151 -0.4438
19067TIP3    H278693   3.008   2.076  13.443 -0.1816  0.8884 -0.3769
19068TIP3   OH278694   3.073   1.559  13.377 -0.1602  0.6968  0.3386
19068TIP3    H178695   3.152   1.586  13.329 -0.3521 -0.3948 -0.6213
19068TIP3    H278696   3.015   1.635  13.373  0.9800  1.6426  1.3700
19069TIP3   OH278697   5.876   5.409   3.147  0.0200  0.2297  0.5046
19069TIP3    H178698   5.814   5.482   3.144  0.3133  0.5039  1.0098
19069TIP3    H278699   5.851   5.359   3.224  0.7673  0.6482  1.0210
19070TIP3   OH278700   4.118   4.732   4.384  0.2806  0.5149 -0.5357
19070TIP3    H178701   4.087   4.732   4.293  0.3112 -3.4644 -0.6059
19070TIP3    H278702   4.212   4.751   4.376  0.5801 -1.2558 -1.4796
19071TIP3   OH278703   4.770   2.087  10.812  0.1402 -0.2642  0.4335
19071TIP3    H178704   4.703   2.040  10.861  0.1885 -0.7487  0.0358
19071TIP3    H278705   4.722   2.159  10.770  0.0863  0.1135  1.1258
19072TIP3   OH278706   5.097   1.983   2.175  1.0899  0.3960  0.3315
19072TIP3    H178707   5.176   1.954   2.129 -0.4385 -1.5546 -1.1425
19072TIP3    H278708   5.085   1.920   2.245 -0.5172 -0.7689 -0.9687
19073TIP3   OH278709   3.698   5.442   5.700 -0.2299 -0.1637 -0.1514
19073TIP3    H178710   3.752   5.385   5.755 -0.3494 -0.2332 -0.1084
19073TIP3    H278711   3.628   5.386   5.667  0.1202 -0.2342 -0.7686
19074TIP3   OH278712   3.402   2.835  12.779  0.0383  0.4648 -0.4742
19074TIP3    H178713   3.469   2.826  12.711 -0.0240 -1.3171 -0.3124
19074TIP3    H278714   3.331   2.881  12.736 -0.1503 -0.9785 -1.7505
19075TIP3   OH278715   2.512   6.601  14.240  0.0144 -0.2773  0.0460
19075TIP3    H178716   2.600   6.592  14.276 -1.1312  1.6173  3.5121
19075TIP3    H278717   2.505   6.694  14.218 -0.8040 -0.6081 -1.1276
19076TIP3   OH278718   2.751   4.662  13.318 -0.1792  0.4519  0.3145
19076TIP3    H178719   2.768   4.732  13.381  0.3000 -0.0442  0.7367
19076TIP3    H278720   2.832   4.655  13.267 -0.2031  0.1535  0.3184
19077TIP3   OH278721   0.759   2.021   3.592 -0.0904 -0.3237  0.1113
19077TIP3    H178722   0.666   2.042   3.583  0.0701  0.5069  0.3100
19077TIP3    H278723   0.802   2.080   3.530  0.2144 -1.5211 -0.8373
19078TIP3   OH278724   0.277   0.144   3.047  0.0329  0.0230  0.4544
19078TIP3    H178725   0.192   0.161   3.087  0.1352 -1.4266  1.3220
19078TIP3    H278726   0.265   0.063   2.998  0.3657  0.8978 -1.1291
19079TIP3   OH278727   5.212   2.357   0.422  0.0004 -0.2276 -0.3011
19079TIP3    H178728   5.122   2.351   0.454 -0.5614  0.7708 -1.7122
19079TIP3    H278729   5.249   2.271   0.442 -1.1410 -0.5200  0.6313
19080TIP3   OH278730   2.235   6.449   3.093  0.1427 -0.2630 -0.2382
19080TIP3    H178731   2.295   6.398   3.146  2.8336  0.5339 -2.4039
19080TIP3    H278732   2.237   6.537   3.132  0.6710 -0.1415 -0.5413
19081TIP3   OH278733   2.790   4.319   0.583 -0.3616  0.6561  0.1954
19081TIP3    H178734   2.879   4.334   0.616  0.7271 -2.5571 -1.0884
19081TIP3    H278735   2.734   4.371   0.640  1.9183 -0.9014  4.0393
19082TIP3   OH278736   4.207   4.997  13.900 -0.1568 -0.1719 -0.0537
19082TIP3    H178737   4.198   4.982  13.806 -0.2722  2.0886 -0.4473
19082TIP3    H278738   4.123   5.036  13.926  0.3544  0.4523  0.6923
19083TIP3   OH278739   2.728   4.298  16.126  0.4670  0.1488  0.1584
19083TIP3    H178740   2.673   4.244  16.183  0.6514 -0.3471 -0.1317
19083TIP3    H278741   2.682   4.298  16.042  1.0176 -0.4215 -0.1357
19084TIP3   OH278742   0.513   4.145  17.038 -0.6619  0.2134 -0.3793
19084TIP3    H178743   0.548   4.080  16.977 -0.9286 -1.0356  0.7682
19084TIP3    H278744   0.487   4.218  16.983  2.1703  0.4860 -1.4637
19085TIP3   OH278745   3.679   3.121   2.170  0.1029 -0.1422  0.3436
19085TIP3    H178746   3.594   3.097   2.206 -0.4965 -0.4301 -1.1940
19085TIP3    H278747   3.668   3.212   2.142  0.9188  0.4503  1.9218
19086TIP3   OH278748   2.154   3.289   6.377 -0.0633 -0.1989  0.4735
19086TIP3    H178749   2.151   3.366   6.320 -1.2171  0.8696  1.9123
19086TIP3    H278750   2.162   3.215   6.318  0.8877  1.0236 -0.9517
19087TIP3   OH278751   1.861   1.738  12.772 -0.3961  0.4232  0.1586
19087TIP3    H178752   1.842   1.809  12.711 -0.8070 -1.6939 -2.2902
19087TIP3    H278753   1.776   1.716  12.810 -0.4718  0.4152 -0.0148
19088TIP3   OH278754   2.479   2.832  12.234 -0.5309  0.2860 -0.0452
19088TIP3    H178755   2.489   2.913  12.183  1.9829  0.9004  1.3152
19088TIP3    H278756   2.534   2.768  12.187 -0.0430  0.2300  0.5968
19089TIP3   OH278757   3.009   1.394  16.553  0.1244  0.5031  0.0366
19089TIP3    H178758   2.991   1.428  16.642 -0.7904 -1.4330  0.6146
19089TIP3    H278759   2.928   1.351  16.528  1.4384 -1.7251 -0.4635
19090TIP3   OH278760   3.244   6.636  14.809  0.1398 -0.6497  0.1217
19090TIP3    H178761   3.216   6.551  14.776 -2.0992 -0.0447  0.3443
19090TIP3    H278762   3.222   6.697  14.738 -0.9395  0.1080  1.0936
19091TIP3   OH278763   0.681   3.196   5.181 -0.7162  0.4415  0.8394
19091TIP3    H178764   0.680   3.207   5.086 -1.2857  1.2200  0.9381
19091TIP3    H278765   0.767   3.228   5.208 -0.6457  0.4410  0.6139
19092TIP3   OH278766   4.553   1.625   6.027  1.0808  1.0715  0.2608
19092TIP3    H178767   4.482   1.564   6.048  3.3928 -1.3807  1.1799
19092TIP3    H278768   4.527   1.663   5.943 -0.3398 -1.3044 -0.4260
19093TIP3   OH278769   1.754   4.401  14.963  0.0468  0.1672  0.1325
19093TIP3    H178770   1.809   4.385  14.886 -0.5299  0.2998 -0.3121
19093TIP3    H278771   1.702   4.321  14.972  0.4937 -0.0634  0.7120
19094TIP3   OH278772   2.431   6.373   2.665 -0.0683 -0.1161  0.0696
19094TIP3    H178773   2.357   6.377   2.726 -0.1846  1.1843 -0.1407
19094TIP3    H278774   2.458   6.464   2.654  3.1783 -0.7701  2.0936
19095TIP3   OH278775   4.976   5.966   6.890 -0.5576  0.3638  0.2490
19095TIP3    H178776   5.016   5.896   6.838 -0.5443 -0.1739  0.9566
19095TIP3    H278777   5.034   6.041   6.879 -0.1199  0.0090  0.1337
19096TIP3   OH278778   1.731   5.948  13.249  0.2404 -0.0014 -0.1253
19096TIP3    H178779   1.794   5.878  13.232  1.0636  0.7222 -0.1326
19096TIP3    H278780   1.754   6.017  13.186  0.6719  1.0384  1.1349
19097TIP3   OH278781   0.356   2.144  11.980  0.0640  0.1659  0.1441
19097TIP3    H178782   0.261   2.133  11.985  0.1779 -0.3825  1.2257
19097TIP3    H278783   0.369   2.239  11.979 -0.5489  0.2587 -1.4493
19098TIP3   OH278784   6.047   3.995   0.617  0.2584 -0.3400  0.1219
19098TIP3    H178785   6.038   3.995   0.522  1.0991 -0.0655  0.0335
19098TIP3    H278786   5.961   4.020   0.650 -0.5772 -2.3275 -0.5021
19099TIP3   OH278787   1.783   3.612   3.428  0.1539 -0.3849 -0.1404
19099TIP3    H178788   1.727   3.687   3.447  0.7088 -0.4989  2.1722
19099TIP3    H278789   1.871   3.649   3.424  0.0064 -0.2619 -3.3945
19100TIP3   OH278790   3.312   0.436  16.499  0.1695  0.2995 -0.7981
19100TIP3    H178791   3.288   0.488  16.422 -1.3917 -0.7836 -1.0785
19100TIP3    H278792   3.294   0.345  16.473  3.6585 -0.5429 -0.6596
19101TIP3   OH278793   2.376   0.136  13.458  0.1956  0.1318  0.4785
19101TIP3    H178794   2.349   0.171  13.543 -1.8802  0.1725 -0.1728
19101TIP3    H278795   2.366   0.041  13.467 -0.1627  0.1466  0.2296
19102TIP3   OH278796   4.457   0.422   3.206 -0.1924 -0.0375 -0.1811
19102TIP3    H178797   4.361   0.421   3.203 -0.2180  0.2458  0.6109
19102TIP3    H278798   4.480   0.514   3.203  0.0414 -0.0847  0.2378
19103TIP3   OH278799   0.328   5.672  16.852 -0.4966  0.6164  0.8583
19103TIP3    H178800   0.418   5.705  16.845  0.4353 -1.6747  1.3871
19103TIP3    H278801   0.304   5.688  16.944 -0.4538  0.7851  0.8402
19104TIP3   OH278802   4.157   2.076   6.424 -0.0220  0.5539  0.1313
19104TIP3    H178803   4.172   2.110   6.512 -0.2768 -0.1898  0.4709
19104TIP3    H278804   4.076   2.118   6.395 -0.8756 -0.4919  0.9422
19105TIP3   OH278805   1.218   6.037  16.554  0.1593 -0.8880  0.1522
19105TIP3    H178806   1.211   5.964  16.492  2.4195 -1.4548  0.4939
19105TIP3    H278807   1.264   5.999  16.629 -1.8659 -0.0192  1.8823
19106TIP3   OH278808   1.528   1.263  11.315  0.1465  0.1976 -0.9029
19106TIP3    H178809   1.576   1.330  11.364 -0.5760  0.6320 -0.7815
19106TIP3    H278810   1.586   1.187  11.315  0.5478  0.5005 -0.1879
19107TIP3   OH278811   6.152   0.032   0.116 -0.3149  0.1794 -0.5189
19107TIP3    H178812   6.100   0.041   0.196 -0.5894 -1.5539 -0.4806
19107TIP3    H278813   6.090  -0.000   0.051 -0.2901  2.4142 -1.6903
19108TIP3   OH278814   3.691   6.674   3.975  0.0461 -0.1457  0.4161
19108TIP3    H178815   3.729   6.593   3.941 -1.6646 -0.3456 -1.0968
19108TIP3    H278816   3.635   6.646   4.048  0.1842 -0.2199  0.4934
19109TIP3   OH278817   6.772   0.105  13.131  0.1470 -0.1106 -0.1607
19109TIP3    H178818   6.809   0.157  13.060 -0.4739 -2.1581 -2.0363
19109TIP3    H278819   6.677   0.115  13.122  0.0630 -0.3909  0.3739
19110TIP3   OH278820   4.303   5.826  16.084  0.4444 -0.1283  0.4803
19110TIP3    H178821   4.303   5.921  16.069 -1.7365 -0.5339 -2.8823
19110TIP3    H278822   4.372   5.793  16.027 -1.2059 -0.8340 -1.1710
19111TIP3   OH278823   5.208   2.121   5.028  0.1740  0.0905 -0.1811
19111TIP3    H178824   5.160   2.038   5.028 -0.5391  0.4820 -1.2363
19111TIP3    H278825   5.145   2.185   5.060  1.2841 -0.0424  2.4040
19112TIP3   OH278826   4.270   6.247  12.128 -0.0436  0.4557 -0.0732
19112TIP3    H178827   4.215   6.208  12.195 -0.8229  0.7710 -0.5313
19112TIP3    H278828   4.255   6.341  12.136 -1.2072  0.4066 -1.6205
19113TIP3   OH278829   3.370   4.765   0.435 -0.5526 -0.4834  0.0423
19113TIP3    H178830   3.446   4.785   0.491  0.7649 -1.5840 -1.3005
19113TIP3    H278831   3.358   4.843   0.382 -0.3082 -0.3317  0.2056
19114TIP3   OH278832   3.287   1.639   2.316 -0.3050 -0.1394 -0.0576
19114TIP3    H178833   3.233   1.603   2.246 -0.9508 -1.3629  1.0447
19114TIP3    H278834   3.377   1.616   2.292 -0.5739 -1.0648 -0.1730
19115TIP3   OH278835   4.073   5.647   5.244 -0.1303  0.0943  0.2296
19115TIP3    H178836   4.072   5.594   5.324  1.2905  1.6802  1.3581
19115TIP3    H278837   4.092   5.736   5.276 -2.1409  1.2303 -1.6233
19116TIP3   OH278838   4.036   2.738   4.314 -0.0023 -0.6914 -0.3488
19116TIP3    H178839   4.113   2.752   4.258  0.8614  0.7455  1.1689
19116TIP3    H278840   4.072   2.719   4.400 -1.3456 -2.0966 -0.0811
19117TIP3   OH278841   6.681   6.279  13.832 -0.8512  0.2801 -0.9068
19117TIP3    H178842   6.708   6.229  13.909 -2.5212  0.1418 -0.3893
19117TIP3    H278843   6.739   6.249  13.763 -0.5085 -0.9237 -0.1176
19118TIP3   OH278844   2.193   2.311   4.429 -0.0887 -0.3501  0.2737
19118TIP3    H178845   2.236   2.384   4.474 -0.7444 -1.0380  2.0769
19118TIP3    H278846   2.263   2.248   4.412 -0.1093 -0.9324  2.1252
19119TIP3   OH278847   1.856   5.787   3.176  0.4539 -0.0291  0.2465
19119TIP3    H178848   1.918   5.824   3.113 -0.1223  1.5586  0.5962
19119TIP3    H278849   1.788   5.854   3.185 -1.1834 -1.6230  0.0676
19120TIP3   OH278850   3.294   6.370  13.806  0.4936 -0.4746 -0.6100
19120TIP3    H178851   3.348   6.292  13.806 -0.2353 -0.9899 -1.2326
19120TIP3    H278852   3.275   6.386  13.713 -0.3366 -0.2522 -0.4099
19121TIP3   OH278853   2.546   0.562  16.361 -0.6310 -0.0130  0.6126
19121TIP3    H178854   2.478   0.583  16.297  1.1967  1.8956 -0.7681
19121TIP3    H278855   2.614   0.518  16.310  1.6880  3.1949  0.7589
19122TIP3   OH278856   6.437   5.800   6.152 -0.1386  0.3827 -0.4376
19122TIP3    H178857   6.343   5.816   6.147 -0.2549 -0.5285 -1.5683
19122TIP3    H278858   6.474   5.852   6.081  0.5316  2.7381  1.5649
19123TIP3   OH278859   3.089   2.924  12.280  0.1391 -0.4445  0.4197
19123TIP3    H178860   3.169   2.896  12.323 -0.3289 -1.0115  0.9402
19123TIP3    H278861   3.031   2.950  12.352 -0.1610 -0.0884  0.0529
19124TIP3   OH278862   0.534   0.773  13.216 -0.6058 -0.4008  0.0465
19124TIP3    H178863   0.576   0.716  13.280 -0.6679 -2.2982 -1.5215
19124TIP3    H278864   0.589   0.851  13.213  0.0867 -0.8184  1.5085
19125TIP3   OH278865   0.362   3.198   3.831  0.3766  0.1216 -0.3104
19125TIP3    H178866   0.411   3.181   3.911  1.6405 -1.0858 -1.3035
19125TIP3    H278867   0.327   3.286   3.842  1.1075  0.2226  1.2784
19126TIP3   OH278868   3.336   0.256   3.558 -0.7379 -0.7101 -0.1496
19126TIP3    H178869   3.350   0.333   3.613  1.7344  0.2927 -2.0657
19126TIP3    H278870   3.339   0.182   3.618 -0.2452  0.5117  1.3396
19127TIP3   OH278871   4.131   1.156  14.365  0.6540 -0.7485  0.1622
19127TIP3    H178872   4.076   1.195  14.297  1.0388  1.5479  1.1357
19127TIP3    H278873   4.219   1.154  14.326  0.8953  0.6696  0.6155
19128TIP3   OH278874   3.454   5.754  14.800  0.5335 -0.3296  0.0801
19128TIP3    H178875   3.546   5.745  14.826 -0.0151 -0.3563  2.1221
19128TIP3    H278876   3.433   5.672  14.757  1.7597  0.0985 -1.3533
19129TIP3   OH278877   5.492   2.251  15.080 -0.4380 -0.5320 -0.5082
19129TIP3    H178878   5.472   2.338  15.046 -1.5284 -1.3114 -1.9323
19129TIP3    H278879   5.417   2.228  15.135  1.5582  0.9420  3.0025
19130TIP3   OH278880   2.392   2.490  16.100 -0.0723  0.7313  0.3651
19130TIP3    H178881   2.463   2.467  16.039 -0.9802  3.1588 -1.6491
19130TIP3    H278882   2.434   2.547  16.165  0.0618  1.2902 -0.2092
19131TIP3   OH278883   5.767   1.337   4.255  0.0917  0.6074 -0.9177
19131TIP3    H178884   5.696   1.288   4.214  0.7228  0.1770 -1.5034
19131TIP3    H278885   5.813   1.271   4.308  0.4252  0.7554 -1.0261
19132TIP3   OH278886   5.759   0.918   0.735 -0.2869 -0.1467  0.1866
19132TIP3    H178887   5.780   0.871   0.654 -0.5866 -0.1461  0.1110
19132TIP3    H278888   5.804   0.868   0.804  0.4703  0.1972 -0.0502
19133TIP3   OH278889   2.525   6.793   3.534  0.2369  0.5367  0.1787
19133TIP3    H178890   2.568   6.815   3.617  0.5418  2.8551 -0.5535
19133TIP3    H278891   2.432   6.810   3.549  0.4070  1.9008 -0.2186
19134TIP3   OH278892   3.896   3.825   1.115  0.3334  0.4018  0.1325
19134TIP3    H178893   3.845   3.828   1.034  0.4007  0.8123  0.1028
19134TIP3    H278894   3.830   3.830   1.185  0.2107 -0.9257  0.1156
19135TIP3   OH278895   2.316   2.861   1.259  0.2543 -0.6129 -0.2670
19135TIP3    H178896   2.378   2.931   1.277  1.3054 -1.6643  0.2651
19135TIP3    H278897   2.353   2.815   1.184  0.0236 -1.1236 -0.0729
19136TIP3   OH278898   2.350   5.164  11.503  0.5364  0.4019 -0.3863
19136TIP3    H178899   2.412   5.127  11.440 -0.2461 -0.7808 -0.4755
19136TIP3    H278900   2.405   5.200  11.573  1.3343 -0.5127 -0.5316
19137TIP3   OH278901   3.327   4.512  12.222 -0.5960 -0.4838 -0.1586
19137TIP3    H178902   3.265   4.573  12.183 -1.1195 -0.9938 -0.1383
19137TIP3    H278903   3.363   4.465  12.147  0.0597  0.0864 -0.2013
19138TIP3   OH278904   5.590   5.848  13.670 -0.3417 -0.6243  0.3807
19138TIP3    H178905   5.610   5.876  13.759  0.7320  0.1383 -0.0903
19138TIP3    H278906   5.654   5.779  13.651  0.1220 -0.0371 -0.1837
19139TIP3   OH278907   5.230   1.342  11.677  0.0502  0.2033 -0.1356
19139TIP3    H178908   5.264   1.383  11.597  1.2403 -0.2313  0.1348
19139TIP3    H278909   5.301   1.353  11.741 -0.5365 -0.2540  0.5967
19140TIP3   OH278910   3.925   0.376  16.657  0.2359 -0.4398 -0.4818
19140TIP3    H178911   3.832   0.390  16.644 -0.0977 -0.4990  1.6166
19140TIP3    H278912   3.942   0.290  16.618 -1.0745 -1.4517  1.0805
19141TIP3   OH278913   3.359   2.233  14.929 -0.2940 -0.0690 -0.4646
19141TIP3    H178914   3.387   2.178  15.002 -2.6113 -0.7346 -0.0449
19141TIP3    H278915   3.434   2.232  14.869  0.9724 -0.9446  1.0705
19142TIP3   OH278916   0.636   3.917  16.897 -0.2532 -0.3543  0.0108
19142TIP3    H178917   0.681   3.832  16.893  0.2633 -0.0770 -0.1603
19142TIP3    H278918   0.617   3.929  16.990  1.0007  0.0169  0.2316
19143TIP3   OH278919   0.176   0.384   2.880 -0.2975 -0.2337 -0.1604
19143TIP3    H178920   0.209   0.320   2.944 -2.5523 -0.6755  0.6000
19143TIP3    H278921   0.116   0.335   2.825  0.6103  0.4629 -1.7898
19144TIP3   OH278922   1.255   5.105  12.975 -0.0225  0.0558  0.4570
19144TIP3    H178923   1.323   5.140  12.918 -0.0505 -0.8315 -0.1337
19144TIP3    H278924   1.253   5.164  13.050 -0.0176  1.2733 -0.4804
19145TIP3   OH278925   4.812   5.078  13.331  0.2412 -0.2119 -0.1888
19145TIP3    H178926   4.821   5.099  13.424  0.1053 -3.1816  0.5461
19145TIP3    H278927   4.890   5.114  13.290  0.6653  0.4619  1.1940
19146TIP3   OH278928   4.261   2.425  14.487 -0.3644  0.0127  0.0173
19146TIP3    H178929   4.280   2.491  14.554  1.8115 -0.0010 -0.5434
19146TIP3    H278930   4.326   2.356  14.503 -1.6428 -1.2875 -0.3473
19147TIP3   OH278931   4.194   0.398   0.366 -0.5589  0.1716  0.3925
19147TIP3    H178932   4.249   0.325   0.339 -1.0888  0.3907 -1.2809
19147TIP3    H278933   4.183   0.385   0.461 -0.8045 -2.0022  0.0839
19148TIP3   OH278934   2.981   6.156  15.829  0.4617  0.1325 -0.2166
19148TIP3    H178935   3.061   6.109  15.807 -0.1154 -0.7629 -0.4664
19148TIP3    H278936   2.912   6.089  15.824 -0.2634  0.8324  0.2313
19149TIP3   OH278937   4.286   6.429  12.981  0.4024 -0.4983 -0.2870
19149TIP3    H178938   4.263   6.338  12.967 -0.2441 -0.0043 -2.5204
19149TIP3    H278939   4.262   6.446  13.073 -0.9969 -2.1079 -0.3370
19150TIP3   OH278940   0.622   0.008   4.255 -0.2715 -0.0789 -0.3687
19150TIP3    H178941   0.601   0.011   4.162  0.4275 -0.3950 -0.5411
19150TIP3    H278942   0.712   0.041   4.260 -0.8104  1.3272  0.3646
19151TIP3   OH278943   6.676   6.337   0.218 -0.1173  0.1138 -0.5026
19151TIP3    H178944   6.640   6.249   0.216 -0.7544  0.3444  0.2837
19151TIP3    H278945   6.729   6.344   0.139 -3.4363  0.4446 -2.7733
19152TIP3   OH278946   5.527   4.107   2.558 -0.1790 -0.1911 -0.2489
19152TIP3    H178947   5.598   4.075   2.502 -0.7868 -1.1060 -0.5119
19152TIP3    H278948   5.449   4.064   2.525 -0.8971  0.9860 -0.0892
19153TIP3   OH278949   0.376   6.131  16.463  0.0893  0.3005 -0.3061
19153TIP3    H178950   0.439   6.196  16.491 -2.1092  2.0874  0.6602
19153TIP3    H278951   0.371   6.069  16.537 -1.2694  1.6730  0.7792
19154TIP3   OH278952   4.778   0.741   0.929  0.2573 -0.2545  0.1585
19154TIP3    H178953   4.734   0.680   0.870 -0.1022 -0.6222  0.8014
19154TIP3    H278954   4.771   0.701   1.016  0.2021  0.5936  0.5588
19155TIP3   OH278955   4.422   6.093  14.313  0.0403 -0.0337  0.6288
19155TIP3    H178956   4.381   6.133  14.389 -0.6448  0.0841  0.2043
19155TIP3    H278957   4.469   6.017  14.348 -0.3703 -0.0505  1.1490
19156TIP3   OH278958   3.118   4.464  13.493 -0.0643  0.5230 -0.2980
19156TIP3    H178959   3.192   4.516  13.525 -0.4075  1.1469 -0.5157
19156TIP3    H278960   3.041   4.505  13.530 -0.1741 -1.5623  1.8779
19157TIP3   OH278961   1.505   3.819   0.191 -0.4193  0.1563  0.3721
19157TIP3    H178962   1.506   3.728   0.221 -0.3202 -0.3392 -1.0827
19157TIP3    H278963   1.597   3.839   0.173 -0.5583  0.2055 -0.2906
19158TIP3   OH278964   4.325   3.418   0.075  0.0143 -0.0909 -0.5688
19158TIP3    H178965   4.359   3.351   0.135  1.1780  1.1221  0.1385
19158TIP3    H278966   4.402   3.468   0.050 -0.8471  0.9353 -1.1725
19159TIP3   OH278967   3.099   3.673   1.782  0.4342  0.5359 -0.0710
19159TIP3    H178968   3.113   3.681   1.876  0.3635 -0.6020  0.0459
19159TIP3    H278969   3.154   3.741   1.743  2.1535 -0.4140  0.6761
19160TIP3   OH278970   3.279   1.258   1.205  0.7424  0.1499  0.2202
19160TIP3    H178971   3.210   1.276   1.269  1.9832  1.8825  1.1345
19160TIP3    H278972   3.333   1.337   1.207 -0.4302  1.2579 -4.6130
19161TIP3   OH278973   3.264   6.564  13.200 -0.5102  0.3522  0.0160
19161TIP3    H178974   3.255   6.514  13.119  1.3832  0.5406 -0.3555
19161TIP3    H278975   3.177   6.566  13.238 -1.6950  1.2991 -2.6432
19162TIP3   OH278976   1.322   4.100   2.417  0.0555 -0.5355 -0.1516
19162TIP3    H178977   1.235   4.122   2.450  0.5395  1.3940 -0.1464
19162TIP3    H278978   1.345   4.019   2.463 -0.3209  0.7780  2.4149
19163TIP3   OH278979   4.648   3.895  11.208 -0.7560  0.1608  0.2644
19163TIP3    H178980   4.615   3.847  11.283 -1.8032  1.4265  0.6313
19163TIP3    H278981   4.574   3.950  11.181 -0.0141  0.5587 -0.9782
19164TIP3   OH278982   1.722   3.538   1.379  0.0991  0.0244  0.8785
19164TIP3    H178983   1.774   3.568   1.305 -0.9845  1.8677  0.8469
19164TIP3    H278984   1.634   3.527   1.344  0.6119 -4.4141  0.5855
19165TIP3   OH278985   6.768   0.761   6.236 -0.2606  0.2142  0.3432
19165TIP3    H178986   6.752   0.688   6.176 -3.1757  2.1942 -1.4156
19165TIP3    H278987   6.795   0.833   6.179  3.2341  0.4130  2.1257
19166TIP3   OH278988   3.025   0.410  15.112  0.2660 -0.1596  0.6537
19166TIP3    H178989   2.971   0.375  15.042  1.0533 -0.0817 -0.0084
19166TIP3    H278990   2.963   0.449  15.174 -0.4342 -0.2541  0.0153
19167TIP3   OH278991   0.035   1.890  15.482  1.0579  0.0440 -0.4780
19167TIP3    H178992   0.005   1.912  15.393  1.7038 -1.7626 -1.1577
19167TIP3    H278993  -0.045   1.890  15.534  0.8224  2.4162 -0.7410
19168TIP3   OH278994   2.045   6.571  16.148 -0.0168  0.2323  0.4437
19168TIP3    H178995   2.049   6.537  16.058  0.5589  1.2887  0.0611
19168TIP3    H278996   2.008   6.499  16.199 -0.2314 -0.4247 -0.6208
19169TIP3   OH278997   6.305   0.106  13.110  0.1849 -0.1774 -0.1102
19169TIP3    H178998   6.333   0.034  13.167  1.2494  0.6246  0.3899
19169TIP3    H278999   6.225   0.073  13.068 -1.8480 -0.0005  3.4194
19170TIP3   OH279000   1.204   2.245  16.563 -0.5236  0.6806 -0.8412
19170TIP3    H179001   1.172   2.168  16.609 -2.0757  1.5035 -0.5080
19170TIP3    H279002   1.276   2.278  16.618  0.3869 -0.7154 -1.1747
19171TIP3   OH279003   4.276   2.407   6.040 -0.1259  0.3082 -0.6539
19171TIP3    H179004   4.183   2.419   6.059 -0.1877 -0.8699 -0.1606
19171TIP3    H279005   4.321   2.446   6.114 -0.2171  1.2203 -1.0771
19172TIP3   OH279006   2.430   2.165  10.675  0.5454 -0.2717  0.1071
19172TIP3    H179007   2.410   2.241  10.619 -0.8638  0.4455  1.5438
19172TIP3    H279008   2.353   2.109  10.667  0.6767 -0.5408  0.7263
19173TIP3   OH279009   5.566   2.279   2.916 -0.1614  0.3809  0.1920
19173TIP3    H179010   5.612   2.204   2.953 -1.6931 -0.2853  0.8168
19173TIP3    H279011   5.485   2.243   2.881 -0.3079  1.5486 -0.7351
19174TIP3   OH279012   3.203   2.100  14.755 -0.5171 -0.2648  0.2346
19174TIP3    H179013   3.202   2.009  14.785  0.9651 -0.0322  1.0183
19174TIP3    H279014   3.245   2.148  14.826  1.4115  0.5681 -1.4313
19175TIP3   OH279015   6.361   3.976   5.300 -0.0921  0.0166  0.4418
19175TIP3    H179016   6.298   4.018   5.359 -0.2909  0.2838  0.0515
19175TIP3    H279017   6.415   3.921   5.356 -2.6010 -2.5794  0.4398
19176TIP3   OH279018   5.460   4.790  14.988  0.0457 -0.3709 -0.0322
19176TIP3    H179019   5.407   4.733  15.044 -0.2913 -1.2856 -1.2543
19176TIP3    H279020   5.398   4.857  14.957  0.6377  1.1963  2.0923
19177TIP3   OH279021   4.112   1.598  14.236 -0.1367 -0.0265  0.4834
19177TIP3    H179022   4.082   1.612  14.325  0.2684 -2.2785  1.0052
19177TIP3    H279023   4.045   1.541  14.197  0.0949  0.2950 -0.3939
19178TIP3   OH279024   2.831   6.584   2.896  0.3031 -0.1209 -0.0492
19178TIP3    H179025   2.803   6.545   2.980  2.0679  0.6712  0.9352
19178TIP3    H279026   2.799   6.674   2.899 -0.1767 -0.2730 -0.5115
19179TIP3   OH279027   4.579   1.304  12.580  0.1761  0.1874  0.0963
19179TIP3    H179028   4.657   1.251  12.565 -0.0230 -0.0818  0.0152
19179TIP3    H279029   4.546   1.275  12.664 -0.8335 -0.9428 -0.6818
19180TIP3   OH279030   1.580   1.421   0.924  0.1269 -0.3279  0.8935
19180TIP3    H179031   1.587   1.325   0.923 -1.3982 -0.4670 -1.7000
19180TIP3    H279032   1.501   1.438   0.974  0.4876 -0.3956  1.4969
19181TIP3   OH279033   0.133   4.682  15.957 -0.0331  0.2627  0.2403
19181TIP3    H179034   0.121   4.694  16.052  0.4095 -0.4694  0.3872
19181TIP3    H279035   0.145   4.588  15.946  2.2023  0.5924 -0.2825
19182TIP3   OH279036   2.900   1.582   4.159 -0.4550 -0.1214  0.0220
19182TIP3    H179037   2.900   1.641   4.235  1.0678 -1.0205  0.7401
19182TIP3    H279038   2.845   1.509   4.185 -1.2376  0.3287 -0.3549
19183TIP3   OH279039   3.180   4.177   3.902  0.4432 -0.0155  0.1674
19183TIP3    H179040   3.249   4.237   3.872  0.6115 -0.4890 -0.3962
19183TIP3    H279041   3.219   4.132   3.977  1.1426 -1.0676 -0.8239
19184TIP3   OH279042   0.129   1.624  17.166  0.0043 -0.5795  0.0318
19184TIP3    H179043   0.074   1.588  17.097  1.0347 -0.7906 -0.6873
19184TIP3    H279044   0.160   1.707  17.132  0.2933 -0.5549  0.3507
19185TIP3   OH279045   2.140   0.503   1.577  0.1206 -0.2214  0.4474
19185TIP3    H179046   2.233   0.498   1.596  0.2716  2.1783  0.4903
19185TIP3    H279047   2.101   0.542   1.655 -0.8132 -0.4809  0.1270
19186TIP3   OH279048   2.107   1.962   0.959  0.6862  0.2096 -0.6058
19186TIP3    H179049   2.157   2.012   1.023 -0.9691  0.1076  0.7944
19186TIP3    H279050   2.143   1.989   0.874  2.1718  1.1350  0.2898
19187TIP3   OH279051   6.712   2.616  11.364 -0.4887 -0.0136 -0.3780
19187TIP3    H179052   6.647   2.672  11.407 -0.4231  1.3584 -1.9915
19187TIP3    H279053   6.766   2.677  11.313  1.6469 -1.2081  0.4012
19188TIP3   OH279054   5.272   0.338  11.732  0.1618 -0.2883  0.0531
19188TIP3    H179055   5.230   0.331  11.818  0.7348 -0.9203  0.2937
19188TIP3    H279056   5.202   0.326  11.669 -0.6340  2.2926  0.4097
19189TIP3   OH279057   5.674   6.320   5.011 -0.0462  0.6774 -0.0777
19189TIP3    H179058   5.663   6.415   5.010  1.8483  0.9194 -0.7877
19189TIP3    H279059   5.618   6.290   5.083  0.8868  2.5656  1.4907
19190TIP3   OH279060   0.401   3.157   1.183  0.2002  0.2361  0.3925
19190TIP3    H179061   0.357   3.233   1.220  1.4385  0.2933  1.8074
19190TIP3    H279062   0.471   3.137   1.245  0.7664 -1.2074 -0.6689
19191TIP3   OH279063   0.223   5.981   4.707 -0.8143  0.5314  0.8848
19191TIP3    H179064   0.264   5.932   4.778 -1.0013 -0.6708  0.1890
19191TIP3    H279065   0.168   6.045   4.751  0.4775  1.0130  1.8179
19192TIP3   OH279066   0.658   5.405  16.216  0.5786  0.3542 -0.1307
19192TIP3    H179067   0.598   5.470  16.181  1.2930  0.2722 -1.5542
19192TIP3    H279068   0.711   5.452  16.280 -1.2188  0.3375  1.3952
19193TIP3   OH279069   5.458   3.784  17.092  0.0511 -0.4661  0.2684
19193TIP3    H179070   5.404   3.792  17.013  1.8140  0.0651 -0.8972
19193TIP3    H279071   5.396   3.759  17.160 -1.8068  0.9214 -0.8754
19194TIP3   OH279072   2.236   6.238   3.996  0.2238  0.6319  0.6843
19194TIP3    H179073   2.161   6.271   3.945 -1.4809 -1.6874  1.6059
19194TIP3    H279074   2.288   6.188   3.933 -0.2828  0.2573  0.5618
19195TIP3   OH279075   2.534   4.158  11.114 -0.4583 -0.2406  0.2245
19195TIP3    H179076   2.627   4.137  11.122 -0.7334 -3.0657 -2.7550
19195TIP3    H279077   2.530   4.227  11.048 -0.4717 -0.2197  0.2476
19196TIP3   OH279078   1.982   4.213  15.776 -0.2883  0.6425 -0.5220
19196TIP3    H179079   1.903   4.233  15.826  0.4203  2.0436  0.0833
19196TIP3    H279080   1.992   4.287  15.716 -0.0158 -0.0457 -1.3346
19197TIP3   OH279081   6.349   6.391  11.916 -0.3056 -0.2218  0.3149
19197TIP3    H179082   6.394   6.430  11.991 -1.8113  1.5156  0.3550
19197TIP3    H279083   6.352   6.458  11.849  0.0818 -1.3669 -0.8418
19198TIP3   OH279084   0.996   4.308  13.429 -0.5623  0.1735 -0.0643
19198TIP3    H179085   1.051   4.385  13.446  0.6433 -0.5244 -0.7108
19198TIP3    H279086   1.041   4.237  13.475 -2.1508  0.0068  1.2755
19199TIP3   OH279087   4.082   3.027  11.615 -0.2248  0.9423 -0.2172
19199TIP3    H179088   4.011   2.963  11.610  0.2811  0.3140  0.4379
19199TIP3    H279089   4.081   3.071  11.530 -0.3348 -0.2138 -0.8240
19200TIP3   OH279090   1.714   5.569   3.899  0.6786  0.3171  0.3145
19200TIP3    H179091   1.638   5.621   3.871 -0.3201 -0.6772  1.1299
19200TIP3    H279092   1.781   5.588   3.833 -0.7381  0.1308 -1.2200
19201TIP3   OH279093   3.994   0.483  12.209 -0.6322  0.6625  0.3233
19201TIP3    H179094   3.911   0.530  12.211 -0.6288  0.6308  1.4688
19201TIP3    H279095   3.974   0.398  12.170 -0.8476  1.2021 -0.7583
19202TIP3   OH279096   2.502   3.261   4.503  0.0012 -0.3351  0.1778
19202TIP3    H179097   2.514   3.294   4.414  1.0355 -0.7279  0.1645
19202TIP3    H279098   2.467   3.172   4.492  0.7682 -0.6343  0.1514
19203TIP3   OH279099   3.710   0.511   4.820 -0.2508 -0.1137 -0.5900
19203TIP3    H179100   3.801   0.520   4.847 -0.6121  1.1030  0.2541
19203TIP3    H279101   3.701   0.572   4.746 -1.0632  1.7918  1.0517
19204TIP3   OH279102   4.275   1.586  11.837  0.3931 -0.1963 -0.3670
19204TIP3    H179103   4.333   1.516  11.806  0.3032 -0.1783 -0.5773
19204TIP3    H279104   4.201   1.583  11.777  1.2037  1.2502 -1.4599
19205TIP3   OH279105   3.190   2.350  16.895 -0.6160  0.2427  0.5160
19205TIP3    H179106   3.263   2.412  16.904  0.9410 -1.4349 -0.1019
19205TIP3    H279107   3.229   2.275  16.850 -2.6401 -0.8878  0.6093
19206TIP3   OH279108   2.520   0.465  15.687  0.3391  0.0412 -0.4694
19206TIP3    H179109   2.551   0.400  15.749  2.2400  0.0598 -1.3488
19206TIP3    H279110   2.525   0.421  15.602  1.1346  1.1559 -1.0049
19207TIP3   OH279111   5.244   5.722   6.022  0.0442  0.2694  0.2670
19207TIP3    H179112   5.225   5.775   6.100 -0.5873 -1.4837  1.3275
19207TIP3    H279113   5.158   5.710   5.981  0.0610 -0.6446  0.4998
19208TIP3   OH279114   2.403   0.721   2.682 -0.8070  0.2889  0.2638
19208TIP3    H179115   2.372   0.657   2.745 -1.3787  0.0497 -0.2531
19208TIP3    H279116   2.498   0.708   2.678 -1.2517 -2.6891 -2.1933
19209TIP3   OH279117   0.947   2.111   3.414 -0.0117 -0.2645 -0.7484
19209TIP3    H179118   1.015   2.161   3.368 -1.2866  1.5184 -0.7556
19209TIP3    H279119   0.865   2.143   3.377 -1.0166  0.3304  1.9239
19210TIP3   OH279120   0.308   5.421  14.143 -0.0967  0.1470  0.2518
19210TIP3    H179121   0.300   5.349  14.081  0.3426 -0.3585  0.7723
19210TIP3    H279122   0.318   5.499  14.088  0.0003 -0.2607 -0.3134
19211TIP3   OH279123   6.733   6.385   3.040  0.0127 -0.2937  0.0082
19211TIP3    H179124   6.784   6.353   3.114 -0.8995  1.6243  1.5537
19211TIP3    H279125   6.665   6.319   3.027  0.4381 -0.8576  0.6162
19212TIP3   OH279126   5.778   3.062  16.706 -0.0195 -0.1719 -0.4157
19212TIP3    H179127   5.764   2.972  16.735  0.6947 -0.0736  0.2563
19212TIP3    H279128   5.852   3.056  16.645  0.7833  0.1085  0.5126
19213TIP3   OH279129   1.006   4.769  12.713  0.2323 -0.1494  0.1486
19213TIP3    H179130   1.046   4.762  12.799  1.2509  5.7953  0.3493
19213TIP3    H279131   0.913   4.785  12.731 -0.0306 -1.4375  0.0090
19214TIP3   OH279132   2.058   3.562  15.004 -0.0710  0.0987  0.5348
19214TIP3    H179133   2.141   3.545  15.048  0.2633  0.4900  0.0724
19214TIP3    H279134   2.012   3.622  15.062  0.8036  1.4293 -0.1160
19215TIP3   OH279135   0.982   6.341   5.858  0.2209 -0.0586  0.5916
19215TIP3    H179136   1.012   6.278   5.793 -0.9469  0.5056 -0.5135
19215TIP3    H279137   1.059   6.392   5.880 -0.0981  2.2374 -3.1623
19216TIP3   OH279138   5.653   0.253  13.161  0.1518 -0.0231 -0.5025
19216TIP3    H179139   5.741   0.283  13.183 -0.2676  0.9438 -0.1344
19216TIP3    H279140   5.646   0.264  13.066  0.1124  0.7589 -0.4130
19217TIP3   OH279141   5.450   2.145   5.134 -0.1617 -0.0646  0.1908
19217TIP3    H179142   5.359   2.162   5.111  0.3202  0.4722 -1.4354
19217TIP3    H279143   5.476   2.072   5.077  0.5925  0.1772  0.2106
19218TIP3   OH279144   6.747   5.101  11.788 -0.1676 -0.0150 -0.2417
19218TIP3    H179145   6.730   5.195  11.788 -0.6404 -0.0932  0.4440
19218TIP3    H279146   6.669   5.062  11.747 -0.4158 -0.1726  0.3656
19219TIP3   OH279147   0.440   3.594   3.723  0.5494 -0.1499 -0.2793
19219TIP3    H179148   0.436   3.499   3.711 -1.8733  0.0236 -0.9848
19219TIP3    H279149   0.379   3.629   3.659 -0.6491  1.7359  1.8312
19220TIP3   OH279150   0.154   6.431   5.770  0.1050 -0.2823 -0.0587
19220TIP3    H179151   0.130   6.458   5.681 -1.1678  1.9711  0.9259
19220TIP3    H279152   0.089   6.366   5.793 -0.1267 -0.1883 -0.4340
19221TIP3   OH279153   5.263   4.901   5.148  0.1934  0.1362  0.4549
19221TIP3    H179154   5.354   4.930   5.147  0.4376 -0.5586  1.6118
19221TIP3    H279155   5.238   4.897   5.055  1.4384  0.0297  0.1199
19222TIP3   OH279156   6.774   5.652  12.711 -0.1281  0.1743 -0.2357
19222TIP3    H179157   6.748   5.576  12.659  1.0662 -0.0170 -0.5677
19222TIP3    H279158   6.855   5.682  12.671  0.7254  0.1182  1.4105
19223TIP3   OH279159   2.010   2.761  12.151  0.4136 -0.1395 -0.3234
19223TIP3    H179160   2.069   2.701  12.198 -0.0982  0.6574  1.3484
19223TIP3    H279161   2.063   2.838  12.134 -0.7387  1.5272  3.2236
19224TIP3   OH279162   0.297   0.495  16.162  0.1404  0.0261  0.2084
19224TIP3    H179163   0.238   0.563  16.195 -1.1866 -0.6213 -0.8225
19224TIP3    H279164   0.301   0.431  16.233 -0.7986 -0.1786  0.0796
19225TIP3   OH279165   5.903   1.501  15.214  0.8720 -0.3528  0.3624
19225TIP3    H179166   5.879   1.520  15.305  2.5801  1.0414  0.5369
19225TIP3    H279167   5.985   1.453  15.220  1.0696 -0.1280 -0.4543
19226TIP3   OH279168   1.424   5.922  15.276  0.0984 -0.5313  0.2915
19226TIP3    H179169   1.435   6.016  15.267 -1.9331 -0.3497 -0.6012
19226TIP3    H279170   1.378   5.911  15.360  0.0434 -0.6866  0.2413
19227TIP3   OH279171   6.138   4.145  16.480 -0.4627  0.1919 -0.7524
19227TIP3    H179172   6.138   4.062  16.434 -0.7701 -0.5343  0.5254
19227TIP3    H279173   6.047   4.174  16.478 -0.4620  0.1996 -0.6781
19228TIP3   OH279174   4.730   2.837  16.058  0.5707  0.2108 -0.6143
19228TIP3    H179175   4.758   2.784  16.134  1.5537  4.1549  1.9427
19228TIP3    H279176   4.729   2.927  16.091  0.1254  1.9694 -5.1037
19229TIP3   OH279177   6.098   4.850   2.602  0.1736 -0.2822 -0.7269
19229TIP3    H179178   6.149   4.925   2.633  0.3052 -0.8133  0.3549
19229TIP3    H279179   6.163   4.787   2.571  0.0447  0.2582 -2.1730
19230TIP3   OH279180   1.947   4.338  11.912  0.4825  0.1751 -0.4834
19230TIP3    H179181   1.991   4.401  11.855  1.4057 -0.9795 -1.0610
19230TIP3    H279182   2.011   4.320  11.981 -0.0456  0.3985  0.0700
19231TIP3   OH279183   4.667   1.385  14.338 -0.0589  0.8071 -0.1620
19231TIP3    H179184   4.729   1.455  14.323 -1.7632  2.2024 -0.8730
19231TIP3    H279185   4.586   1.429  14.363 -1.1002 -0.8997 -0.4213
19232TIP3   OH279186   3.269   0.383  11.836 -0.5615  0.4802  0.7601
19232TIP3    H179187   3.321   0.305  11.854 -1.8608 -0.4424  0.6044
19232TIP3    H279188   3.206   0.355  11.769 -1.1776  1.6030  0.8504
19233TIP3   OH279189   0.442   6.308  13.463  0.0954  0.2399 -0.4648
19233TIP3    H179190   0.408   6.394  13.487 -0.0664  0.0004  0.1820
19233TIP3    H279191   0.364   6.255  13.447  0.1424 -0.3346  1.0976
19234TIP3   OH279192   2.704   4.397   5.373  0.0838  0.2763 -0.3729
19234TIP3    H179193   2.661   4.464   5.319 -1.5763  1.0158  1.7703
19234TIP3    H279194   2.699   4.318   5.320 -0.8175  1.1363 -1.6278
19235TIP3   OH279195   4.500   6.646  15.585 -0.1644  0.6272  0.1357
19235TIP3    H179196   4.521   6.552  15.583 -1.1761  0.4016 -2.2256
19235TIP3    H279197   4.559   6.683  15.650  1.2026 -1.4375  0.1170
19236TIP3   OH279198   6.078   5.613   2.813 -0.3608 -0.1203  0.0063
19236TIP3    H179199   6.124   5.531   2.796 -1.5848 -1.0362  0.9824
19236TIP3    H279200   5.986   5.591   2.801 -0.6066  1.4799 -1.1389
19237TIP3   OH279201   2.217   6.494   4.311 -0.4359 -0.3306 -0.3135
19237TIP3    H179202   2.189   6.585   4.306  1.1694  0.1921 -0.1839
19237TIP3    H279203   2.206   6.470   4.402 -2.4048 -0.7869 -0.6623
19238TIP3   OH279204   4.443   1.797   2.255  0.4224  0.3336  0.4144
19238TIP3    H179205   4.442   1.890   2.278 -0.5779  0.5445 -0.3940
19238TIP3    H279206   4.533   1.769   2.268  0.6481  1.3293  1.0213
19239TIP3   OH279207   2.026   0.533   0.382 -0.3863 -0.2519 -1.0130
19239TIP3    H179208   2.021   0.447   0.340  1.5010 -0.2767 -1.2418
19239TIP3    H279209   1.997   0.594   0.314 -0.9063 -0.6231 -1.1287
19240TIP3   OH279210   3.994   6.682   4.228 -0.1487 -0.0016 -0.5462
19240TIP3    H179211   3.962   6.749   4.167  1.7540  0.8201 -0.6766
19240TIP3    H279212   3.953   6.704   4.311  0.1846  1.1245 -0.6717
19241TIP3   OH279213   4.946   2.794   2.115 -0.0954 -0.2933  0.3102
19241TIP3    H179214   4.899   2.776   2.034  0.7204 -0.7714 -0.0622
19241TIP3    H279215   4.940   2.713   2.165  0.3370 -0.3558  0.2613
19242TIP3   OH279216   3.456   2.045  13.658 -0.7121  0.5113 -0.5416
19242TIP3    H179217   3.409   1.966  13.630  0.6276  0.2823 -2.2276
19242TIP3    H279218   3.459   2.100  13.580  1.6275  0.5972 -0.4181
19243TIP3   OH279219   3.799   5.068  13.456  0.0148 -0.2575  0.3588
19243TIP3    H179220   3.822   4.987  13.411 -1.2059  0.1810 -1.1123
19243TIP3    H279221   3.744   5.040  13.530 -2.3249 -0.6596 -1.4537
19244TIP3   OH279222   2.945   5.676   5.468  0.0632 -0.5857  0.3793
19244TIP3    H179223   2.931   5.764   5.433  1.3496 -0.8498 -0.8371
19244TIP3    H279224   3.029   5.649   5.431 -0.2082 -2.2352  0.9488
19245TIP3   OH279225   1.292   1.119   2.898 -0.2052  0.1556  0.2547
19245TIP3    H179226   1.264   1.163   2.818  0.8123 -2.3301 -1.5299
19245TIP3    H279227   1.215   1.069   2.925  0.0739 -0.5949 -0.3216
19246TIP3   OH279228   1.229   3.877  13.311 -0.8167 -0.0888 -0.5280
19246TIP3    H179229   1.176   3.957  13.305  1.1929  1.1555 -2.8937
19246TIP3    H279230   1.249   3.855  13.221  2.7500 -0.4357  0.2696
19247TIP3   OH279231   3.887   5.018  12.903 -0.5314  0.0951  0.5065
19247TIP3    H179232   3.882   4.924  12.919 -0.7818 -0.2015 -1.2137
19247TIP3    H279233   3.935   5.053  12.978  0.0264 -1.4778  0.8959
19248TIP3   OH279234   1.117   2.069  15.634  0.3277 -0.0981  0.0812
19248TIP3    H179235   1.174   2.005  15.592 -1.5960 -0.8859 -1.4334
19248TIP3    H279236   1.029   2.034  15.622 -0.5974  1.7791  1.1021
19249TIP3   OH279237   1.764   1.022   0.747  0.7625 -0.1726  0.0535
19249TIP3    H179238   1.777   1.098   0.691 -1.3745  0.8963  0.9221
19249TIP3    H279239   1.850   1.005   0.786  1.4328  1.2951 -0.7560
19250TIP3   OH279240   1.747   0.209   3.341  0.2967  0.2465  0.1141
19250TIP3    H179241   1.712   0.120   3.331 -0.6754  0.5435  0.8719
19250TIP3    H279242   1.839   0.195   3.362  0.4079 -0.5608 -0.8521
19251TIP3   OH279243   3.462   4.716  11.484 -0.2801 -0.3553 -0.8355
19251TIP3    H179244   3.521   4.791  11.480  0.0181 -0.4453  1.0563
19251TIP3    H279245   3.423   4.723  11.572 -0.4674 -2.2448 -0.7626
19252TIP3   OH279246   1.884   5.334  14.998 -0.3570  0.5708  0.1410
19252TIP3    H179247   1.904   5.257  14.944 -0.7688  1.4498 -1.3034
19252TIP3    H279248   1.970   5.369  15.023 -0.1434  0.6179 -0.6373
19253TIP3   OH279249   2.539   1.346   6.213 -0.0542  0.5921  0.2510
19253TIP3    H179250   2.615   1.394   6.246  0.7015 -0.3849 -0.0446
19253TIP3    H279251   2.488   1.327   6.292  1.0013 -0.4543  0.7012
19254TIP3   OH279252   1.713   2.132   4.130  0.8471  0.3256 -0.2932
19254TIP3    H179253   1.723   2.175   4.215  0.1876  0.6524 -0.3802
19254TIP3    H279254   1.802   2.132   4.093  1.6419 -2.1394  1.4986
19255TIP3   OH279255   3.140   0.337  14.759  0.0991  0.3121  0.1839
19255TIP3    H179256   3.133   0.281  14.682  0.2922 -0.5097  0.7630
19255TIP3    H279257   3.146   0.426  14.724  0.0713 -0.0533 -0.7400
19256TIP3   OH279258   0.693   1.379  13.365  0.0163  0.5032  0.1953
19256TIP3    H179259   0.740   1.448  13.318  0.3295  1.1838  1.4710
19256TIP3    H279260   0.744   1.300  13.350  0.0417  0.6865 -0.7057
19257TIP3   OH279261   3.499   4.536  17.010  0.5513  0.8841  0.6002
19257TIP3    H179262   3.452   4.456  16.987  0.5791  1.0109  0.0949
19257TIP3    H279263   3.491   4.542  17.105 -0.1647  0.7292  0.5508
19258TIP3   OH279264   6.383   1.400  13.189 -0.3163  0.5001 -0.0716
19258TIP3    H179265   6.479   1.406  13.186 -0.2821  0.2858  0.6942
19258TIP3    H279266   6.354   1.468  13.128  0.2429  3.2417  2.6138
19259TIP3   OH279267   2.719   6.471  13.403  0.0890  0.2898  0.3718
19259TIP3    H179268   2.691   6.561  13.392 -2.0586 -0.3437  0.4098
19259TIP3    H279269   2.751   6.466  13.493 -3.5661  0.1098  1.7622
19260TIP3   OH279270   0.904   2.088   0.405 -0.6592 -0.0042 -0.6619
19260TIP3    H179271   0.884   2.002   0.368  1.8220 -0.5881 -0.7551
19260TIP3    H279272   0.996   2.103   0.382 -1.1197  2.7854 -0.8509
19261TIP3   OH279273   3.323   0.178  16.705  0.1925  0.1717 -0.3130
19261TIP3    H179274   3.377   0.182  16.626  1.4637 -3.6142  0.2611
19261TIP3    H279275   3.385   0.193  16.777 -0.3624  0.2683  0.1445
19262TIP3   OH279276   0.708   4.451   5.158  0.4667  0.0086 -0.7066
19262TIP3    H179277   0.742   4.539   5.146 -0.7846  0.6462  0.3431
19262TIP3    H279278   0.753   4.418   5.236 -0.5647  0.4788  0.0923
19263TIP3   OH279279   3.619   6.559  13.960 -0.1926 -0.3694 -0.1247
19263TIP3    H179280   3.544   6.517  14.001  0.3352 -2.6389 -1.4120
19263TIP3    H279281   3.587   6.587  13.874 -0.0102  0.1516 -0.0263
19264TIP3   OH279282   0.009   6.191  14.069 -0.2207 -0.0336 -0.3737
19264TIP3    H179283   0.082   6.192  14.007  0.4201  0.9362  0.3765
19264TIP3    H279284   0.048   6.222  14.151 -1.1869 -0.7428  0.3646
19265TIP3   OH279285   3.859   2.262   4.667  0.1502 -0.1142 -0.0427
19265TIP3    H179286   3.881   2.311   4.746 -0.0679 -0.6093  0.3234
19265TIP3    H279287   3.784   2.310   4.630  2.0940  1.8671 -1.5634
19266TIP3   OH279288   3.873   1.715  12.321 -0.6143  0.8413  0.4953
19266TIP3    H179289   3.959   1.692  12.286 -0.7886 -0.0681  0.6602
19266TIP3    H279290   3.889   1.737  12.413 -0.7298 -0.5248  0.8572
19267TIP3   OH279291   2.000   1.537  13.853 -0.3930 -0.0449  0.3741
19267TIP3    H179292   1.928   1.599  13.844 -0.9084 -0.6240  0.4687
19267TIP3    H279293   2.055   1.553  13.777  0.9721  2.4439  1.8262
19268TIP3   OH279294   2.490   4.811  14.208 -0.2790  0.3261  0.3393
19268TIP3    H179295   2.401   4.840  14.227 -0.9097 -1.7051  0.6402
19268TIP3    H279296   2.547   4.874  14.253 -1.5324  1.9858 -0.3550
19269TIP3   OH279297   3.476   0.134  16.483  0.5810  0.8727  0.3352
19269TIP3    H179298   3.569   0.131  16.461  0.2726 -0.1436 -0.8740
19269TIP3    H279299   3.431   0.122  16.399 -0.6529  3.0431  0.6504
19270TIP3   OH279300   4.660   4.375  12.672  0.3892  0.4771  0.6020
19270TIP3    H179301   4.736   4.318  12.661  1.2528  1.7429 -0.1213
19270TIP3    H279302   4.589   4.331  12.625  0.5914 -0.8644  1.5425
19271TIP3   OH279303   5.250   5.027  13.764  0.1289 -0.0999  0.2131
19271TIP3    H179304   5.263   5.093  13.832  0.2985  0.3900 -0.2992
19271TIP3    H279305   5.331   4.975  13.765  0.2359  0.0681  0.2040
19272TIP3   OH279306   1.296   4.203   3.986  0.1375  0.0094 -0.1205
19272TIP3    H179307   1.382   4.241   4.004 -0.5481  0.8635  1.3836
19272TIP3    H279308   1.306   4.111   4.011  0.7373  0.0115 -0.3384
19273TIP3   OH279309   4.764   3.800  12.785 -0.2347 -0.0731 -0.0427
19273TIP3    H179310   4.671   3.777  12.778 -0.6547  1.4944  0.2096
19273TIP3    H279311   4.808   3.716  12.797 -1.6701 -0.8006  0.3189
19274TIP3   OH279312   3.158   1.055   2.978  0.2963  0.5979 -0.1458
19274TIP3    H179313   3.112   0.972   2.969  0.9487  0.1469  0.6988
19274TIP3    H279314   3.100   1.108   3.033  2.0316 -0.9350  3.2797
19275TIP3   OH279315   3.289   2.310   2.113 -0.1133  0.3573 -0.2874
19275TIP3    H179316   3.200   2.342   2.102 -0.1379  0.4855  0.2642
19275TIP3    H279317   3.293   2.278   2.204  0.7454  1.4853  0.0886
19276TIP3   OH279318   5.692   4.244  14.873  0.1025 -0.5156 -0.4490
19276TIP3    H179319   5.627   4.313  14.862  0.6485 -0.0824 -0.9735
19276TIP3    H279320   5.661   4.173  14.816 -0.5091 -0.7512  0.1638
19277TIP3   OH279321   6.132   2.781  15.365  0.2195  0.3590 -0.0461
19277TIP3    H179322   6.054   2.734  15.394 -0.0644  1.8791  1.7837
19277TIP3    H279323   6.201   2.751  15.424  0.3221  1.2678  0.2979
19278TIP3   OH279324   0.813   1.746   0.940 -0.2928 -0.4839  0.0844
19278TIP3    H179325   0.728   1.787   0.955 -0.1792 -0.6012  1.1601
19278TIP3    H279326   0.819   1.679   1.009  0.6809 -0.4511  0.0343
19279TIP3   OH279327   4.657   0.871  11.438 -0.1517  0.1035  0.1975
19279TIP3    H179328   4.701   0.909  11.362  0.0058 -0.0229  0.2249
19279TIP3    H279329   4.697   0.912  11.513  0.0443 -0.1409  0.2278
19280TIP3   OH279330   5.315   3.082  13.847  0.6558 -0.7037 -0.4486
19280TIP3    H179331   5.326   3.037  13.763  1.4205  2.7225 -2.2917
19280TIP3    H279332   5.393   3.137  13.855  0.4715 -0.8058  2.4281
19281TIP3   OH279333   3.226   0.030  16.951  0.6224  0.1937 -0.8160
19281TIP3    H179334   3.260   0.078  16.875 -0.9842  1.9095 -0.4898
19281TIP3    H279335   3.198   0.099  17.012  0.8777 -1.1692  0.8778
19282TIP3   OH279336   6.815   3.670   3.048 -0.1376 -0.2124  0.0391
19282TIP3    H179337   6.898   3.626   3.064 -0.2355 -0.0863  0.9227
19282TIP3    H279338   6.824   3.756   3.090 -1.2815 -0.8049  1.5630
19283TIP3   OH279339   5.358   0.500  14.830 -0.0657  0.1965 -0.4366
19283TIP3    H179340   5.294   0.570  14.845 -0.2171 -0.0135 -0.1130
19283TIP3    H279341   5.413   0.534  14.760 -0.2908  0.5420 -0.4495
19284TIP3   OH279342   6.542   5.933   3.533 -0.4569 -0.1719 -0.3561
19284TIP3    H179343   6.559   5.909   3.624 -1.0053 -0.3421 -0.2934
19284TIP3    H279344   6.597   6.009   3.517  1.8894 -1.8836 -0.7643
19285TIP3   OH279345   3.923   0.947   4.090 -0.0991  0.4215  0.1765
19285TIP3    H179346   3.975   0.916   4.016 -2.3412  1.0008 -1.6723
19285TIP3    H279347   3.940   0.882   4.159  0.5280 -1.1870 -1.4463
19286TIP3   OH279348   0.059   2.586   6.509  0.0930  0.5172  0.2523
19286TIP3    H179349   0.090   2.518   6.569  0.9646  0.4684 -0.2457
19286TIP3    H279350   0.130   2.650   6.508 -0.4031  1.0627  0.1359
19287TIP3   OH279351   6.748   1.776  11.481 -0.1199  0.3715 -0.7364
19287TIP3    H179352   6.663   1.798  11.442 -0.5017 -1.1778 -0.8125
19287TIP3    H279353   6.758   1.682  11.465 -0.1708 -0.2789  2.6337
19288TIP3   OH279354   2.207   6.051   5.203  0.1188  0.3497  0.2384
19288TIP3    H179355   2.153   6.015   5.132  0.7181 -3.1604  1.4491
19288TIP3    H279356   2.151   6.117   5.244 -0.9211  1.1118 -2.3120
19289TIP3   OH279357   0.086   3.968  16.970 -0.1783 -0.3162 -0.2601
19289TIP3    H179358   0.156   4.001  16.915  0.2133  0.8958  0.9233
19289TIP3    H279359   0.070   4.038  17.033 -0.2572 -1.8487  1.4786
19290TIP3   OH279360   2.260   4.703   1.041  0.2213  0.6662 -0.2402
19290TIP3    H179361   2.225   4.630   0.990  1.3061  0.6238 -0.9661
19290TIP3    H279362   2.313   4.752   0.978  0.5846  1.3211  0.5640
19291TIP3   OH279363   5.484   5.623  16.660  0.2241 -0.0390  0.3295
19291TIP3    H179364   5.463   5.684  16.730  2.2416  0.1302  0.8124
19291TIP3    H279365   5.574   5.595  16.678  0.3371 -0.9366 -1.4970
19292TIP3   OH279366   4.235   3.362   3.066 -0.0911  0.0052  0.4740
19292TIP3    H179367   4.305   3.403   3.014 -0.9883 -2.1524 -2.5724
19292TIP3    H279368   4.278   3.287   3.109  0.2254  0.7056  1.4000
19293TIP3   OH279369   0.015   1.532  11.359 -0.2099 -0.6839  0.0752
19293TIP3    H179370  -0.018   1.540  11.269  0.5115 -0.0615 -0.1351
19293TIP3    H279371   0.087   1.469  11.352  0.1259 -0.3070  0.1460
19294TIP3   OH279372   4.353   1.400  16.798 -0.0089  0.2877 -0.3215
19294TIP3    H179373   4.408   1.341  16.747  0.6772  0.1819  0.5208
19294TIP3    H279374   4.292   1.438  16.735  0.7240  0.0375 -1.1840
19295TIP3   OH279375   0.436   3.147  13.632  0.1941  0.7875  0.4433
19295TIP3    H179376   0.524   3.142  13.595 -0.3390  0.3681 -0.8049
19295TIP3    H279377   0.379   3.163  13.556 -0.8379  0.7474  1.1960
19296TIP3   OH279378   0.199   5.882  12.201 -0.0151  0.2050  0.4669
19296TIP3    H179379   0.123   5.861  12.146  0.0067 -0.4233  0.6644
19296TIP3    H279380   0.170   5.956  12.255 -1.0850 -1.0875  1.7228
19297TIP3   OH279381   5.562   2.906   2.281 -0.5319  0.1920  0.5686
19297TIP3    H179382   5.568   2.826   2.333  0.4657  1.0314  1.7593
19297TIP3    H279383   5.632   2.962   2.314  0.4543  0.5562 -1.9998
19298TIP3   OH279384   6.257   2.830   1.375 -0.1975  0.4393 -1.1427
19298TIP3    H179385   6.272   2.774   1.451 -0.1561  1.7012 -0.2132
19298TIP3    H279386   6.207   2.775   1.314 -0.2671 -0.5575 -0.1935
19299TIP3   OH279387   5.685   0.682  12.790 -0.1261  0.3293  0.6128
19299TIP3    H179388   5.640   0.641  12.864 -2.3520  0.8068 -0.4098
19299TIP3    H279389   5.618   0.736  12.749  0.6294 -1.0850 -2.6308
19300TIP3   OH279390   1.296   3.748  12.001  0.8618 -0.7931  0.0042
19300TIP3    H179391   1.246   3.826  12.027 -2.6792 -1.3222 -4.6544
19300TIP3    H279392   1.366   3.782  11.945  2.2662 -0.6345  1.7802
19301TIP3   OH279393   5.879   3.807   3.412  0.4314 -0.1341 -0.2514
19301TIP3    H179394   5.902   3.886   3.461 -0.8987  1.1114 -1.5992
19301TIP3    H279395   5.904   3.735   3.470 -1.5484  1.2785  2.4542
19302TIP3   OH279396   1.946   5.173  12.539  0.0729  0.3497 -0.1732
19302TIP3    H179397   2.040   5.183  12.556  0.6805 -3.2165 -1.1146
19302TIP3    H279398   1.938   5.185  12.444 -0.3398  0.2169 -0.1538
19303TIP3   OH279399   4.350   3.411   4.127  0.1090  0.1225  0.1333
19303TIP3    H179400   4.321   3.483   4.072 -0.2835 -0.3558 -0.2928
19303TIP3    H279401   4.356   3.336   4.067 -1.5962 -0.7319  0.9801
19304TIP3   OH279402   0.691   2.241  15.104 -0.3911  0.2622  0.1519
19304TIP3    H179403   0.618   2.256  15.164  0.1263 -1.2704  1.1924
19304TIP3    H279404   0.759   2.302  15.132 -0.5183  0.2430  0.4962
19305TIP3   OH279405   6.374   4.619   2.563  0.1217  0.1304 -0.4971
19305TIP3    H179406   6.305   4.606   2.498  0.7277 -0.2225 -1.0744
19305TIP3    H279407   6.421   4.536   2.564 -1.2295 -0.6891  1.9960
19306TIP3   OH279408   1.547   2.611  14.201  0.1346 -0.0813 -0.0035
19306TIP3    H179409   1.600   2.673  14.151 -0.3526  0.5950  0.3170
19306TIP3    H279410   1.611   2.553  14.243  0.5823  0.0747 -0.4614
19307TIP3   OH279411   1.494   1.674   3.447  0.1743 -0.1686 -0.1007
19307TIP3    H179412   1.572   1.683   3.392 -1.1041 -0.5412 -2.0025
19307TIP3    H279413   1.499   1.585   3.481  1.0018  0.0838  0.4595
19308TIP3   OH279414   0.425   6.265   4.182 -0.3484 -0.0391  0.5557
19308TIP3    H179415   0.475   6.275   4.101  0.8330 -1.6805  1.0497
19308TIP3    H279416   0.337   6.295   4.160  0.2797  0.7296 -0.9785
19309TIP3   OH279417   1.634   2.006  14.694  0.0150  0.4675  0.5043
19309TIP3    H179418   1.673   1.932  14.648  2.4175  0.9614  1.6311
19309TIP3    H279419   1.655   1.991  14.786 -0.0775  2.1742  0.8313
19310TIP3   OH279420   5.593   4.459   1.851 -0.1675 -0.6477 -0.4427
19310TIP3    H179421   5.500   4.439   1.842 -0.5038  0.6811 -0.0068
19310TIP3    H279422   5.637   4.375   1.836 -1.3705 -1.0801 -1.6945
19311TIP3   OH279423   0.930   2.395  13.474  0.5952 -0.0386  0.4957
19311TIP3    H179424   0.982   2.412  13.395  1.3184 -0.9582  0.7610
19311TIP3    H279425   0.955   2.464  13.535 -0.2180  0.8756 -0.1916
19312TIP3   OH279426   6.602   1.261   0.359 -0.0104  0.2895  0.9045
19312TIP3    H179427   6.541   1.192   0.385 -1.1060  0.8352 -0.1966
19312TIP3    H279428   6.676   1.215   0.321 -0.4020 -0.3037  0.8588
19313TIP3   OH279429   1.066   1.211  10.771 -0.4936 -0.2271 -0.1095
19313TIP3    H179430   1.029   1.294  10.801 -0.9514 -0.6105  0.3950
19313TIP3    H279431   0.999   1.146  10.791 -0.4291 -0.6233 -1.1388
19314TIP3   OH279432   5.163   0.789  15.738  1.2908  0.2411 -0.4496
19314TIP3    H179433   5.244   0.809  15.784  0.7467  0.4417  0.4429
19314TIP3    H279434   5.186   0.792  15.645  2.4289 -0.2915 -0.1885
19315TIP3   OH279435   5.971   4.039  11.943 -0.0086  0.2270  0.2394
19315TIP3    H179436   6.002   4.062  12.031 -0.3907  1.0729  0.1595
19315TIP3    H279437   6.035   4.079  11.884  0.6611 -0.9704  0.1449
19316TIP3   OH279438   2.344   3.266   1.899 -0.1032 -0.0512  0.4341
19316TIP3    H179439   2.409   3.326   1.862 -0.8484  0.7612  0.4112
19316TIP3    H279440   2.385   3.233   1.979  0.7699 -0.3862 -0.1370
19317TIP3   OH279441   4.503   1.300  14.019  0.0375  0.8804 -0.9505
19317TIP3    H179442   4.469   1.387  14.041 -0.3013  1.1548 -2.5274
19317TIP3    H279443   4.519   1.303  13.925  1.1982 -0.3707 -0.8191
19318TIP3   OH279444   6.390   5.529   4.727 -0.0965  1.1719 -0.5304
19318TIP3    H179445   6.421   5.451   4.773 -1.8760  0.7938  0.0678
19318TIP3    H279446   6.386   5.502   4.635 -0.7620  0.5153 -0.3175
19319TIP3   OH279447   3.298   1.518   0.578 -0.3168  0.2238 -0.0738
19319TIP3    H179448   3.254   1.543   0.660 -3.2648 -0.2094 -1.4400
19319TIP3    H279449   3.274   1.587   0.516  0.3278 -0.4262 -1.0615
19320TIP3   OH279450   1.557   1.047   0.475 -0.6996  0.3038 -0.2686
19320TIP3    H179451   1.651   1.064   0.467 -0.8872  0.8965 -1.2350
19320TIP3    H279452   1.522   1.125   0.517 -0.7101 -0.0978  0.4935
19321TIP3   OH279453   3.532   2.533   0.105  0.3136 -0.0796  0.1120
19321TIP3    H179454   3.491   2.620   0.105 -1.2082 -0.6857  4.2183
19321TIP3    H279455   3.607   2.543   0.163 -0.2099 -1.6701  1.0624
19322TIP3   OH279456   5.147   6.712   3.203  0.3765 -0.8066  0.1394
19322TIP3    H179457   5.125   6.644   3.139  0.9604  0.9791 -2.0062
19322TIP3    H279458   5.093   6.787   3.178  2.1835  0.6180  0.4215
19323TIP3   OH279459   4.895   6.524   2.661 -0.5679  0.0661  0.1367
19323TIP3    H179460   4.963   6.507   2.595  1.2152  3.2849  1.0417
19323TIP3    H279461   4.863   6.612   2.640 -0.8959  0.5958  2.7560
19324TIP3   OH279462   1.953   4.804   6.600  0.1247 -0.1980  0.5356
19324TIP3    H179463   2.005   4.733   6.563 -0.6477 -0.6881  0.3874
19324TIP3    H279464   2.010   4.843   6.666  0.2266 -1.5004  1.2203
19325TIP3   OH279465   6.436   2.101   3.466 -0.5116 -0.1272 -0.1780
19325TIP3    H179466   6.464   2.143   3.547 -2.1257  0.2997  0.1751
19325TIP3    H279467   6.341   2.114   3.463 -0.3383  0.9583 -2.7514
19326TIP3   OH279468   2.241   6.247   4.982  0.4968  0.3790 -0.5968
19326TIP3    H179469   2.292   6.178   5.025  0.0762 -0.6794 -1.7364
19326TIP3    H279470   2.225   6.212   4.894 -0.9922  1.3164 -0.7032
19327TIP3   OH279471   2.646   2.314   3.001  0.0552 -0.1723 -0.1988
19327TIP3    H179472   2.660   2.339   2.909 -1.1613  0.8802 -0.0973
19327TIP3    H279473   2.552   2.321   3.014  0.0731 -1.6200  0.7678
19328TIP3   OH279474   5.260   0.549  16.360 -0.1408 -0.5952 -0.1009
19328TIP3    H179475   5.175   0.547  16.405  0.2642  0.7567  0.7517
19328TIP3    H279476   5.324   0.557  16.431  0.5763  0.4321 -0.8459
19329TIP3   OH279477   4.228   5.219   3.725 -0.3921 -0.1375 -1.0579
19329TIP3    H179478   4.269   5.275   3.791 -3.5331  0.2144  0.6966
19329TIP3    H279479   4.176   5.280   3.672 -0.1434 -0.8098 -2.0918
19330TIP3   OH279480   0.994   6.418  16.742  0.1115 -0.4802  0.5265
19330TIP3    H179481   1.006   6.365  16.663  0.2828 -1.9607  1.5283
19330TIP3    H279482   1.022   6.506  16.716 -0.4960 -0.7957 -1.2572
19331TIP3   OH279483   6.807   0.061   2.140  0.5857 -0.2795 -0.2957
19331TIP3    H179484   6.888   0.014   2.161  0.2044 -0.9757 -0.3794
19331TIP3    H279485   6.782   0.104   2.222 -0.0030 -1.6462  0.2588
19332TIP3   OH279486   3.189   1.699  14.109  0.9907  0.0571  0.1227
19332TIP3    H179487   3.183   1.787  14.073 -0.9217 -0.2809 -0.4471
19332TIP3    H279488   3.099   1.677  14.134  1.9621 -0.4519  3.3663
19333TIP3   OH279489   3.105   0.245   6.209 -0.0256  0.2653 -0.0061
19333TIP3    H179490   3.072   0.194   6.135  0.3018 -0.3714  0.2863
19333TIP3    H279491   3.047   0.223   6.282 -1.5021  2.3251 -0.5405
19334TIP3   OH279492   3.063   5.589   3.428  0.6999  0.0699 -0.0536
19334TIP3    H179493   3.142   5.607   3.478 -0.1225 -0.5257  1.4971
19334TIP3    H279494   2.992   5.598   3.491 -0.2570 -2.1470 -0.7571
19335TIP3   OH279495   2.526   6.363  14.028  0.0893  0.2147  0.2631
19335TIP3    H179496   2.442   6.355  13.981  0.5019  1.0266 -0.6374
19335TIP3    H279497   2.528   6.454  14.058  0.8863  0.3409 -0.1710
19336TIP3   OH279498   3.263   6.454  12.187 -0.6881 -0.0315 -0.5461
19336TIP3    H179499   3.220   6.494  12.263  0.5000  3.7739 -1.7229
19336TIP3    H279500   3.355   6.450  12.212 -0.8739 -2.8661 -0.1868
19337TIP3   OH279501   5.173   3.150   6.140 -0.2993  0.3798  0.0613
19337TIP3    H179502   5.137   3.163   6.228 -0.1997  1.3464 -0.0315
19337TIP3    H279503   5.194   3.239   6.110 -1.4862  0.1726 -1.4279
19338TIP3   OH279504   4.673   6.329   3.602 -0.2503  0.3628 -0.3464
19338TIP3    H179505   4.633   6.292   3.523 -0.0696  1.2702 -0.8710
19338TIP3    H279506   4.764   6.347   3.578 -0.0882  0.2828  0.1884
19339TIP3   OH279507   6.646   0.497   5.334 -1.4219  0.1040  0.2953
19339TIP3    H179508   6.701   0.560   5.379 -1.2250  0.1926 -0.0653
19339TIP3    H279509   6.672   0.504   5.242 -0.2419 -1.6805  0.4803
19340TIP3   OH279510   1.078   1.981  10.843  0.4696 -0.4573 -0.6728
19340TIP3    H179511   0.988   2.012  10.836  0.2396 -1.1146 -0.6729
19340TIP3    H279512   1.070   1.888  10.863  1.1162  0.2019  3.1268
19341TIP3   OH279513   0.256   5.163   2.436 -0.3214  0.2300 -0.2923
19341TIP3    H179514   0.191   5.230   2.457 -0.1839  0.4096 -0.4325
19341TIP3    H279515   0.329   5.182   2.494 -0.1016  0.4805 -0.6484
19342TIP3   OH279516   1.355   6.627   4.946  0.0592  0.5079  0.0686
19342TIP3    H179517   1.356   6.635   5.041 -0.4992  1.6671 -0.0115
19342TIP3    H279518   1.307   6.546   4.929  0.7871 -0.0875  0.7786
19343TIP3   OH279519   5.494   1.472   2.445 -0.0137 -0.0946  0.0260
19343TIP3    H179520   5.554   1.397   2.444  1.5535  1.1259  0.9164
19343TIP3    H279521   5.465   1.479   2.535  1.0064  1.2633  0.2644
19344TIP3   OH279522   4.746   0.423   0.024  0.4822  0.4800  0.3415
19344TIP3    H179523   4.693   0.464  -0.045  0.5318  2.0811  1.2314
19344TIP3    H279524   4.719   0.332   0.025 -1.2899  0.9884 -0.1238
19345TIP3   OH279525   0.326   6.624  12.494  0.2724  0.4694  0.0352
19345TIP3    H179526   0.234   6.605  12.475 -1.0631  3.2328  3.3131
19345TIP3    H279527   0.374   6.547  12.461 -3.4206 -2.1027  0.3754
19346TIP3   OH279528   1.143   3.089  14.795 -0.2924 -0.5220 -0.0183
19346TIP3    H179529   1.189   3.163  14.755 -0.5995 -0.4870 -0.3095
19346TIP3    H279530   1.213   3.033  14.831 -0.0966  0.3038  0.9014
19347TIP3   OH279531   4.920   2.537   1.125  0.4383  0.2515 -0.6190
19347TIP3    H179532   5.004   2.493   1.135  0.2168 -0.8982 -3.4201
19347TIP3    H279533   4.907   2.544   1.030 -2.5187  0.5744 -0.2483
19348TIP3   OH279534   2.240   1.719  15.641 -0.4360 -0.6952 -0.1482
19348TIP3    H179535   2.222   1.691  15.731 -0.4972 -0.9241 -0.2314
19348TIP3    H279536   2.207   1.809  15.638  0.1409 -0.4648  0.2403
19349TIP3   OH279537   4.181   3.839  15.734  0.1546  0.2600  0.5051
19349TIP3    H179538   4.273   3.847  15.762 -0.0647 -0.1383  1.3557
19349TIP3    H279539   4.161   3.746  15.745  0.6246 -0.3166 -2.8037
19350TIP3   OH279540   0.107   4.678  14.054 -0.0779  0.0240  0.4776
19350TIP3    H179541   0.153   4.633  13.983 -0.0652 -0.0164  0.5105
19350TIP3    H279542   0.034   4.722  14.011  2.9466  4.4442 -0.4212
19351TIP3   OH279543   4.946   6.274   0.184  0.5300 -0.0140  0.3263
19351TIP3    H179544   5.040   6.273   0.170  0.4143  1.2823 -0.7263
19351TIP3    H279545   4.912   6.208   0.124  0.9460 -2.2467  2.4741
19352TIP3   OH279546   2.822   1.283  16.081 -0.1863 -0.3840 -0.3860
19352TIP3    H179547   2.847   1.345  16.012 -0.1279 -0.3731 -0.3522
19352TIP3    H279548   2.884   1.299  16.152 -0.2801 -0.3584 -0.3091
19353TIP3   OH279549   1.682   1.687   0.694 -0.2179 -0.1806 -0.2500
19353TIP3    H179550   1.768   1.659   0.726 -0.1818 -0.8507 -0.9168
19353TIP3    H279551   1.622   1.618   0.725 -0.1015 -1.1112 -2.0504
19354TIP3   OH279552   1.258   5.918   0.009  0.9732  0.4232  0.4596
19354TIP3    H179553   1.176   5.965   0.024  1.4862  1.5154 -0.0709
19354TIP3    H279554   1.257   5.846   0.072 -2.3347 -2.1303 -2.2368
19355TIP3   OH279555   0.740   4.985   5.318 -0.1467  0.3522 -0.3661
19355TIP3    H179556   0.828   4.993   5.282 -0.2065  2.2269 -0.1436
19355TIP3    H279557   0.687   4.952   5.246  0.3281  1.1640 -1.0878
19356TIP3   OH279558   0.287   0.978  13.853  0.1000 -0.4276 -0.1646
19356TIP3    H179559   0.219   1.044  13.841 -1.1540 -1.7620 -0.7015
19356TIP3    H279560   0.331   0.972  13.768  0.7743  0.3158  0.1330
19357TIP3   OH279561   4.658   0.234  12.218 -0.4892  0.1919  0.3015
19357TIP3    H179562   4.703   0.258  12.299 -0.7219  0.8353  0.2409
19357TIP3    H279563   4.616   0.315  12.189  0.2437  0.1619 -0.8816
19358TIP3   OH279564   0.056   3.563   6.565 -0.5530  0.3156  0.0384
19358TIP3    H179565  -0.010   3.613   6.612 -0.7306 -0.2829  0.4265
19358TIP3    H279566   0.062   3.480   6.612  0.1226  0.1767 -0.2848
19359TIP3   OH279567   2.641   4.193   0.162 -0.1839  0.4500  0.0542
19359TIP3    H179568   2.715   4.236   0.205 -0.1567 -0.4540  0.9206
19359TIP3    H279569   2.674   4.106   0.140 -0.9912  0.0396  0.4502
19360TIP3   OH279570   6.104   2.779   3.849  0.3105  0.4001 -0.2141
19360TIP3    H179571   6.178   2.828   3.885  0.0255  1.6491 -1.3247
19360TIP3    H279572   6.039   2.780   3.919  0.5559  1.0524  0.0098
19361TIP3   OH279573   3.404   6.152  12.672  0.0949  0.1241 -0.2925
19361TIP3    H179574   3.342   6.186  12.608  1.0095  3.4769  0.5171
19361TIP3    H279575   3.357   6.154  12.755 -0.1965 -1.6998 -0.3825
19362TIP3   OH279576   3.515   6.188   2.367 -0.8021 -0.2250  0.1000
19362TIP3    H179577   3.522   6.283   2.379 -0.8209 -0.3068  0.8249
19362TIP3    H279578   3.574   6.168   2.295  1.3241 -0.0080  1.7074
19363TIP3   OH279579   5.450   4.536  14.529  0.1182 -0.2290 -0.3404
19363TIP3    H179580   5.396   4.469  14.570 -0.8620  0.6590 -0.1459
19363TIP3    H279581   5.413   4.619  14.559  0.7059  0.4159 -1.3348
19364TIP3   OH279582   1.977   6.167  11.165  0.6372 -0.6122  0.1862
19364TIP3    H179583   1.976   6.181  11.071  4.0918 -1.4177 -0.0040
19364TIP3    H279584   1.984   6.073  11.176  1.0933 -0.4625  1.2392
19365TIP3   OH279585   2.774   0.762  12.649 -0.1448 -0.3245 -0.1029
19365TIP3    H179586   2.712   0.739  12.717 -0.0596  0.6268  0.2981
19365TIP3    H279587   2.859   0.765  12.693  0.0973 -0.9363 -0.5078
19366TIP3   OH279588   1.105   3.987  14.857 -0.0088  0.5104  0.2863
19366TIP3    H179589   1.127   4.062  14.911 -1.0316  1.5455 -0.7008
19366TIP3    H279590   1.122   4.016  14.767 -1.1779 -0.1513 -0.1640
19367TIP3   OH279591   5.920   4.941   6.383 -0.1315  0.1234  0.3144
19367TIP3    H179592   5.905   4.941   6.477 -1.4459 -1.1208  0.1276
19367TIP3    H279593   6.015   4.933   6.374  0.2125  2.5040  1.5199
19368TIP3   OH279594   5.858   1.305   5.459  0.4805  0.2356  0.2221
19368TIP3    H179595   5.924   1.283   5.392 -0.3232  2.7116 -1.4611
19368TIP3    H279596   5.906   1.357   5.523  1.0255 -1.2858  1.0694
19369TIP3   OH279597   1.066   5.468  13.758  0.6315 -0.7326 -0.1491
19369TIP3    H179598   1.121   5.398  13.724  0.8342 -0.7030  0.1114
19369TIP3    H279599   1.082   5.467  13.853  1.6229  0.4846 -0.2834
19370TIP3   OH279600   6.385   4.303   1.870  0.3017  0.7817  0.4286
19370TIP3    H179601   6.479   4.292   1.859  0.2259  0.6865 -0.1368
19370TIP3    H279602   6.371   4.297   1.964  0.4176 -2.5920  0.2672
19371TIP3   OH279603   1.770   5.629   6.002 -0.1141 -0.2948  0.1634
19371TIP3    H179604   1.745   5.721   6.001  0.5712 -0.0912  0.8895
19371TIP3    H279605   1.787   5.610   6.094  0.3772 -0.9730 -0.0597
19372TIP3   OH279606   3.591   4.064  15.137 -0.4133 -0.0461 -0.0024
19372TIP3    H179607   3.658   4.115  15.182 -1.5336  0.6727  0.8944
19372TIP3    H279608   3.623   3.974  15.142  1.5379  0.5297 -1.5260
19373TIP3   OH279609   2.745   5.385  13.321  0.6109 -0.0725 -0.1776
19373TIP3    H179610   2.770   5.331  13.395 -0.1067 -0.4724 -0.2209
19373TIP3    H279611   2.822   5.440  13.303  1.9392 -2.1854 -1.1609
19374TIP3   OH279612   4.731   3.978   3.073 -0.4437 -0.4689  0.1846
19374TIP3    H179613   4.698   3.940   2.992 -0.8590  0.6376 -0.1704
19374TIP3    H279614   4.711   4.072   3.067 -0.4444 -0.3616  1.5459
19375TIP3   OH279615   1.283   3.499  10.644  0.1628  0.8017 -0.2423
19375TIP3    H179616   1.195   3.505  10.604  0.8020  1.7943 -1.5451
19375TIP3    H279617   1.273   3.435  10.714 -1.2489 -0.2653 -1.3747
19376TIP3   OH279618   2.091   6.708  14.576  0.2308  0.1882 -0.2239
19376TIP3    H179619   2.154   6.655  14.528 -0.5104  0.4654 -1.5201
19376TIP3    H279620   2.011   6.655  14.578  0.1508  0.3289  0.3945
19377TIP3   OH279621   2.919   6.744  11.878 -0.2642 -0.1983  0.2370
19377TIP3    H179622   2.866   6.709  11.950 -0.2694 -2.6474 -0.9061
19377TIP3    H279623   2.866   6.813  11.840  0.5605  2.5718  3.8024
19378TIP3   OH279624   2.532   1.505  15.855  0.4016  0.1080 -0.3086
19378TIP3    H179625   2.534   1.456  15.773 -1.0147 -2.5709  1.1732
19378TIP3    H279626   2.535   1.437  15.923  0.0149  2.1963  1.8502
19379TIP3   OH279627   3.486   6.031   5.663 -0.4144  0.0791 -0.0208
19379TIP3    H179628   3.501   5.975   5.588  1.3267  0.5715 -0.0573
19379TIP3    H279629   3.449   6.111   5.626  1.3679  0.7094 -0.4925
19380TIP3   OH279630   4.830   5.144   2.879 -0.2682 -0.0612  0.0393
19380TIP3    H179631   4.786   5.124   2.962 -1.4567 -0.0885 -0.5800
19380TIP3    H279632   4.878   5.064   2.858 -0.0254 -0.0813  0.6574
19381TIP3   OH279633   1.583   3.383  11.892  0.4608 -0.6846  0.5601
19381TIP3    H179634   1.602   3.460  11.947 -1.8627  2.0250 -2.2887
19381TIP3    H279635   1.497   3.353  11.921 -0.7743  0.7574 -1.5476
19382TIP3   OH279636   6.567   4.303  13.384  0.1565  0.3819 -0.0242
19382TIP3    H179637   6.484   4.297  13.338 -0.3591  0.0271  0.9544
19382TIP3    H279638   6.631   4.323  13.315 -0.5105 -0.7283 -0.9829
19383TIP3   OH279639   3.370   5.040   2.715  0.9270 -0.0719  0.5653
19383TIP3    H179640   3.431   5.113   2.725  1.3917 -0.2198 -1.1677
19383TIP3    H279641   3.284   5.081   2.712  1.0580  0.2645  1.3085
19384TIP3   OH279642   4.148   2.780  13.210 -0.6970  0.3337 -0.2411
19384TIP3    H179643   4.179   2.786  13.300 -0.4607  0.6872 -0.3427
19384TIP3    H279644   4.163   2.868  13.174  0.4450 -0.1681 -1.0202
19385TIP3   OH279645   4.792   1.541   4.889  0.4781 -0.4254  0.1612
19385TIP3    H179646   4.713   1.522   4.840 -0.4284  1.7260  0.7544
19385TIP3    H279647   4.836   1.456   4.897 -1.7452 -1.6390 -0.1649
19386TIP3   OH279648   1.356   2.425   0.361 -0.8376  0.1179  0.1206
19386TIP3    H179649   1.410   2.450   0.287  1.0779  2.2849  2.1863
19386TIP3    H279650   1.322   2.508   0.396 -2.1537 -0.9045  1.3591
19387TIP3   OH279651   1.180   6.462   5.628 -0.2847 -0.2996 -0.2438
19387TIP3    H179652   1.091   6.429   5.619 -1.0689  2.0251 -1.1856
19387TIP3    H279653   1.171   6.556   5.640  2.0204 -0.1072  0.3774
19388TIP3   OH279654   5.569   6.365   1.387 -0.1600 -0.4706 -0.0965
19388TIP3    H179655   5.555   6.438   1.447  1.0146 -1.3157  1.2277
19388TIP3    H279656   5.490   6.363   1.333 -0.8229  0.8860  0.7945
19389TIP3   OH279657   0.947   3.760  17.147 -0.2929  0.1193 -0.1887
19389TIP3    H179658   0.947   3.694  17.216 -0.2161 -0.5851 -0.8549
19389TIP3    H279659   0.873   3.735  17.090  0.7732 -0.3980 -1.3783
19390TIP3   OH279660   5.868   5.296   3.407 -0.6404  0.5937  0.7153
19390TIP3    H179661   5.850   5.342   3.489 -0.0159 -1.2098  1.9053
19390TIP3    H279662   5.808   5.222   3.408  0.3477 -0.2229  0.2107
19391TIP3   OH279663   6.088   2.706  16.243 -0.3206 -0.3717 -0.0509
19391TIP3    H179664   6.052   2.738  16.325 -2.2417 -2.0034 -0.2329
19391TIP3    H279665   6.088   2.783  16.186 -1.0210  0.2727  0.7997
19392TIP3   OH279666   2.421   3.294   1.110  0.1592 -0.0892  0.2540
19392TIP3    H179667   2.353   3.347   1.150  0.0888  0.4116 -0.5254
19392TIP3    H279668   2.423   3.321   1.019  0.7837 -0.7417  0.0637
19393TIP3   OH279669   0.873   6.804  15.601  0.2184 -0.4545 -0.4042
19393TIP3    H179670   0.919   6.852  15.671  0.9958 -0.6408 -0.7844
19393TIP3    H279671   0.784   6.793  15.635  0.7686 -1.1628  0.8645
19394TIP3   OH279672   0.860   4.129  13.036  0.0286 -0.0562  0.2335
19394TIP3    H179673   0.864   4.225  13.038 -1.3360  0.0092  0.3846
19394TIP3    H279674   0.768   4.108  13.055  0.5159 -1.4224  1.1815
19395TIP3   OH279675   5.788   2.231   3.383 -0.3631 -0.0916 -0.0471
19395TIP3    H179676   5.828   2.241   3.296  0.8648 -0.4353  0.4693
19395TIP3    H279677   5.793   2.319   3.421 -0.3652 -0.0668 -0.1036
19396TIP3   OH279678   0.897   2.438  17.214  0.3216 -0.5110  0.0234
19396TIP3    H179679   0.927   2.430  17.124 -1.6538  1.8327 -0.8703
19396TIP3    H279680   0.977   2.428  17.266  1.6034 -1.0437 -1.9902
19397TIP3   OH279681   5.066   1.833  16.931  0.0945 -0.3344  0.1091
19397TIP3    H179682   5.041   1.844  16.839 -2.1898 -1.6093  0.5273
19397TIP3    H279683   5.126   1.759  16.931  0.0600 -0.3651 -0.3524
19398TIP3   OH279684   3.608   6.772  11.283 -0.5175  0.0886 -0.6289
19398TIP3    H179685   3.629   6.799  11.373 -2.2297  2.5757 -0.9218
19398TIP3    H279686   3.540   6.706  11.294  1.3447 -1.8019 -0.0277
19399TIP3   OH279687   1.027   6.654   5.387 -0.2037 -0.3371  0.3207
19399TIP3    H179688   0.967   6.679   5.317  0.8058  1.6407  0.1217
19399TIP3    H279689   0.980   6.586   5.436 -0.8588 -1.8202 -2.3073
19400TIP3   OH279690   2.148   6.591   1.856  0.0790 -0.4909 -0.0064
19400TIP3    H179691   2.232   6.565   1.895  0.1830 -1.0154 -0.5780
19400TIP3    H279692   2.120   6.515   1.807 -0.5176 -0.1549 -0.1873
19401TIP3   OH279693   2.961   3.799   4.390 -0.2827 -0.2743  0.5284
19401TIP3    H179694   2.952   3.794   4.295 -1.1579 -0.4003  0.6156
19401TIP3    H279695   2.901   3.733   4.424 -1.7535  1.3566  1.2248
19402TIP3   OH279696   2.204   0.331  13.890 -0.2577 -0.0438  0.2639
19402TIP3    H179697   2.121   0.363  13.855  1.0215  2.6835 -0.4950
19402TIP3    H279698   2.225   0.255  13.836 -0.9747  0.8876 -1.3851
19403TIP3   OH279699   0.117   0.376  13.602  0.3467  0.0714 -0.2915
19403TIP3    H179700   0.031   0.333  13.598  0.4542 -0.1196 -0.6363
19403TIP3    H279701   0.126   0.405  13.692 -1.5466  3.1146 -1.0290
19404TIP3   OH279702   3.266   0.726   2.013  0.0002 -0.4371 -0.0358
19404TIP3    H179703   3.215   0.731   2.094  0.6340 -1.1607  0.4208
19404TIP3    H279704   3.357   0.717   2.042  0.3720  0.6541 -0.8427
19405TIP3   OH279705   0.210   5.335   3.316 -0.6698  0.4207 -0.9500
19405TIP3    H179706   0.204   5.398   3.388 -2.6565 -0.4364 -0.3089
19405TIP3    H279707   0.298   5.299   3.323 -1.0211 -0.0999  1.4960
19406TIP3   OH279708   2.450   3.621  12.700  0.1126 -0.0071 -0.5004
19406TIP3    H179709   2.494   3.696  12.660  1.5760  0.6058  2.1729
19406TIP3    H279710   2.367   3.656  12.731 -0.7449 -0.3392 -2.3247
19407TIP3   OH279711   2.401   1.570  16.882 -0.2648  0.4378  0.4488
19407TIP3    H179712   2.425   1.519  16.804 -0.0469 -1.6011  1.8091
19407TIP3    H279713   2.468   1.546  16.947 -1.3896  0.8627  1.7760
19408TIP3   OH279714   1.605   4.054  14.639  0.6325  0.3693 -0.0403
19408TIP3    H179715   1.658   4.081  14.564  0.7397  1.3584  0.3879
19408TIP3    H279716   1.667   4.011  14.698  0.9811  1.5917  0.4941
19409TIP3   OH279717   2.221   0.930  14.108  0.1779 -0.5604 -1.3935
19409TIP3    H179718   2.286   0.950  14.176 -0.9926 -1.3632  0.0130
19409TIP3    H279719   2.263   0.955  14.026  1.2718  1.3981 -0.2956
19410TIP3   OH279720   5.869   2.927  14.319 -0.3736  0.2230  0.2285
19410TIP3    H179721   5.802   2.994  14.323 -0.2539  0.2885  1.1326
19410TIP3    H279722   5.935   2.962  14.258  0.0342  1.2324  1.2347
19411TIP3   OH279723   3.428   3.466   1.803  0.1722  0.2274 -0.5711
19411TIP3    H179724   3.383   3.519   1.869  0.2421 -1.8498  1.2125
19411TIP3    H279725   3.517   3.501   1.801  0.4519 -0.3271  1.2012
19412TIP3   OH279726   3.609   0.355  13.530 -0.0344  0.3566 -0.0085
19412TIP3    H179727   3.532   0.355  13.473 -0.3444 -0.4778  0.4016
19412TIP3    H279728   3.661   0.281  13.501 -0.6920 -0.6963  1.4375
19413TIP3   OH279729   0.656   1.017  14.416 -0.1061 -0.4835 -0.1637
19413TIP3    H179730   0.610   1.011  14.500  0.1943  0.4883  0.0791
19413TIP3    H279731   0.626   1.100  14.378  0.6789 -0.3280 -0.4538
19414TIP3   OH279732   2.553   5.942   1.743  0.2047  0.1012 -0.0939
19414TIP3    H179733   2.574   5.982   1.827  0.9256  2.1064 -1.2089
19414TIP3    H279734   2.512   6.012   1.692 -1.3224 -1.4071 -1.0158
19415TIP3   OH279735   0.599   3.335   1.511  0.4851  0.0752 -0.0513
19415TIP3    H179736   0.512   3.296   1.518  0.2659 -0.0307 -2.8056
19415TIP3    H279737   0.644   3.307   1.590 -0.6251 -3.3984 -0.5707
19416TIP3   OH279738   5.855   4.488  16.468 -0.0040 -0.0957 -0.1501
19416TIP3    H179739   5.933   4.514  16.517 -0.9787  0.6124  1.0611
19416TIP3    H279740   5.878   4.404  16.428  1.5897  0.4231 -0.3327
19417TIP3   OH279741   2.168   4.420   4.574 -0.4970 -0.4660  0.3101
19417TIP3    H179742   2.214   4.343   4.542  2.3924  2.4273 -2.8652
19417TIP3    H279743   2.214   4.444   4.655  2.0158  0.8408 -1.4318
19418TIP3   OH279744   3.184   0.386  12.596 -0.1123  0.4112  0.2364
19418TIP3    H179745   3.172   0.297  12.564  1.3720  0.2356  0.1271
19418TIP3    H279746   3.095   0.419  12.609 -0.6789 -0.9746 -0.0089
19419TIP3   OH279747   3.320   1.287  17.168 -0.2890  0.4298 -0.6061
19419TIP3    H179748   3.335   1.360  17.109 -0.5849  0.9978  0.0231
19419TIP3    H279749   3.232   1.255  17.146 -1.7036  2.6074  1.6132
19420TIP3   OH279750   2.176   3.517   0.123  0.3819  0.8626 -0.1369
19420TIP3    H179751   2.239   3.539   0.192  1.9967 -1.6372 -0.7441
19420TIP3    H279752   2.097   3.490   0.169  2.1697 -2.9585  0.8992
19421TIP3   OH279753   6.498   3.397  14.860 -0.4242  0.5487 -0.0146
19421TIP3    H179754   6.461   3.479  14.894  1.0756  1.0318  0.4941
19421TIP3    H279755   6.582   3.423  14.823 -1.1540 -0.3246 -2.3188
19422TIP3   OH279756   2.214   1.156  15.652  0.0600 -0.0964  0.5206
19422TIP3    H179757   2.229   1.207  15.731 -0.0460 -0.2465  0.6396
19422TIP3    H279758   2.298   1.114  15.634 -0.0863 -0.5709  0.9200
19423TIP3   OH279759   3.966   2.873   0.264  0.0960  0.7739 -0.1108
19423TIP3    H179760   3.941   2.937   0.330 -1.6863  0.3124 -0.3120
19423TIP3    H279761   3.904   2.801   0.276  1.6228 -0.6074 -0.3424
19424TIP3   OH279762   5.663   3.288  16.594 -0.8255  0.0619 -0.2527
19424TIP3    H179763   5.721   3.227  16.640 -0.2788 -0.5050 -1.6637
19424TIP3    H279764   5.604   3.232  16.544 -0.4553  0.6897 -1.4046
19425TIP3   OH279765   6.700   6.073   3.326 -0.3202  0.7052 -0.5555
19425TIP3    H179766   6.777   6.105   3.279 -0.0958 -1.2473 -1.5585
19425TIP3    H279767   6.717   5.980   3.340 -1.4825  0.7380  1.2514
19426TIP3   OH279768   0.834   1.221   1.224  0.2930 -0.3842  0.0203
19426TIP3    H179769   0.860   1.301   1.270 -2.3943 -0.9819  2.7615
19426TIP3    H279770   0.813   1.249   1.135  2.3157  1.3915  0.0673
19427TIP3   OH279771   3.952   6.501  14.842 -0.5611  1.0303 -0.6697
19427TIP3    H179772   3.999   6.468  14.918 -4.9422 -2.7393  0.5873
19427TIP3    H279773   3.964   6.434  14.775 -1.0090  1.8925 -1.6425
19428TIP3   OH279774   0.579   0.996  16.456 -0.4007 -0.0376 -0.0029
19428TIP3    H179775   0.517   1.016  16.386 -0.2507  0.5823  0.0364
19428TIP3    H279776   0.645   0.941  16.415 -0.1755  0.5294 -0.4145
19429TIP3   OH279777   3.152   4.902  14.193  0.1939 -0.3300  0.1434
19429TIP3    H179778   3.229   4.952  14.165 -0.7662  0.7721 -0.5967
19429TIP3    H279779   3.091   4.968  14.226 -1.5214 -0.8633 -1.8405
19430TIP3   OH279780   2.042   1.832  11.174  0.4271 -0.0860  0.3700
19430TIP3    H179781   1.981   1.906  11.162  0.0567 -0.3128  0.8312
19430TIP3    H279782   1.985   1.755  11.175  0.5893 -0.1903  2.1340
19431TIP3   OH279783   2.898   0.399   1.005  0.1421  0.2324  0.1957
19431TIP3    H179784   2.961   0.462   1.040 -0.7657  1.4549 -0.3490
19431TIP3    H279785   2.837   0.383   1.078  0.4894 -0.1774  0.3985
19432TIP3   OH279786   0.746   2.727   3.747  0.0167  0.4349 -0.2635
19432TIP3    H179787   0.790   2.812   3.748  0.8170  0.0214  0.0523
19432TIP3    H279788   0.654   2.748   3.763 -0.1782  1.4613 -2.5652
19433TIP3   OH279789   2.654   6.789   2.588  0.0232 -0.1764 -0.0867
19433TIP3    H179790   2.709   6.796   2.666 -1.3659  1.6567  0.7659
19433TIP3    H279791   2.696   6.847   2.524 -0.8870  1.2689  0.5836
19434TIP3   OH279792   2.451   4.597   1.356  0.5806 -0.5531  0.5814
19434TIP3    H179793   2.389   4.669   1.345  1.7114  0.1564 -1.3067
19434TIP3    H279794   2.402   4.519   1.328 -0.3318 -0.3964  1.7070
19435TIP3   OH279795   4.002   1.849   4.267 -0.4168  0.1339 -0.3676
19435TIP3    H179796   3.938   1.916   4.290 -1.5363 -0.3807 -1.8526
19435TIP3    H279797   4.086   1.883   4.297 -1.3972  0.8081  1.6390
19436TIP3   OH279798   3.713   1.275   1.229  0.2118 -0.0302 -0.6392
19436TIP3    H179799   3.740   1.252   1.141  0.8928  0.8444 -0.6669
19436TIP3    H279800   3.793   1.304   1.272 -0.0792 -0.6273  0.3241
19437TIP3   OH279801   0.283   5.507   2.583  0.2057  0.3765  0.0076
19437TIP3    H179802   0.241   5.569   2.523 -1.0285 -1.8273 -1.4692
19437TIP3    H279803   0.234   5.517   2.665 -1.2204  0.0285 -0.7903
19438TIP3   OH279804   3.715   0.210   3.782  0.1234 -0.0577  0.2849
19438TIP3    H179805   3.796   0.246   3.817  1.0545 -1.7698 -0.0844
19438TIP3    H279806   3.646   0.248   3.838  1.3153 -0.0449  1.7702
19439TIP3   OH279807   4.631   2.318  14.163  0.5107 -0.1526 -0.1838
19439TIP3    H179808   4.693   2.261  14.210  0.5792 -0.5396 -0.7389
19439TIP3    H279809   4.601   2.265  14.090 -0.1063  0.2152 -0.1999
19440TIP3   OH279810   1.778   1.924   1.298 -0.1813 -0.4672 -0.0116
19440TIP3    H179811   1.775   1.846   1.353 -2.0766 -0.5967 -0.2636
19440TIP3    H279812   1.689   1.959   1.301  0.4010  1.1280 -0.7013
19441TIP3   OH279813   6.062   5.581   3.225  0.0667  0.2931  0.5137
19441TIP3    H179814   5.998   5.514   3.198 -0.3999  1.0783 -0.3517
19441TIP3    H279815   6.145   5.550   3.189 -0.0325 -0.1499  0.6636
19442TIP3   OH279816   3.467   6.566   3.135 -0.4556 -0.3219 -0.2999
19442TIP3    H179817   3.403   6.505   3.098 -0.2140 -0.2374 -0.8564
19442TIP3    H279818   3.442   6.573   3.228 -0.7691 -0.9032 -0.3351
19443TIP3   OH279819   1.218   0.066   5.528 -0.5507 -0.6043  0.1939
19443TIP3    H179820   1.212   0.028   5.441 -1.7894  1.8298 -0.8423
19443TIP3    H279821   1.279   0.139   5.518 -0.6271 -0.3718  1.3794
19444TIP3   OH279822   0.586   1.041   3.260 -0.3359  0.4949  0.4119
19444TIP3    H179823   0.663   0.996   3.297  1.8695  3.4358 -0.4196
19444TIP3    H279824   0.600   1.037   3.165 -0.4969  2.2385  0.3108
19445TIP3   OH279825   1.815   3.574  12.408 -0.0555  0.0235  0.1308
19445TIP3    H179826   1.753   3.520  12.456  0.2954 -0.9273 -0.4745
19445TIP3    H279827   1.800   3.663  12.440 -1.8216 -0.1738 -0.1199
19446TIP3   OH279828   3.389   2.398   3.064  0.3822  0.1919  0.9388
19446TIP3    H179829   3.469   2.346   3.066  0.9182  0.9175 -0.5880
19446TIP3    H279830   3.319   2.336   3.087  1.0257 -1.1626 -0.6413
19447TIP3   OH279831   2.648   0.265  14.252  0.2469  0.0668 -0.4060
19447TIP3    H179832   2.710   0.197  14.278  0.8056 -0.0463 -2.0091
19447TIP3    H279833   2.699   0.327  14.200 -0.7111  0.6202 -0.7105
19448TIP3   OH279834   3.081   2.482  13.325 -0.5356  0.2704 -0.0462
19448TIP3    H179835   3.048   2.571  13.341 -2.9787 -0.4480 -0.9193
19448TIP3    H279836   3.024   2.425  13.377 -0.4031 -0.9879 -1.2662
19449TIP3   OH279837   3.182   4.146   4.784 -0.2198  0.1234  0.1668
19449TIP3    H179838   3.261   4.131   4.733 -0.3872 -0.7369  0.1634
19449TIP3    H279839   3.112   4.102   4.735 -0.5433  0.0914  0.6495
19450TIP3   OH279840   6.603   4.388  12.448  0.2692 -0.0106  0.3444
19450TIP3    H179841   6.583   4.480  12.431 -1.5955 -0.1152  1.8173
19450TIP3    H279842   6.630   4.353  12.363 -2.5059  1.0444 -1.0379
19451TIP3   OH279843   0.599   2.944   5.937 -0.3890 -0.6630  0.9674
19451TIP3    H179844   0.620   2.878   6.003 -1.0162 -2.0684 -0.1979
19451TIP3    H279845   0.509   2.923   5.911 -0.1518 -0.1299 -0.3179
19452TIP3   OH279846   0.980   5.710  17.273  0.2159 -0.1687 -0.1781
19452TIP3    H179847   0.999   5.692  17.365 -0.3267 -1.3203 -0.2763
19452TIP3    H279848   0.903   5.768  17.275 -0.0947 -0.5834  0.0917
19453TIP3   OH279849   4.592   3.051   4.443  0.0461 -0.4805 -0.1274
19453TIP3    H179850   4.608   2.962   4.412  1.0212 -0.2779 -0.2046
19453TIP3    H279851   4.507   3.045   4.489  1.1557 -1.9471  1.8294
19454TIP3   OH279852   4.559   0.621   1.590 -0.3977 -0.1150  0.7106
19454TIP3    H179853   4.501   0.546   1.597 -0.5931  0.1973  2.7098
19454TIP3    H279854   4.598   0.613   1.503 -2.2030 -1.2042 -0.0135
19455TIP3   OH279855   5.909   0.928  14.475 -0.6359  0.1813 -0.3664
19455TIP3    H179856   5.827   0.896  14.436 -0.9800  0.9126 -0.2570
19455TIP3    H279857   5.887   0.945  14.566  0.0610 -1.1173  0.0491
19456TIP3   OH279858   3.620   4.071   2.138 -0.0937 -0.2167 -0.4128
19456TIP3    H179859   3.563   4.064   2.214 -0.7098 -0.2027 -0.8667
19456TIP3    H279860   3.601   4.157   2.102  1.1389  0.2995  0.1576
19457TIP3   OH279861   4.086   5.140   1.862 -0.1124  0.0374 -0.5589
19457TIP3    H179862   4.019   5.188   1.812 -2.5304 -0.0206  2.4458
19457TIP3    H279863   4.048   5.053   1.874  1.2088 -0.4733 -0.0657
19458TIP3   OH279864   6.097   6.523  16.196  0.1772  0.2376 -0.4955
19458TIP3    H179865   6.182   6.510  16.152  1.5020  1.3632  1.6415
19458TIP3    H279866   6.086   6.443  16.249 -2.6961 -2.3683 -4.7207
19459TIP3   OH279867   5.791   6.098  11.873 -0.1785 -0.0887 -0.1281
19459TIP3    H179868   5.823   6.186  11.852 -0.6169  0.4918  1.5720
19459TIP3    H279869   5.720   6.113  11.936 -0.9130 -1.6073 -0.5711
19460TIP3   OH279870   3.706   4.490  15.035 -0.6986 -0.0749  0.1337
19460TIP3    H179871   3.751   4.547  15.098 -1.6053 -0.7979  1.4670
19460TIP3    H279872   3.771   4.475  14.966  1.8551 -2.5154  2.8504
19461TIP3   OH279873   2.919   4.889  11.545 -0.2872  0.3123 -0.6755
19461TIP3    H179874   2.899   4.864  11.635  0.1958 -0.1988 -0.7035
19461TIP3    H279875   2.993   4.833  11.520  0.2383  1.1470 -1.0519
19462TIP3   OH279876   2.402   6.002  11.810 -0.1494 -0.4633 -0.1257
19462TIP3    H179877   2.334   5.937  11.825  1.9194 -2.9303 -1.1284
19462TIP3    H279878   2.406   6.011  11.715  0.8109 -0.2365 -0.0751
19463TIP3   OH279879   6.713   4.110   3.717 -0.3046  0.7251  0.0443
19463TIP3    H179880   6.636   4.116   3.775  1.0130 -1.6445  2.1597
19463TIP3    H279881   6.773   4.053   3.764  1.4759 -0.0276 -3.0312
19464TIP3   OH279882   0.078   1.093  13.531 -0.0162 -0.6739  0.1659
19464TIP3    H179883   0.131   1.162  13.490 -1.4999 -0.1271 -0.8816
19464TIP3    H279884   0.127   1.012  13.514  1.1306 -0.0264  0.3441
19465TIP3   OH279885   1.812   1.638   1.410  0.5167  0.2328  0.1115
19465TIP3    H179886   1.838   1.662   1.499 -1.4576  1.9304  0.2683
19465TIP3    H279887   1.762   1.557   1.421  3.2313 -1.5075  0.1122
19466TIP3   OH279888   0.786   3.135   5.828  0.7417  0.1437 -0.1004
19466TIP3    H179889   0.817   3.082   5.754 -0.4514 -0.3980 -0.2286
19466TIP3    H279890   0.741   3.073   5.885  3.6324  0.1430  2.2566
19467TIP3   OH279891   1.099   3.967  11.677 -0.1906  0.0525 -0.3623
19467TIP3    H179892   1.107   4.023  11.600  0.5752  1.0392  0.4130
19467TIP3    H279893   1.039   4.014  11.735  0.3753  0.0449  0.2487
19468TIP3   OH279894   5.545   4.879  15.354  0.2002  0.1295 -0.0013
19468TIP3    H179895   5.587   4.864  15.439 -0.7129 -3.4588 -0.0836
19468TIP3    H279896   5.601   4.832  15.291 -0.1962  1.1176 -1.0973
19469TIP3   OH279897   1.828   3.362  14.552 -0.2366  0.1182 -0.3730
19469TIP3    H179898   1.825   3.418  14.474 -1.3916  1.0695  0.3516
19469TIP3    H279899   1.761   3.296  14.537  0.2768 -0.3425 -0.6642
19470TIP3   OH279900   5.059   2.240  15.438  0.2678  0.0938 -0.6831
19470TIP3    H179901   5.114   2.250  15.515  0.4220  2.0947 -1.0373
19470TIP3    H279902   5.027   2.328  15.419 -0.5968 -0.5421 -2.2972
19471TIP3   OH279903   1.893   5.363   1.374  0.3017 -0.2973 -1.3493
19471TIP3    H179904   1.981   5.330   1.393  0.5802 -0.2001 -2.4169
19471TIP3    H279905   1.897   5.386   1.281 -0.8203 -0.1884 -1.3668
19472TIP3   OH279906   0.427   0.833   0.817  0.0484 -0.3690 -0.1624
19472TIP3    H179907   0.450   0.918   0.779  1.4595 -0.6331  0.0537
19472TIP3    H279908   0.463   0.769   0.756  0.1106 -0.8027  0.3199
19473TIP3   OH279909   3.449   3.373   3.378 -0.2487 -0.9126 -0.4989
19473TIP3    H179910   3.472   3.322   3.455  0.4252  0.4717  0.2456
19473TIP3    H279911   3.526   3.429   3.362 -1.4210  0.7461 -0.5306
19474TIP3   OH279912   0.765   3.909  13.273  0.1137  0.3383 -0.0962
19474TIP3    H179913   0.859   3.920  13.285  0.0892  0.4310  0.0146
19474TIP3    H279914   0.727   3.940  13.355 -0.0634  1.1085 -0.4628
19475TIP3   OH279915   2.636   5.842  14.560  0.1386 -1.1182  0.3780
19475TIP3    H179916   2.621   5.915  14.620  1.2499 -0.2800 -0.3380
19475TIP3    H279917   2.683   5.777  14.614  1.3762 -0.2571  0.3670
19476TIP3   OH279918   0.556   5.148  11.362  0.3185 -0.6516 -0.6326
19476TIP3    H179919   0.542   5.242  11.368  0.5416 -0.5916 -0.9679
19476TIP3    H279920   0.514   5.122  11.279 -1.0534 -1.1090  0.1884
19477TIP3   OH279921   1.950   6.443   3.140 -0.0769 -0.1999 -0.1605
19477TIP3    H179922   2.025   6.494   3.110  0.7779 -1.8457 -0.8728
19477TIP3    H279923   1.883   6.458   3.074  1.1867 -2.3492 -2.0297
19478TIP3   OH279924   4.951   5.954   2.306 -0.2046  0.0729 -0.5079
19478TIP3    H179925   4.884   5.912   2.361  0.0912 -0.7661 -0.7951
19478TIP3    H279926   5.034   5.921   2.339  0.0609  0.8725 -0.3640
19479TIP3   OH279927   0.500   0.642   1.787  0.0777 -0.2552 -0.0265
19479TIP3    H179928   0.479   0.580   1.858  1.1080 -1.2848 -0.6011
19479TIP3    H279929   0.595   0.633   1.776  0.0841  0.7346 -0.7801
19480TIP3   OH279930   5.898   1.499  12.723 -0.4452 -0.0248 -0.3078
19480TIP3    H179931   5.960   1.460  12.785 -0.5116 -1.2201 -0.9690
19480TIP3    H279932   5.945   1.573  12.686  0.4231 -0.6207 -0.4245
19481TIP3   OH279933   5.496   4.377   0.654  0.2610 -0.2477  0.2374
19481TIP3    H179934   5.589   4.393   0.671  0.1753 -0.0978  0.5663
19481TIP3    H279935   5.496   4.305   0.591  0.5907 -0.6616  0.7041
19482TIP3   OH279936   6.262   2.690  15.800  0.2171  0.1068  0.8569
19482TIP3    H179937   6.270   2.619  15.864  0.0033 -1.0206 -0.3479
19482TIP3    H279938   6.170   2.687  15.773  0.0429  1.2842  1.2858
19483TIP3   OH279939   4.137   2.906  16.791 -0.0758 -0.1037 -0.4230
19483TIP3    H179940   4.189   2.982  16.766 -0.3675 -0.2488 -1.5101
19483TIP3    H279941   4.046   2.933  16.776 -0.2521 -0.2175  0.4335
19484TIP3   OH279942   1.225   6.041  11.728  0.1830  0.1121  0.0052
19484TIP3    H179943   1.168   6.064  11.802 -0.8055  0.6799 -0.9216
19484TIP3    H279944   1.289   5.981  11.766 -1.3483 -0.9806  0.9627
19485TIP3   OH279945   0.891   2.510   2.411 -0.1562  0.1609 -0.2858
19485TIP3    H179946   0.919   2.436   2.464 -0.0713 -0.3468 -1.0413
19485TIP3    H279947   0.799   2.522   2.432 -0.2217 -0.2939 -0.3220
19486TIP3   OH279948   6.081   0.240  15.425 -0.9273  0.0980 -0.1718
19486TIP3    H179949   6.065   0.289  15.505 -0.8181  1.6618 -1.0707
19486TIP3    H279950   6.073   0.149  15.450 -0.8680  0.5632  1.6219
19487TIP3   OH279951   0.298   5.234  12.262 -0.2226  0.3436 -0.0791
19487TIP3    H179952   0.258   5.187  12.335 -0.1581 -1.4639 -1.1689
19487TIP3    H279953   0.233   5.230  12.192  0.2003  0.9979 -0.5109
19488TIP3   OH279954   5.617   3.897   1.644  0.0245 -0.4248 -0.2358
19488TIP3    H179955   5.676   3.830   1.609  1.6983  0.1000  1.4552
19488TIP3    H279956   5.548   3.905   1.579  0.1653 -3.3014 -0.7953
19489TIP3   OH279957   4.570   0.599   1.096  0.2160  1.1052  0.1047
19489TIP3    H179958   4.521   0.550   1.162  1.4408  0.1928  0.3631
19489TIP3    H279959   4.533   0.571   1.012  0.1538  0.6027  0.3026
19490TIP3   OH279960   4.625   0.842   6.152  0.0421  0.5126 -0.4483
19490TIP3    H179961   4.633   0.902   6.226  1.5966 -0.5682  0.2802
19490TIP3    H279962   4.661   0.891   6.077  0.1567  0.9362 -0.1176
19491TIP3   OH279963   5.218   0.890   2.628  0.4334  0.0121 -0.0326
19491TIP3    H179964   5.149   0.886   2.694 -0.9670 -0.6384 -1.4973
19491TIP3    H279965   5.240   0.799   2.610  1.5844  0.2095  0.3127
19492TIP3   OH279966   5.920   4.823  16.085 -0.0440 -0.0902  0.7703
19492TIP3    H179967   5.904   4.729  16.072 -0.9102 -0.0879  1.7342
19492TIP3    H279968   5.977   4.826  16.163  1.8347  0.0808 -0.5726
19493TIP3   OH279969   1.758   6.679  13.652 -0.1402  0.0599  0.1465
19493TIP3    H179970   1.815   6.716  13.720  0.3314 -2.1844  1.0241
19493TIP3    H279971   1.702   6.617  13.699 -0.3513 -0.9453 -1.3890
19494TIP3   OH279972   5.509   4.801  12.964 -0.4306  0.1732 -0.8273
19494TIP3    H179973   5.418   4.804  12.934 -1.0214  1.3321  1.0205
19494TIP3    H279974   5.529   4.891  12.988  0.6788 -0.3783  0.3323
19495TIP3   OH279975   4.158   2.507  14.931  0.4231 -0.0786  0.0956
19495TIP3    H179976   4.251   2.483  14.933  0.4421 -0.1640 -1.0418
19495TIP3    H279977   4.155   2.595  14.969  1.4614  1.3093 -2.8707
19496TIP3   OH279978   5.484   6.796   0.626 -0.0553  0.0916  0.9297
19496TIP3    H179979   5.480   6.757   0.713 -0.9513 -0.1010  0.8003
19496TIP3    H279980   5.431   6.875   0.632 -0.7050 -0.3012  0.3631
19497TIP3   OH279981   4.593   0.747   5.558  0.3324  0.1853 -0.8896
19497TIP3    H179982   4.504   0.735   5.523  0.1144 -1.9321  0.2695
19497TIP3    H279983   4.650   0.706   5.492  0.3598  0.6688 -1.1652
19498TIP3   OH279984   1.978   3.943  13.572  0.0650  0.3252  0.5727
19498TIP3    H179985   2.020   4.011  13.519 -1.7275  1.4545  0.5256
19498TIP3    H279986   1.885   3.951  13.551 -0.1502 -2.4434  0.2652
19499TIP3   OH279987   4.935   2.911   3.415 -0.2645  0.1902  0.3850
19499TIP3    H179988   4.853   2.952   3.387  0.1333 -0.7328 -2.2579
19499TIP3    H279989   5.002   2.976   3.399 -0.1586  0.0435  0.2358
19500TIP3   OH279990   6.559   6.747  15.235  0.1474 -0.0413  0.3611
19500TIP3    H179991   6.503   6.807  15.185 -1.0956 -0.1931  1.5330
19500TIP3    H279992   6.588   6.798  15.311  0.2872 -0.4561  0.5907
19501TIP3   OH279993   5.540   2.336  14.102 -0.0687  0.5016 -0.4152
19501TIP3    H179994   5.486   2.257  14.096 -1.3159  1.3530 -0.5946
19501TIP3    H279995   5.584   2.342  14.017 -0.1450  0.1339 -0.4826
19502TIP3   OH279996   6.656   0.821  15.746  0.6348 -0.2524 -0.4964
19502TIP3    H179997   6.638   0.911  15.772  1.2552  0.2757 -1.8170
19502TIP3    H279998   6.668   0.774  15.828  1.4551  1.1103  0.1856
19503TIP3   OH279999   5.180   2.841   5.909 -0.5518  0.0070  0.4248
19503TIP3    H180000   5.226   2.835   5.992 -0.7713 -1.9837  0.4319
19503TIP3    H280001   5.092   2.810   5.928 -0.5126 -0.7762 -0.5852
19504TIP3   OH280002   5.416   6.069  15.874 -0.0011  0.4801  0.3990
19504TIP3    H180003   5.499   6.046  15.832  0.0741  2.0987 -0.4089
19504TIP3    H280004   5.440   6.086  15.965  0.2796 -0.5635  0.5284
19505TIP3   OH280005   1.422   6.229   2.048  0.1476  0.1413 -0.0832
19505TIP3    H180006   1.340   6.232   1.998  0.2528 -0.6568 -0.3024
19505TIP3    H280007   1.442   6.321   2.065 -0.8040  0.3481 -0.0094
19506TIP3   OH280008   5.144   4.595   1.854 -0.4412 -0.0834 -0.0032
19506TIP3    H180009   5.064   4.640   1.828  0.4306 -0.0479 -2.7081
19506TIP3    H280010   5.213   4.661   1.846  0.4796 -1.2216 -1.7373
19507TIP3   OH280011   6.198   1.169   1.052 -0.4784  0.0182  0.4092
19507TIP3    H180012   6.235   1.195   1.136  1.0908 -1.5569  0.2366
19507TIP3    H280013   6.104   1.159   1.069  0.0091 -1.5147  2.3165
19508TIP3   OH280014   0.741   4.136  16.477 -0.1950 -0.1087 -0.2846
19508TIP3    H180015   0.718   4.161  16.388 -0.8382 -0.6156 -0.2548
19508TIP3    H280016   0.739   4.219  16.526  1.9119  0.4744 -1.0967
19509TIP3   OH280017   2.054   0.139   4.128  0.6012  0.3709 -0.1631
19509TIP3    H180018   2.081   0.219   4.173  0.8938 -0.4761  1.1975
19509TIP3    H280019   1.959   0.137   4.138  0.6115  0.4594 -0.0410
19510TIP3   OH280020   0.843   0.315  14.173  0.2098 -0.7112 -0.1068
19510TIP3    H180021   0.749   0.302  14.160  0.2423 -0.9584 -0.0898
19510TIP3    H280022   0.884   0.246  14.122  0.3273 -2.0299  1.7149
19511TIP3   OH280023   4.145   2.121   2.306 -0.2757 -0.2517 -0.2505
19511TIP3    H180024   4.210   2.108   2.375  0.8819 -0.3191 -1.3300
19511TIP3    H280025   4.160   2.048   2.245 -1.0854 -0.0269 -0.7226
19512TIP3   OH280026   3.547   4.994   1.134 -0.2095  0.0683 -0.2293
19512TIP3    H180027   3.498   4.922   1.096  0.1845  0.0270 -0.6716
19512TIP3    H280028   3.626   5.000   1.080 -0.2033  0.7728 -0.1468
19513TIP3   OH280029   5.683   4.275  14.284 -0.8444  0.6388 -0.4277
19513TIP3    H180030   5.643   4.362  14.275 -2.8727 -0.0186  1.8415
19513TIP3    H280031   5.621   4.226  14.338  0.1015 -2.3536 -1.9766
19514TIP3   OH280032   1.814   2.786   6.125  0.3355 -0.5286  0.0810
19514TIP3    H180033   1.721   2.806   6.117 -0.0187 -2.1421  0.0330
19514TIP3    H280034   1.858   2.869   6.104 -1.0973  0.6578  1.6240
19515TIP3   OH280035   1.572   2.341   1.449  0.2634 -0.4754  0.4439
19515TIP3    H180036   1.544   2.276   1.514 -2.9024  0.8299  0.4693
19515TIP3    H280037   1.565   2.294   1.365  0.4585 -0.9433  0.6873
19516TIP3   OH280038   4.396   1.457   1.962 -0.1782 -0.0631 -0.4010
19516TIP3    H180039   4.353   1.541   1.946 -0.7951 -0.2135  0.4601
19516TIP3    H280040   4.358   1.425   2.044  1.2585 -0.4059  0.1430
19517TIP3   OH280041   2.981   3.096   1.154  0.5435  0.1699  0.1101
19517TIP3    H180042   2.975   3.183   1.194  0.3049  0.8945 -1.4756
19517TIP3    H280043   2.898   3.053   1.178 -0.1311  1.0459 -0.6525
19518TIP3   OH280044   2.194   1.025  16.032  0.3174 -0.6201  0.8408
19518TIP3    H180045   2.112   1.004  15.988  1.0809 -2.3279  0.1592
19518TIP3    H280046   2.174   1.101  16.087 -1.4315 -0.3582 -0.1194
19519TIP3   OH280047   3.414   5.133  13.452  0.4612 -0.3917  0.0528
19519TIP3    H180048   3.463   5.089  13.382  0.6906  1.3612 -0.9199
19519TIP3    H280049   3.327   5.146  13.416  0.6860  0.8548 -0.0677
19520TIP3   OH280050   1.168   1.412   2.876 -0.3060 -0.1778 -0.0360
19520TIP3    H180051   1.134   1.496   2.906 -0.8853 -0.7368  0.8820
19520TIP3    H280052   1.218   1.433   2.797 -0.5292  1.0115  0.1362
19521TIP3   OH280053   0.653   6.042  13.152  0.2621 -0.1828 -0.1470
19521TIP3    H180054   0.589   6.082  13.093  1.4882 -0.4506 -1.6863
19521TIP3    H280055   0.733   6.093  13.139  1.2178 -1.7683 -0.4934
19522TIP3   OH280056   4.773   3.447   6.356 -0.2278 -0.1956  0.2306
19522TIP3    H180057   4.831   3.393   6.410  0.1737 -0.0241 -0.0223
19522TIP3    H280058   4.694   3.458   6.409  0.9060  1.5884  1.5988
19523TIP3   OH280059   0.197   2.521  13.113  0.0120 -0.1627  0.1275
19523TIP3    H180060   0.113   2.568  13.113 -0.3969 -0.8817  1.1497
19523TIP3    H280061   0.189   2.459  13.041 -1.3599 -1.9819  1.7733
19524TIP3   OH280062   1.382   0.222   4.375  0.2339  0.4297 -0.6913
19524TIP3    H180063   1.370   0.308   4.414 -1.2784 -0.5170  0.9742
19524TIP3    H280064   1.422   0.169   4.444 -0.2009 -0.6175 -1.2261
19525TIP3   OH280065   5.100   3.271   4.151  0.3929  0.0700  0.0509
19525TIP3    H180066   5.009   3.299   4.154  0.4761  0.2729  0.7577
19525TIP3    H280067   5.102   3.203   4.084 -0.6279 -1.1790  1.2457
19526TIP3   OH280068   0.358   2.878   0.877 -0.1371  0.1201  0.3197
19526TIP3    H180069   0.306   2.887   0.956 -0.4862  0.3960  0.0570
19526TIP3    H280070   0.447   2.902   0.903 -0.4397  1.1702  0.3880
19527TIP3   OH280071   4.181   5.326   1.605 -0.1920  0.3001  0.5566
19527TIP3    H180072   4.163   5.262   1.673  1.6210  1.5586  2.2643
19527TIP3    H280073   4.110   5.390   1.612 -0.3142  0.1277  0.8895
19528TIP3   OH280074   6.179   6.308  16.787 -0.6503 -0.3481 -0.2332
19528TIP3    H180075   6.180   6.392  16.833 -0.2406 -0.3896 -0.1570
19528TIP3    H280076   6.215   6.246  16.851  0.5664 -0.2868 -0.8290
19529TIP3   OH280077   5.455   2.705  12.053 -0.0383 -1.0054  0.3634
19529TIP3    H180078   5.538   2.752  12.055 -0.4691 -0.1088 -2.0219
19529TIP3    H280079   5.471   2.631  11.994 -0.8246 -1.0188  0.1608
19530TIP3   OH280080   3.239   3.060  16.433  0.8216  0.3612  0.2792
19530TIP3    H180081   3.240   3.105  16.348 -1.1587  1.0861  0.6086
19530TIP3    H280082   3.178   2.988  16.421  1.6984 -0.4420  0.6477
19531TIP3   OH280083   2.634   5.343  11.526 -0.2754 -0.5982 -0.0198
19531TIP3    H180084   2.691   5.269  11.503 -0.8778 -0.4844 -1.9700
19531TIP3    H280085   2.611   5.382  11.442 -1.1288  0.9519  0.9153
19532TIP3   OH280086   3.543   0.480   0.736  0.2711 -0.2409 -0.6601
19532TIP3    H180087   3.559   0.454   0.645 -1.8359 -2.0598 -0.5406
19532TIP3    H280088   3.450   0.502   0.739  0.1898 -0.7070  1.1614
19533TIP3   OH280089   3.959   3.171  14.476  0.5631  0.8379 -0.5542
19533TIP3    H180090   4.013   3.126  14.541  0.2811 -0.7600 -1.3779
19533TIP3    H280091   3.985   3.262  14.481  1.3590  0.5414  0.9928
19534TIP3   OH280092   2.907   4.722   4.430 -0.0772  0.0079  0.1828
19534TIP3    H180093   2.823   4.750   4.395  0.7740  0.8045 -1.3041
19534TIP3    H280094   2.901   4.627   4.437 -0.5794 -0.0665 -1.3003
19535TIP3   OH280095   6.145   3.319   4.829  0.1570  0.1104  0.1470
19535TIP3    H180096   6.195   3.361   4.899  0.0308  0.6466 -0.0784
19535TIP3    H280097   6.126   3.390   4.767  0.2722 -0.3631 -0.4339
19536TIP3   OH280098   2.785   1.642  16.225 -0.5362 -1.0387  0.3086
19536TIP3    H180099   2.859   1.597  16.184  0.5598  0.6037  0.4489
19536TIP3    H280100   2.735   1.677  16.152 -0.5041 -1.0997  0.2550
19537TIP3   OH280101   1.813   2.534   3.857 -0.4657 -0.7396  0.0964
19537TIP3    H180102   1.898   2.544   3.900  0.2583  1.1806 -1.6886
19537TIP3    H280103   1.751   2.522   3.929  1.2340 -1.5970  1.4543
19538TIP3   OH280104   4.835   6.795  16.989  0.0585  0.0511  0.5554
19538TIP3    H180105   4.921   6.818  17.023  0.1025 -0.2056  0.6197
19538TIP3    H280106   4.825   6.702  17.010  0.7233 -0.4910 -1.4797
19539TIP3   OH280107   6.054   6.451   3.328  0.3746 -0.4816  0.4739
19539TIP3    H180108   6.076   6.471   3.237 -0.8473 -0.5739  0.1588
19539TIP3    H280109   6.139   6.442   3.372  0.9633  1.2137 -0.2891
19540TIP3   OH280110   6.299   5.489   4.238 -0.3437  0.3324 -0.4929
19540TIP3    H180111   6.391   5.485   4.263 -0.1258  1.8486 -0.9668
19540TIP3    H280112   6.288   5.578   4.205 -2.1505  0.3972  0.2413
19541TIP3   OH280113   3.702   3.386  13.866  0.6873  0.2744  0.1589
19541TIP3    H180114   3.722   3.294  13.881  1.1791  0.3983  0.2484
19541TIP3    H280115   3.645   3.385  13.789 -1.7283 -0.3541  1.8809
19542TIP3   OH280116   4.020   3.909  14.685  0.4867  0.1154  0.0858
19542TIP3    H180117   4.020   3.829  14.736 -1.8070  0.3485  0.5038
19542TIP3    H280118   3.927   3.932  14.676  1.1145  3.0487  0.5098
19543TIP3   OH280119   0.962   3.793   5.302  0.1005 -0.3267 -0.2995
19543TIP3    H180120   0.905   3.853   5.253  1.7030  0.9768 -0.6468
19543TIP3    H280121   0.906   3.754   5.368 -1.1909  0.9161 -0.6403
19544TIP3   OH280122   2.038   4.023  17.228  0.1959  0.3586 -0.4018
19544TIP3    H180123   2.028   4.000  17.320  0.3992 -0.4696 -0.5837
19544TIP3    H280124   2.001   3.949  17.180 -0.5485  1.1039 -0.9811
19545TIP3   OH280125   1.263   4.669  12.359  0.3790  0.5071  0.5256
19545TIP3    H180126   1.231   4.655  12.269  0.2061  0.4857  0.5912
19545TIP3    H280127   1.187   4.656  12.414  0.9685 -1.6559  0.8545
19546TIP3   OH280128   2.544   5.019  12.639 -0.0951 -0.1544  0.0583
19546TIP3    H180129   2.540   5.114  12.648 -1.3549  0.1339 -2.8363
19546TIP3    H280130   2.464   4.987  12.681 -0.4446  0.2116 -0.3189
19547TIP3   OH280131   1.252   6.522   2.297 -0.3831  0.2542  0.0136
19547TIP3    H180132   1.337   6.492   2.329  0.2967  1.3141 -0.7941
19547TIP3    H280133   1.260   6.617   2.293 -0.7621  0.2104 -2.4302
19548TIP3   OH280134   2.373   1.894  12.084 -0.3264 -0.2846  0.7435
19548TIP3    H180135   2.360   1.851  11.999  1.5573  0.7726 -0.1173
19548TIP3    H280136   2.326   1.977  12.075 -1.2676 -0.7625  1.2339
19549TIP3   OH280137   5.760   3.442   0.542 -0.3331  0.1334  0.3620
19549TIP3    H180138   5.822   3.515   0.534 -0.2113  0.1841  1.5914
19549TIP3    H280139   5.760   3.421   0.636 -2.6671  0.5448  0.4876
19550TIP3   OH280140   2.735   6.773   1.914  0.1192 -0.4528 -0.2185
19550TIP3    H180141   2.675   6.753   1.842  0.1683 -0.7568 -0.1794
19550TIP3    H280142   2.699   6.725   1.989  1.0064 -1.5275 -0.4580
19551TIP3   OH280143   5.025   2.874  13.858 -0.4788 -0.6610 -0.5718
19551TIP3    H180144   5.041   2.781  13.843  0.5910 -0.7011  0.7159
19551TIP3    H280145   5.091   2.900  13.923 -0.0925  1.2389 -1.6770
19552TIP3   OH280146   6.234   3.952  11.637 -0.8330  0.0998  0.7180
19552TIP3    H180147   6.206   4.032  11.683 -0.0326  1.9079 -1.8360
19552TIP3    H280148   6.329   3.960  11.631 -0.7674 -0.9673  0.2910
19553TIP3   OH280149   4.071   6.227  17.116  0.4923  0.0503  0.2552
19553TIP3    H180150   4.122   6.146  17.105  0.0828 -0.3502  1.3154
19553TIP3    H280151   3.992   6.213  17.063  1.2277  0.4729 -0.9901
19554TIP3   OH280152   2.227   3.239   2.253 -0.1039  0.3647  0.6636
19554TIP3    H180153   2.215   3.174   2.322  3.5778 -2.1625 -0.9183
19554TIP3    H280154   2.256   3.318   2.299 -0.2685 -0.4488  2.2099
19555TIP3   OH280155   6.011   0.533  11.577  0.7286  0.2942  0.0955
19555TIP3    H180156   6.046   0.556  11.491  0.7579 -0.3144 -0.0547
19555TIP3    H280157   6.085   0.544  11.637  1.0592 -0.5617 -0.1555
19556TIP3   OH280158   1.264   3.222  15.542  0.3334  0.5949 -0.1952
19556TIP3    H180159   1.288   3.130  15.534 -0.6973  0.2431  0.7130
19556TIP3    H280160   1.333   3.261  15.596  0.1363  0.0947  0.4195
19557TIP3   OH280161   5.707   6.544  14.135 -0.2342 -0.3257 -0.8253
19557TIP3    H180162   5.743   6.521  14.049  0.8275  1.1184 -0.7784
19557TIP3    H280163   5.781   6.577  14.184 -1.3028  1.1560 -0.1703
19558TIP3   OH280164   4.327   3.353   3.575  0.8171 -0.0656  0.3001
19558TIP3    H180165   4.244   3.327   3.535  1.4656 -1.4289 -0.1703
19558TIP3    H280166   4.322   3.320   3.665  1.4181 -1.4024 -0.1406
19559TIP3   OH280167   6.549   5.557   6.003  0.5367 -0.0407 -0.8603
19559TIP3    H180168   6.586   5.479   5.961 -0.7519 -0.2174 -1.7113
19559TIP3    H280169   6.586   5.630   5.955 -0.0314 -0.2107 -1.5737
19560TIP3   OH280170   5.105   0.182   2.871 -0.0299  0.7014  0.3767
19560TIP3    H180171   5.081   0.093   2.845 -1.3040  1.3296 -0.6506
19560TIP3    H280172   5.184   0.171   2.924 -0.4485 -1.0796  0.6679
19561TIP3   OH280173   0.373   1.927  15.539 -0.2442  0.3439  0.8181
19561TIP3    H180174   0.383   1.948  15.446  0.8059 -0.9541  0.6292
19561TIP3    H280175   0.312   1.993  15.572  0.8462  1.9706 -0.3683
19562TIP3   OH280176   1.781   1.497  11.410  0.8981 -0.5672 -0.2859
19562TIP3    H180177   1.818   1.412  11.434 -0.8212 -1.0029  0.8821
19562TIP3    H280178   1.790   1.550  11.489 -2.0911 -1.0807  0.4405
19563TIP3   OH280179   6.119   5.410   3.678 -0.6138 -0.2514  0.1892
19563TIP3    H180180   6.168   5.490   3.656 -0.7893 -0.3142 -0.4411
19563TIP3    H280181   6.175   5.363   3.739  0.6825 -0.9271 -1.4867
19564TIP3   OH280182   0.509   6.783   4.517 -0.1565 -0.2444 -0.1101
19564TIP3    H180183   0.438   6.839   4.484 -0.3765  0.6202  1.8015
19564TIP3    H280184   0.588   6.826   4.485 -0.4253 -0.3198 -0.8945
19565TIP3   OH280185   2.728   4.547   6.341  0.2143 -0.1748 -0.0809
19565TIP3    H180186   2.813   4.589   6.353 -1.4767  2.8039  2.1368
19565TIP3    H280187   2.740   4.458   6.375  2.3212  0.3253  0.5734
19566TIP3   OH280188   6.135   4.163   6.507 -0.7194  0.9241  0.3943
19566TIP3    H180189   6.168   4.074   6.500 -2.3351  0.3779 -0.6554
19566TIP3    H280190   6.068   4.158   6.575 -2.6460  0.7255 -1.4611
19567TIP3   OH280191   1.333   1.834  12.756  0.1539 -0.0312 -0.4675
19567TIP3    H180192   1.351   1.896  12.685  2.1818 -1.5941 -1.3731
19567TIP3    H280193   1.251   1.792  12.731 -0.0510  0.6651 -0.9929
19568TIP3   OH280194   6.558   2.203  16.244  0.4705 -0.5609  0.8197
19568TIP3    H180195   6.607   2.278  16.276  1.6054  0.1371 -2.3898
19568TIP3    H280196   6.623   2.148  16.200 -1.4167  0.2346 -3.2903
19569TIP3   OH280197   4.804   5.910  15.298 -0.0066 -0.3348 -0.0682
19569TIP3    H180198   4.724   5.913  15.245 -0.4539  1.3555  0.6425
19569TIP3    H280199   4.831   6.002  15.304  1.3038 -0.7665  0.7281
19570TIP3   OH280200   2.944   5.152  17.279 -0.4566 -0.2657  0.2627
19570TIP3    H180201   2.998   5.111  17.212  1.0289 -0.7024  1.7249
19570TIP3    H280202   2.894   5.080  17.318 -1.4377  0.0100 -0.4349
19571TIP3   OH280203   1.144   2.246  11.807  0.4389  0.4244  0.4390
19571TIP3    H180204   1.200   2.318  11.835  0.1562  0.8806 -0.1462
19571TIP3    H280205   1.058   2.287  11.794  0.4095  0.0926 -0.4284
19572TIP3   OH280206   5.884   1.126   4.379  0.0754 -0.4272 -0.3559
19572TIP3    H180207   5.926   1.090   4.456  0.3977  0.0101 -0.3250
19572TIP3    H280208   5.797   1.085   4.377  0.4841 -1.2933 -0.3994
19573TIP3   OH280209   0.621   5.848  16.494  0.4552  0.0135 -0.2484
19573TIP3    H180210   0.658   5.829  16.408  0.0414  0.1314 -0.4553
19573TIP3    H280211   0.656   5.934  16.517  0.9763 -0.2450 -0.0690
19574TIP3   OH280212   2.765   3.877  12.069  0.3045 -0.2384  0.0354
19574TIP3    H180213   2.793   3.865  12.159  0.4436 -0.7781 -0.0779
19574TIP3    H280214   2.742   3.970  12.063  2.1421  0.2485  0.1186
19575TIP3   OH280215   5.498   3.490  16.710  0.3460 -0.5529  0.2673
19575TIP3    H180216   5.539   3.458  16.791 -1.7053 -0.5009  1.3611
19575TIP3    H280217   5.528   3.429  16.643  1.4637 -1.0597  1.2076
19576TIP3   OH280218   4.324   1.321   1.738 -0.5146 -0.0267 -0.2321
19576TIP3    H180219   4.316   1.359   1.825 -1.5066  1.1611 -0.8297
19576TIP3    H280220   4.416   1.333   1.714 -0.1911 -0.5477  0.7221
19577TIP3   OH280221   0.453   5.787  15.228  0.2068  0.1173  0.1397
19577TIP3    H180222   0.480   5.856  15.167  3.3870  1.3508  2.7704
19577TIP3    H280223   0.406   5.833  15.297 -2.1814 -1.0919 -0.6349
19578TIP3   OH280224   4.901   3.784   3.146 -0.0159  0.2585 -0.0658
19578TIP3    H180225   4.833   3.720   3.167  0.8089 -0.2342  1.1940
19578TIP3    H280226   4.855   3.868   3.143 -0.8047 -0.1652  0.0001
19579TIP3   OH280227   0.911   6.649   4.073 -0.2769 -0.6723 -0.0532
19579TIP3    H180228   0.888   6.735   4.108  2.1367 -0.4789  1.1329
19579TIP3    H280229   0.921   6.664   3.979  0.5693  0.4680  0.2017
19580TIP3   OH280230   4.995   0.416   5.154  0.2121 -0.0259 -0.6294
19580TIP3    H180231   5.011   0.510   5.165 -1.7644  0.5950 -2.6392
19580TIP3    H280232   5.052   0.391   5.081  0.4578 -0.3052 -0.3404
19581TIP3   OH280233   3.184   5.268   6.709  0.0549 -0.0902 -0.3542
19581TIP3    H180234   3.100   5.306   6.732 -0.2371 -0.3675 -0.9313
19581TIP3    H280235   3.187   5.186   6.758  0.9669  0.9652  1.3917
19582TIP3   OH280236   2.829   1.143  11.954 -0.4440  0.5303 -0.1527
19582TIP3    H180237   2.817   1.191  12.036 -2.2412  0.3029 -0.2621
19582TIP3    H280238   2.741   1.111  11.932  0.9690 -4.4520  0.8993
19583TIP3   OH280239   1.612   1.623   1.152  0.1586  0.1303 -0.4152
19583TIP3    H180240   1.654   1.669   1.225  2.2168  2.5078 -2.9633
19583TIP3    H280241   1.675   1.556   1.126 -0.9721 -1.3231  0.5541
19584TIP3   OH280242   2.074   4.089   6.680  0.2942 -0.1165  0.4084
19584TIP3    H180243   2.044   4.090   6.771  2.6925 -1.2298  1.2648
19584TIP3    H280244   2.059   4.178   6.649 -1.1110  0.1240  1.6858
19585TIP3   OH280245   2.518   5.791   3.145  0.6442  0.2523  0.3291
19585TIP3    H180246   2.536   5.700   3.167  0.9119  0.2732  0.2020
19585TIP3    H280247   2.598   5.838   3.169 -0.7772  1.0384  3.8134
19586TIP3   OH280248   2.841   4.838  10.759  0.2026  0.1861 -0.6299
19586TIP3    H180249   2.776   4.897  10.797 -0.9295 -1.4753  0.0925
19586TIP3    H280250   2.816   4.831  10.666  0.4959  1.0480 -0.7715
19587TIP3   OH280251   0.318   3.617   1.450  0.3847  0.4979 -0.0373
19587TIP3    H180252   0.413   3.622   1.442  0.4096  1.9803  1.0545
19587TIP3    H280253   0.285   3.678   1.383  0.2466  1.0750  0.5505
19588TIP3   OH280254   6.050   3.732  12.963  0.0430 -0.1273  0.4467
19588TIP3    H180255   6.115   3.664  12.982  2.6281  1.4628 -2.1863
19588TIP3    H280256   6.021   3.712  12.873 -3.1328 -0.7636  1.5533
19589TIP3   OH280257   3.890   3.340  13.406  0.1679 -0.0338  0.9523
19589TIP3    H180258   3.799   3.317  13.420  0.4100 -0.5650  1.7022
19589TIP3    H280259   3.924   3.360  13.494  0.5387  1.0530  0.5788
19590TIP3   OH280260   6.602   0.197  14.387 -0.2626 -0.2585  0.3567
19590TIP3    H180261   6.585   0.145  14.308  0.7467 -1.0805  0.6721
19590TIP3    H280262   6.529   0.259  14.390  0.0299  0.2183 -1.5784
19591TIP3   OH280263   0.774   3.409  12.247  0.3164 -0.1216 -0.0323
19591TIP3    H180264   0.692   3.427  12.200  0.4066 -0.2409 -0.2369
19591TIP3    H280265   0.759   3.444  12.335  0.3347  0.5807 -0.3034
19592TIP3   OH280266   3.542   5.669   2.224 -0.5162 -0.3357  0.1963
19592TIP3    H180267   3.545   5.628   2.137 -1.4750 -0.4636  0.2165
19592TIP3    H280268   3.560   5.761   2.208  0.0106 -0.4785 -0.0524
19593TIP3   OH280269   3.311   0.801  11.329  0.2756  0.0368 -0.3130
19593TIP3    H180270   3.265   0.883  11.344  3.2981  1.7734 -0.1036
19593TIP3    H280271   3.317   0.793  11.234  0.2238  0.2309 -0.3321
19594TIP3   OH280272   0.028   0.565   5.699 -0.1975  0.1835  0.3017
19594TIP3    H180273   0.122   0.562   5.713 -0.1680 -1.3153 -0.1758
19594TIP3    H280274  -0.006   0.485   5.739 -1.0179 -0.2756 -1.2550
19595TIP3   OH280275   4.565   6.604   0.997 -0.0345 -0.1821 -0.8411
19595TIP3    H180276   4.607   6.680   1.038  0.3577 -0.1572 -1.2926
19595TIP3    H280277   4.493   6.581   1.057 -0.9391  1.3107 -1.3273
19596TIP3   OH280278   6.063   6.637  15.180 -0.4597 -0.2908 -0.1682
19596TIP3    H180279   6.064   6.669  15.089  2.9011  0.0971 -0.0491
19596TIP3    H280280   6.155   6.624  15.202 -1.3602 -3.2050  2.2433
19597TIP3   OH280281   6.720   4.968   0.618 -0.5413 -0.4541  0.4010
19597TIP3    H180282   6.764   5.039   0.665 -0.8675 -2.0929  3.3189
19597TIP3    H280283   6.629   4.974   0.646 -1.4522  0.4964 -2.5839
19598TIP3   OH280284   5.552   0.304  14.680  0.0927  0.5250 -0.3337
19598TIP3    H180285   5.596   0.388  14.689 -1.4416  1.3506 -0.2968
19598TIP3    H280286   5.619   0.239  14.700  1.8076  1.6593 -2.2529
19599TIP3   OH280287   4.125   5.854  11.243  0.6001 -0.1334  0.3064
19599TIP3    H180288   4.188   5.924  11.227  0.1451  0.1504 -0.2386
19599TIP3    H280289   4.152   5.783  11.184  0.0257  0.2245 -0.3802
19600TIP3   OH280290   2.578   3.578   4.817 -0.0524  0.3614  0.0002
19600TIP3    H180291   2.583   3.483   4.810 -0.0713  0.2245  1.6405
19600TIP3    H280292   2.597   3.610   4.728  1.7100 -1.1079 -0.1810
19601TIP3   OH280293   1.489   2.428  15.463 -0.3515 -0.8011 -0.9914
19601TIP3    H180294   1.578   2.444  15.496 -1.0797 -0.5605  0.9309
19601TIP3    H280295   1.502   2.400  15.372  1.5940  0.7906 -1.2485
19602TIP3   OH280296   0.116   0.674  16.238  0.1976 -0.3837 -0.2172
19602TIP3    H180297   0.135   0.749  16.294  1.0488 -1.6887  1.2665
19602TIP3    H280298   0.043   0.630  16.281 -0.1391 -0.5634 -0.9524
19603TIP3   OH280299   4.943   6.790   0.285 -0.0904  0.2964  0.6689
19603TIP3    H180300   4.948   6.770   0.378 -1.2324 -1.9714  0.2737
19603TIP3    H280301   4.863   6.842   0.275 -0.0466  0.4126  0.9258
19604TIP3   OH280302   1.904   4.113  12.283 -0.8901 -0.0143 -0.2571
19604TIP3    H180303   1.845   4.185  12.261 -0.8538 -0.3554 -1.5122
19604TIP3    H280304   1.848   4.036  12.282 -0.8299 -0.0639  0.5782
19605TIP3   OH280305   0.571   6.271   5.070  0.2149 -0.2101  0.0352
19605TIP3    H180306   0.609   6.333   5.007  0.6095 -1.4775 -0.9978
19605TIP3    H280307   0.490   6.242   5.029 -0.9485  1.0582  1.3901
19606TIP3   OH280308   3.296   3.020  13.194 -0.1520  0.4687  0.3863
19606TIP3    H180309   3.390   2.999  13.196  0.1383  1.6248 -0.2661
19606TIP3    H280310   3.292   3.112  13.221 -1.1114  0.3958  0.5052
19607TIP3   OH280311   5.089   1.922  11.670 -0.1452  0.0493  0.2865
19607TIP3    H180312   5.130   1.867  11.738 -2.5318 -0.9184  1.0131
19607TIP3    H280313   5.068   1.861  11.600 -0.4454  0.5110 -0.0240
19608TIP3   OH280314   3.686   3.963   2.775 -0.0095 -0.4746  0.3697
19608TIP3    H180315   3.609   4.019   2.760 -0.2554 -0.8858  0.0963
19608TIP3    H280316   3.723   3.996   2.857  1.1577  1.5741 -0.9449
19609TIP3   OH280317   6.480   6.093  14.983  0.6929 -0.0562 -0.3238
19609TIP3    H180318   6.507   6.079  15.074 -1.4646  1.1227  0.5450
19609TIP3    H280319   6.387   6.069  14.982  0.6047  0.2836 -2.1551
19610TIP3   OH280320   3.356   2.792  14.321  0.0714  0.1415  0.0566
19610TIP3    H180321   3.421   2.831  14.379 -0.3699  1.6582 -0.4482
19610TIP3    H280322   3.367   2.839  14.238 -2.2089  0.9915  0.2105
19611TIP3   OH280323   5.531   1.652   4.112  0.4862  0.6177  0.0979
19611TIP3    H180324   5.555   1.740   4.083  1.0835  0.9638  1.5688
19611TIP3    H280325   5.601   1.627   4.173  0.8556 -1.2935 -1.0863
19612TIP3   OH280326   2.216   2.526   0.947 -0.1567 -0.1124 -0.4184
19612TIP3    H180327   2.146   2.575   0.906  2.3947  4.6839  0.6343
19612TIP3    H280328   2.262   2.484   0.874 -0.7384  1.3758 -1.6659
19613TIP3   OH280329   4.488   4.307  14.048 -0.1140 -0.2259  0.2577
19613TIP3    H180330   4.470   4.344  13.962 -1.0000 -0.9675  0.1262
19613TIP3    H280331   4.465   4.215  14.041 -2.6890  0.2334  2.0254
19614TIP3   OH280332   3.255   5.317  16.698  0.2897  0.8016 -0.1638
19614TIP3    H180333   3.315   5.318  16.773  1.4302 -1.0428 -1.0387
19614TIP3    H280334   3.175   5.277  16.732  0.0087  1.9884  0.6298
19615TIP3   OH280335   1.252   1.579   4.299  0.6961  0.2068 -0.5753
19615TIP3    H180336   1.288   1.665   4.324 -2.0462  1.2238  0.0182
19615TIP3    H280337   1.298   1.558   4.217  1.5903  2.1196 -0.6117
19616TIP3   OH280338   5.383   5.196   5.791 -0.3146 -0.5345 -0.1842
19616TIP3    H180339   5.443   5.129   5.759  0.1035 -0.3144  0.1346
19616TIP3    H280340   5.424   5.228   5.872  0.0084  0.8333 -0.8697
19617TIP3   OH280341   2.018   2.260   3.150 -0.2612 -0.3566 -0.4713
19617TIP3    H180342   1.957   2.332   3.164 -0.2876 -0.4593 -0.0389
19617TIP3    H280343   1.967   2.181   3.168 -0.1212 -0.4642 -0.5394
19618TIP3   OH280344   2.196   0.012  10.893 -0.1776  0.8525  0.2174
19618TIP3    H180345   2.152  -0.053  10.839 -0.7621  0.5068  1.0914
19618TIP3    H280346   2.173   0.096  10.854 -0.9307  0.6252  0.1765
19619TIP3   OH280347   1.667   5.134  12.559 -0.4648  0.3051 -0.1838
19619TIP3    H180348   1.675   5.044  12.588  0.0560  0.8358  1.3428
19619TIP3    H280349   1.756   5.168  12.560 -0.5826  0.6807 -1.3119
19620TIP3   OH280350   0.717   2.825  13.890 -0.0337  0.0451 -0.4820
19620TIP3    H180351   0.656   2.842  13.818  1.1883  0.2577 -1.4757
19620TIP3    H280352   0.704   2.733  13.911 -2.0365  0.5269  0.5869
19621TIP3   OH280353   6.102   5.345   6.339 -0.3811  0.3053  0.0091
19621TIP3    H180354   6.087   5.255   6.310  0.0511 -0.2598  1.5356
19621TIP3    H280355   6.015   5.385   6.340 -0.6800 -0.3459  0.1559
19622TIP3   OH280356   3.143   1.094  11.406 -0.2372 -0.5873 -0.0379
19622TIP3    H180357   3.140   1.098  11.310 -1.7676 -0.8452 -0.0173
19622TIP3    H280358   3.058   1.059  11.431  0.4023 -1.1535  1.3932
19623TIP3   OH280359   0.373   6.434   4.405  0.5525 -0.1610 -0.1957
19623TIP3    H180360   0.369   6.519   4.361  2.0323 -0.6452 -1.2962
19623TIP3    H280361   0.348   6.371   4.338  3.0165 -0.9244 -0.4336
19624TIP3   OH280362   2.783   2.220  13.780 -0.4402 -0.1657 -0.3081
19624TIP3    H180363   2.777   2.182  13.868 -1.6418  0.6704 -0.0166
19624TIP3    H280364   2.706   2.185  13.734  0.0930 -0.4665 -0.9677
19625TIP3   OH280365   5.704   0.855  16.943  0.1469  0.1965  0.0568
19625TIP3    H180366   5.740   0.940  16.921 -0.2667  0.1912 -0.6272
19625TIP3    H280367   5.719   0.846  17.038 -1.7443  1.9424  0.5458
19626TIP3   OH280368   2.626   5.737   3.411 -0.1613 -0.7937 -0.4679
19626TIP3    H180369   2.686   5.775   3.475 -0.6951  0.7077 -0.8439
19626TIP3    H280370   2.650   5.645   3.408  0.8505 -0.5866  0.8042
19627TIP3   OH280371   0.881   2.097  13.893 -0.5865 -0.1027  0.1048
19627TIP3    H180372   0.787   2.084  13.881 -0.8445  2.4417 -0.8289
19627TIP3    H280373   0.922   2.030  13.838 -1.8233 -1.9395  1.3648
19628TIP3   OH280374   2.671   6.477   4.020 -0.5630 -0.1116  0.4275
19628TIP3    H180375   2.607   6.534   3.977  0.7014  1.8861  1.1294
19628TIP3    H280376   2.658   6.493   4.113  0.2304 -0.5259  0.6128
19629TIP3   OH280377   2.381   1.713   6.594  0.2027 -0.6338 -0.1888
19629TIP3    H180378   2.454   1.767   6.563  1.4423 -2.2735 -0.1384
19629TIP3    H280379   2.308   1.738   6.537  0.7518  1.0754 -0.1831
19630TIP3   OH280380   1.458   4.187   5.762 -0.5505 -0.2707 -0.4969
19630TIP3    H180381   1.500   4.222   5.840 -2.9329 -0.9361  1.1363
19630TIP3    H280382   1.466   4.092   5.769  0.8854 -0.2911 -2.0449
19631TIP3   OH280383   3.952   0.020  15.643  0.2938 -0.7066 -0.7501
19631TIP3    H180384   4.039   0.058  15.631 -0.1911  0.5810 -0.2969
19631TIP3    H280385   3.968  -0.073  15.656  1.7018 -0.2901  0.6839
19632TIP3   OH280386   2.236   1.983  14.431  0.0955  0.4993  0.3029
19632TIP3    H180387   2.278   2.021  14.353 -1.8851  0.1442 -0.9724
19632TIP3    H280388   2.289   2.014  14.504  1.6230  1.3791 -1.1448
19633TIP3   OH280389   0.091   3.158   5.038  0.7127 -0.2215  0.3927
19633TIP3    H180390   0.111   3.169   4.944 -1.0571 -1.7374 -0.1850
19633TIP3    H280391   0.171   3.122   5.075  0.5373 -2.2679 -1.0964
19634TIP3   OH280392   0.992   0.605  15.435 -0.7836  0.7737  0.0093
19634TIP3    H180393   1.007   0.696  15.408 -1.7783  1.3680  1.3937
19634TIP3    H280394   0.971   0.559  15.353  3.2042  0.9843 -1.2502
19635TIP3   OH280395   3.354   0.312  14.943 -0.0479 -0.0506 -0.2513
19635TIP3    H180396   3.290   0.289  15.011  0.1358 -0.0843 -0.0906
19635TIP3    H280397   3.306   0.303  14.861  0.3693 -2.2175 -0.2926
19636TIP3   OH280398   4.773   4.472   5.426 -0.4026 -0.1182 -0.1897
19636TIP3    H180399   4.679   4.460   5.442 -0.7515  0.4537 -1.7522
19636TIP3    H280400   4.793   4.557   5.465 -0.6100 -0.0843 -0.1578
19637TIP3   OH280401   5.182   5.778  13.238 -0.5113  0.3844 -0.1439
19637TIP3    H180402   5.119   5.734  13.295 -1.8062  2.7203  0.2881
19637TIP3    H280403   5.132   5.798  13.159  0.6195 -0.6903 -1.1429
19638TIP3   OH280404   0.392   6.241   3.567  0.0308 -0.1796  0.0888
19638TIP3    H180405   0.352   6.156   3.546  0.6236 -0.7582  1.2193
19638TIP3    H280406   0.385   6.247   3.663 -0.6377  1.3691 -0.0404
19639TIP3   OH280407   3.002   3.788  15.492 -0.0329  0.1695  0.7497
19639TIP3    H180408   3.063   3.728  15.536 -0.3683  0.0787  1.0924
19639TIP3    H280409   2.928   3.796  15.552 -0.4628  0.1083  0.2315
19640TIP3   OH280410   0.766   6.644  17.194 -0.1885 -0.0577  0.1097
19640TIP3    H180411   0.823   6.619  17.266  2.7710  1.7890 -1.4967
19640TIP3    H280412   0.771   6.570  17.133  1.5750  0.6516 -0.6282
19641TIP3   OH280413   4.487   1.037   3.627  0.4695  0.2081  0.1377
19641TIP3    H180414   4.434   1.084   3.692  0.3508  1.1476 -0.6359
19641TIP3    H280415   4.562   1.094   3.611 -0.6233  1.0456 -2.2205
19642TIP3   OH280416   3.814   2.469   0.835 -0.6205 -0.0886 -0.4440
19642TIP3    H180417   3.751   2.454   0.765  0.4440 -0.6336 -1.3100
19642TIP3    H280418   3.897   2.437   0.799 -0.1704 -0.9095  1.2787
19643TIP3   OH280419   0.321   2.277  10.469  0.0357  0.1240 -0.3822
19643TIP3    H180420   0.359   2.308  10.386 -2.3060  1.1562 -1.1151
19643TIP3    H280421   0.298   2.357  10.516  0.0827 -0.4727  0.6584
19644TIP3   OH280422   2.409   1.948  12.341 -0.6988  0.2895 -0.1563
19644TIP3    H180423   2.418   1.855  12.364 -1.0795  0.6286  1.4499
19644TIP3    H280424   2.405   1.949  12.246 -1.9897 -1.4639 -0.1469
19645TIP3   OH280425   1.196   4.657  15.413  0.1210 -0.2655  1.1263
19645TIP3    H180426   1.127   4.641  15.477  0.5578  0.9401  1.9129
19645TIP3    H280427   1.219   4.749  15.425  2.1645 -0.7606  1.1762
19646TIP3   OH280428   1.037   4.688  11.571 -0.4101  0.2351  0.1610
19646TIP3    H180429   1.059   4.710  11.661  1.2540 -0.5418 -0.0341
19646TIP3    H280430   1.020   4.772  11.529 -0.0224  0.6964  0.9122
19647TIP3   OH280431   5.908   5.892   2.175 -0.4854  0.0076  0.7209
19647TIP3    H180432   5.972   5.934   2.117 -0.0620 -1.8924 -0.2521
19647TIP3    H280433   5.832   5.878   2.120 -1.1679  0.7989  1.4446
19648TIP3   OH280434   5.476   0.220  12.327  0.4917  0.1190 -0.2489
19648TIP3    H180435   5.548   0.226  12.389  1.2693 -2.5070 -0.8551
19648TIP3    H280436   5.397   0.222  12.381  0.9979  2.1024  0.4777
19649TIP3   OH280437   5.120   0.555   3.386  0.2876 -0.7497 -0.3539
19649TIP3    H180438   5.161   0.496   3.323 -1.1909  0.3085 -2.3404
19649TIP3    H280439   5.172   0.635   3.382 -0.2931 -0.3976 -0.8160
19650TIP3   OH280440   5.596   4.256   1.032  0.0247  0.1445 -0.5666
19650TIP3    H180441   5.520   4.278   0.978  0.0826  1.3305 -0.1634
19650TIP3    H280442   5.560   4.205   1.104 -0.2089 -0.4182 -1.0761
19651TIP3   OH280443   2.614   6.759   5.664 -0.0637  0.1257  0.0012
19651TIP3    H180444   2.630   6.684   5.721  0.8366 -0.3332 -0.8507
19651TIP3    H280445   2.527   6.790   5.689 -0.3652 -1.1005  0.4817
19652TIP3   OH280446   1.336   4.655   3.807 -0.0555  0.2178 -0.7534
19652TIP3    H180447   1.331   4.730   3.866 -0.8580 -0.4656  0.0541
19652TIP3    H280448   1.368   4.692   3.724 -0.0002  1.3671 -0.2276
19653TIP3   OH280449   0.421   6.468   6.115  0.7462  0.2378  0.1104
19653TIP3    H180450   0.502   6.438   6.074  0.4516 -0.1200 -0.2054
19653TIP3    H280451   0.445   6.552   6.155  1.3947 -0.0838  0.4170
19654TIP3   OH280452   0.620   3.085   5.465 -0.0911  0.5907 -0.5148
19654TIP3    H180453   0.649   3.120   5.549  1.2502 -0.7254 -0.4022
19654TIP3    H280454   0.674   3.132   5.401  3.7122 -3.0305 -0.2143
19655TIP3   OH280455   0.621   3.854   2.268  0.4998 -0.0926  0.1973
19655TIP3    H180456   0.640   3.767   2.302  2.3409 -0.4240 -1.5439
19655TIP3    H280457   0.592   3.839   2.178 -1.3125  0.9497  0.5872
19656TIP3   OH280458   0.169   3.599   4.233  0.2625 -0.3027  0.3857
19656TIP3    H180459   0.247   3.581   4.286  0.2838 -2.1183 -0.2343
19656TIP3    H280460   0.120   3.517   4.233 -1.9115  0.9533  1.1584
19657TIP3   OH280461   0.034   6.399  16.454 -0.1056  0.0640 -0.3582
19657TIP3    H180462  -0.006   6.315  16.429  1.8018 -1.2653  0.9616
19657TIP3    H280463   0.018   6.406  16.548 -0.5851  1.3849 -0.5275
19658TIP3   OH280464   6.065   2.291  14.495  0.5448 -0.3209 -0.2260
19658TIP3    H180465   6.116   2.263  14.571 -0.1178  0.9951  0.7315
19658TIP3    H280466   6.058   2.386  14.505 -1.3983 -0.3800 -0.7486
19659TIP3   OH280467   0.055   4.908  13.768  0.1255  0.4499 -0.1567
19659TIP3    H180468   0.032   4.821  13.735  1.1651  0.3619 -0.6749
19659TIP3    H280469  -0.027   4.957  13.767 -0.8134 -1.0248  1.7566
19660TIP3   OH280470   5.536   0.777  14.535  0.3446 -0.3893 -0.0863
19660TIP3    H180471   5.520   0.862  14.576 -0.7634 -0.7086  0.1720
19660TIP3    H280472   5.477   0.775  14.460  0.4849 -0.8615 -0.1890
19661TIP3   OH280473   4.233   4.578   0.579  0.4975 -0.1968 -0.4546
19661TIP3    H180474   4.172   4.594   0.651 -0.4901 -0.5350 -1.2036
19661TIP3    H280475   4.239   4.483   0.574 -0.1285 -0.2001 -1.3712
19662TIP3   OH280476   0.593   0.444  11.433  0.0743 -0.0462  0.7373
19662TIP3    H180477   0.610   0.351  11.442  0.1208 -0.2146 -1.0095
19662TIP3    H280478   0.498   0.452  11.444  0.3519  0.0094  3.2699
19663TIP3   OH280479   1.437   0.648  12.868 -0.3517  0.2048 -0.4459
19663TIP3    H180480   1.532   0.638  12.877 -0.4256  0.3319  0.5986
19663TIP3    H280481   1.412   0.581  12.805  0.2232 -0.9260  0.4995
19664TIP3   OH280482   5.826   1.412   3.314  0.3474  0.3143  0.2551
19664TIP3    H180483   5.840   1.505   3.300  0.6993  0.1938 -0.2044
19664TIP3    H280484   5.793   1.405   3.404  1.3992  0.7660  0.6764
19665TIP3   OH280485   1.409   4.003  14.078 -0.0959  0.0194 -0.1919
19665TIP3    H180486   1.316   3.982  14.065 -0.7817  1.8834  1.4500
19665TIP3    H280487   1.419   4.010  14.173  1.2239  1.9448 -0.4395
19666TIP3   OH280488   4.154   6.094  11.717  0.1875 -0.2720 -0.0968
19666TIP3    H180489   4.114   6.168  11.671 -1.4233 -0.7517  0.5107
19666TIP3    H280490   4.225   6.066  11.659 -0.8696  0.0711 -1.5982
19667TIP3   OH280491   4.373   0.163   3.649  0.1945 -0.3777  0.2297
19667TIP3    H180492   4.341   0.177   3.560 -0.1390 -4.6124 -0.4148
19667TIP3    H280493   4.294   0.150   3.701  0.4261  1.2687  1.0129
19668TIP3   OH280494   4.058   0.428  11.638  0.0246  0.1546  0.3544
19668TIP3    H180495   3.972   0.420  11.679 -0.4134  1.7071 -0.2279
19668TIP3    H280496   4.087   0.517  11.657  1.9793 -0.6723  1.4180
19669TIP3   OH280497   1.125   6.347  13.448 -0.1709  0.6091 -0.0651
19669TIP3    H180498   1.108   6.364  13.541 -1.7336  0.2070 -0.2580
19669TIP3    H280499   1.187   6.274  13.448 -0.7695  0.0914  0.6611
19670TIP3   OH280500   2.565   5.384   2.014 -0.4649  0.1584 -0.0932
19670TIP3    H180501   2.583   5.295   1.984  0.1936  0.2947 -0.0947
19670TIP3    H280502   2.479   5.377   2.057 -0.4918 -0.4403 -0.2386
19671TIP3   OH280503   0.443   0.424   4.464  0.4783  0.2864  0.0118
19671TIP3    H180504   0.400   0.345   4.429  2.3874 -0.7595 -0.0684
19671TIP3    H280505   0.425   0.422   4.558 -0.2827  0.2956 -0.1245
19672TIP3   OH280506   3.123   4.989  17.124 -0.4633 -0.0797  0.2057
19672TIP3    H180507   3.175   5.060  17.085  0.1787 -0.9318 -0.5022
19672TIP3    H280508   3.182   4.914  17.125 -0.3036  0.0546  3.3308
19673TIP3   OH280509   1.959   2.218  11.647  0.0267  0.2003  0.3947
19673TIP3    H180510   1.975   2.152  11.580  0.5669  1.7075 -0.9955
19673TIP3    H280511   1.992   2.300  11.609  0.3275  1.0858  2.4922
19674TIP3   OH280512   3.684   6.434  16.954 -0.3905 -0.5498  0.7200
19674TIP3    H180513   3.687   6.356  16.897  1.1396 -0.2744  0.4088
19674TIP3    H280514   3.625   6.409  17.025 -0.9551 -1.5259 -0.0679
19675TIP3   OH280515   5.509   1.782  16.235  0.1357 -0.3321  0.2045
19675TIP3    H180516   5.592   1.805  16.194 -0.2834 -0.6514 -0.8235
19675TIP3    H280517   5.470   1.717  16.177 -1.3145  0.5684  0.1354
19676TIP3   OH280518   5.355   2.948  15.194  0.4568 -0.3510 -0.3942
19676TIP3    H180519   5.445   2.927  15.218  1.0544  2.5126  0.0514
19676TIP3    H280520   5.307   2.948  15.277  0.1413 -1.4669 -0.5794
19677TIP3   OH280521   6.650   6.154  12.915 -0.3665  0.6767 -0.4956
19677TIP3    H180522   6.605   6.168  12.832 -0.1743 -0.9756 -0.8968
19677TIP3    H280523   6.721   6.094  12.893  0.1467  0.8406  0.7205
19678TIP3   OH280524   6.166   6.217  16.274 -0.4222 -0.6150 -0.0438
19678TIP3    H180525   6.194   6.211  16.365 -1.6096  0.1531  0.3884
19678TIP3    H280526   6.096   6.152  16.266 -1.6631  0.6597  0.1408
19679TIP3   OH280527   2.253   5.928   4.934 -0.0306  0.0696 -0.5487
19679TIP3    H180528   2.253   5.851   4.877 -0.3054  0.0220 -0.4816
19679TIP3    H280529   2.215   5.998   4.880 -1.5882 -0.3093  0.0413
19680TIP3   OH280530   5.590   6.060   1.239 -0.6630 -0.5042 -0.2061
19680TIP3    H180531   5.625   6.059   1.328 -0.8073  1.2347 -0.1201
19680TIP3    H280532   5.545   6.144   1.232  2.5325  1.0563 -3.1883
19681TIP3   OH280533   5.119   6.512   0.008 -0.3605  0.1765 -0.1362
19681TIP3    H180534   5.122   6.422   0.038  2.9882 -0.4524 -2.1108
19681TIP3    H280535   5.062   6.511  -0.068 -1.3307 -0.0219  0.5934
19682TIP3   OH280536   3.242   6.681   5.466  0.1016  0.1925  0.3874
19682TIP3    H180537   3.255   6.717   5.378 -0.1030  0.3829  0.4359
19682TIP3    H280538   3.170   6.732   5.503 -2.5783 -2.4934 -0.8486
19683TIP3   OH280539   4.485   0.337   4.868  0.1409 -0.1369  0.2219
19683TIP3    H180540   4.551   0.357   4.935 -0.7093 -2.4559  1.8138
19683TIP3    H280541   4.509   0.392   4.794  1.8888  1.5335  1.9717
19684TIP3   OH280542   1.971   5.176  14.110  0.0288 -0.1006  0.7734
19684TIP3    H180543   1.918   5.253  14.127  0.8495  0.2487  1.8237
19684TIP3    H280544   1.914   5.118  14.060 -1.2262  0.3944  1.6124
19685TIP3   OH280545   6.628   4.331   3.553 -0.8859  0.4310  0.1209
19685TIP3    H180546   6.666   4.297   3.634  0.6679  0.5834 -0.5177
19685TIP3    H280547   6.538   4.297   3.552 -1.3204  1.4140  2.4867
19686TIP3   OH280548   3.021   3.873  15.811 -0.1098  0.6165 -0.2195
19686TIP3    H180549   2.948   3.922  15.774 -1.0881  0.1966  1.1078
19686TIP3    H280550   2.991   3.847  15.898  0.9953 -0.9935 -0.2926
19687TIP3   OH280551   1.307   4.410  16.653 -0.6284 -0.9133 -0.1112
19687TIP3    H180552   1.283   4.319  16.634  1.4821 -1.4048 -0.5478
19687TIP3    H280553   1.262   4.461  16.586  1.8413 -2.0868 -2.7896
19688TIP3   OH280554   1.490   2.148  16.928 -0.5985  0.0789 -0.2558
19688TIP3    H180555   1.480   2.058  16.899  0.0943 -0.2863  0.6197
19688TIP3    H280556   1.583   2.156  16.949 -1.0257  0.4295  1.5155
19689TIP3   OH280557   2.499   1.179  13.702  0.8907 -0.1504  0.5032
19689TIP3    H180558   2.440   1.214  13.768  0.8516 -0.8067  0.8207
19689TIP3    H280559   2.556   1.253  13.679  0.4554  0.2665  0.7645
19690TIP3   OH280560   2.411   1.042  17.076 -0.1316  0.3403 -0.1573
19690TIP3    H180561   2.386   0.951  17.057 -0.9051  0.3363  0.8133
19690TIP3    H280562   2.499   1.035  17.114  0.5140  0.1635 -1.6409
19691TIP3   OH280563   5.846   0.118   2.702  0.5689  0.0798 -0.3071
19691TIP3    H180564   5.903   0.142   2.774  0.4505 -1.4890  0.3257
19691TIP3    H280565   5.895   0.141   2.623  0.7550  1.6597  0.2618
19692TIP3   OH280566   2.884   4.397  11.560  0.0433 -0.2157 -0.0074
19692TIP3    H180567   2.876   4.302  11.558 -0.1459 -0.1769 -2.3696
19692TIP3    H280568   2.978   4.414  11.567  0.0448 -0.5537  0.9036
19693TIP3   OH280569   2.625   2.650  12.101  0.1739 -0.1775  0.1765
19693TIP3    H180570   2.562   2.617  12.036  0.1892  1.1866 -0.5598
19693TIP3    H280571   2.711   2.626  12.066  0.3129  2.5958 -1.5561
19694TIP3   OH280572   5.821   3.925  11.670 -0.4675  0.0042  0.4019
19694TIP3    H180573   5.855   3.930  11.759 -1.8112  0.5722  0.8999
19694TIP3    H280574   5.822   3.831  11.649  2.3046  0.0868  0.0206
19695TIP3   OH280575   5.975   3.791  12.687 -0.2249 -0.2300  0.1225
19695TIP3    H180576   5.987   3.882  12.658  2.3054  0.1827  2.2801
19695TIP3    H280577   6.049   3.744  12.649 -0.9201 -1.1749 -0.0819
19696TIP3   OH280578   2.215   3.003   5.472 -0.1351 -0.1102 -0.6309
19696TIP3    H180579   2.187   2.911   5.468  1.2821 -0.6307  0.9754
19696TIP3    H280580   2.244   3.023   5.383 -0.6000 -1.1583 -1.0289
19697TIP3   OH280581   1.188   2.769   1.035 -0.3083 -0.0932 -0.1551
19697TIP3    H180582   1.113   2.736   1.084  0.1309 -0.1555  0.4675
19697TIP3    H280583   1.264   2.749   1.089 -0.0078  1.6854  0.1150
19698TIP3   OH280584   6.515   2.263  17.041  0.1803  0.3237 -0.0341
19698TIP3    H180585   6.591   2.312  17.074  0.1738 -0.2974  0.9151
19698TIP3    H280586   6.449   2.330  17.025  0.8252  0.8371 -0.5809
19699TIP3   OH280587   3.510   5.928  14.139 -0.3079  0.1624  0.3172
19699TIP3    H180588   3.592   5.963  14.174 -0.1809  0.0733  0.1112
19699TIP3    H280589   3.537   5.851  14.088 -0.2228  1.6475 -1.9558
19700TIP3   OH280590   1.184   3.092  11.329  0.3029 -0.3934  0.3136
19700TIP3    H180591   1.108   3.097  11.271  1.6393 -1.3249 -1.5743
19700TIP3    H280592   1.258   3.122  11.275  1.2879  0.5630  2.1277
19701TIP3   OH280593   4.671   4.205  15.599  0.2983  0.0604  0.1107
19701TIP3    H180594   4.698   4.294  15.576  0.2668  0.3288  1.0694
19701TIP3    H280595   4.730   4.180  15.670  0.7244 -0.9305 -0.5762
19702TIP3   OH280596   0.072   3.599  16.581 -0.0775 -0.0309 -0.0250
19702TIP3    H180597  -0.004   3.596  16.522  0.0257  0.4985 -0.1879
19702TIP3    H280598   0.073   3.689  16.614 -0.9850 -0.7170  1.9207
19703TIP3   OH280599   4.635   2.328  10.753  0.2635  0.1651 -0.2299
19703TIP3    H180600   4.619   2.401  10.694  2.3465  0.4576 -0.4557
19703TIP3    H280601   4.669   2.369  10.833  0.3064 -0.4573  0.0753
19704TIP3   OH280602   0.243   3.713   6.082  0.0843 -0.4386 -0.3918
19704TIP3    H180603   0.164   3.688   6.035  0.2867 -2.1684  0.1730
19704TIP3    H280604   0.214   3.727   6.173  0.1996  0.2007 -0.4478
19705TIP3   OH280605   0.621   1.804  11.977  0.5389  0.3178 -0.1884
19705TIP3    H180606   0.694   1.866  11.987  1.8762 -1.1589 -0.5064
19705TIP3    H280607   0.623   1.779  11.884  0.6139 -0.9001  0.1307
19706TIP3   OH280608   5.189   4.470   0.459  0.1433 -0.2375  0.4474
19706TIP3    H180609   5.257   4.536   0.474  0.6398 -0.6495  0.0322
19706TIP3    H280610   5.199   4.409   0.532  1.1334 -1.0503 -0.3409
19707TIP3   OH280611   6.216   6.271   1.530 -0.1621  0.4549  0.4164
19707TIP3    H180612   6.302   6.308   1.511 -0.0975 -0.5968 -1.4926
19707TIP3    H280613   6.233   6.199   1.591  0.3644 -0.0523 -0.3310
19708TIP3   OH280614   4.341   1.534  15.515  0.5038 -0.3879 -0.1532
19708TIP3    H180615   4.276   1.530  15.586  1.5925  2.7604  1.1434
19708TIP3    H280616   4.416   1.485  15.549 -1.1677 -4.2023 -1.7352
19709TIP3   OH280617   4.471   4.189  17.247 -0.5915  0.3061  0.3470
19709TIP3    H180618   4.427   4.106  17.260  0.3315 -0.6535 -2.3452
19709TIP3    H280619   4.519   4.204  17.328 -0.9246 -1.6867  0.9247
19710TIP3   OH280620   2.814   2.781  11.142  0.1563 -0.2532 -0.9535
19710TIP3    H180621   2.818   2.718  11.214 -1.8977 -1.2966 -1.7193
19710TIP3    H280622   2.772   2.859  11.180 -0.4088 -0.5995 -0.8625
19711TIP3   OH280623   5.211   1.652   4.649 -0.5900 -0.4012 -0.4189
19711TIP3    H180624   5.278   1.719   4.665 -0.0206 -0.8356 -1.0020
19711TIP3    H280625   5.226   1.623   4.560 -1.2576 -0.8442 -0.3912
19712TIP3   OH280626   1.710   3.744   0.922 -0.2015 -0.2883  0.3781
19712TIP3    H180627   1.800   3.721   0.900 -0.8121 -0.5113 -2.0495
19712TIP3    H280628   1.659   3.667   0.899 -1.2346  0.5112 -0.0681
19713TIP3   OH280629   6.239   6.036   0.638  0.6927  0.0147  0.1806
19713TIP3    H180630   6.146   6.028   0.659  0.5354  1.8134  0.2249
19713TIP3    H280631   6.242   6.030   0.542  0.6193 -0.7774  0.2241
19714TIP3   OH280632   3.824   6.604   3.641  0.3816 -0.3974 -0.2229
19714TIP3    H180633   3.752   6.581   3.583  0.8124 -0.1860 -0.8476
19714TIP3    H280634   3.819   6.699   3.649 -1.0713 -0.6236  1.9276
19715TIP3   OH280635   3.964   2.128   0.804  0.2053 -0.2256  0.8478
19715TIP3    H180636   4.004   2.210   0.833  0.7229 -0.2426  0.2082
19715TIP3    H280637   3.960   2.137   0.708  0.6815 -1.1406  0.7454
19716TIP3   OH280638   2.362   4.995  12.089  0.5126 -0.5783  0.4762
19716TIP3    H180639   2.341   4.964  12.001  1.5331 -0.0656  0.0374
19716TIP3    H280640   2.364   5.090  12.082  0.1944 -0.5168  1.1508
19717TIP3   OH280641   0.568   4.245  13.753  0.3648 -0.2471  0.0977
19717TIP3    H180642   0.517   4.296  13.816 -0.6858 -0.0477 -0.8949
19717TIP3    H280643   0.633   4.308  13.719  1.0633 -0.4075  1.0987
19718TIP3   OH280644   4.617   6.704   2.399 -0.3528  0.5159 -0.2310
19718TIP3    H180645   4.527   6.703   2.365 -0.4784 -0.2292  0.1009
19718TIP3    H280646   4.670   6.672   2.326 -0.4402  0.3129 -0.2059
19719TIP3   OH280647   0.133   4.421  15.880 -0.4487  0.3802  0.2434
19719TIP3    H180648   0.039   4.407  15.865 -1.3518  5.2078  0.6616
19719TIP3    H280649   0.175   4.383  15.802 -3.3609  4.4395 -3.5838
19720TIP3   OH280650   3.311   0.959  12.550  0.0721  0.4669 -0.3085
19720TIP3    H180651   3.343   0.898  12.484  0.7659  1.0598 -0.5272
19720TIP3    H280652   3.233   0.917  12.586 -1.1738  0.8029 -2.5345
19721TIP3   OH280653   1.037   4.251   1.614 -0.0055  1.0385 -0.3055
19721TIP3    H180654   0.964   4.228   1.671  1.0725  0.7726  1.0034
19721TIP3    H280655   1.008   4.331   1.570 -0.6977  1.5146  0.9635
19722TIP3   OH280656   5.516   0.494   1.073  0.3619 -0.0738  0.2603
19722TIP3    H180657   5.597   0.465   1.030  0.9345  0.8409  0.7207
19722TIP3    H280658   5.541   0.510   1.163  0.0740  1.9372  0.0029
19723TIP3   OH280659   0.859   6.172   0.379  0.2587 -0.3941 -0.1743
19723TIP3    H180660   0.818   6.184   0.293  2.3762  2.3520 -0.8404
19723TIP3    H280661   0.818   6.237   0.435  0.7453 -0.4385  0.2397
19724TIP3   OH280662   1.822   6.418  12.533  0.0176  0.0897  0.5743
19724TIP3    H180663   1.822   6.373  12.449 -0.5267  1.3617 -0.1087
19724TIP3    H280664   1.777   6.358  12.593 -0.3390 -0.4475 -0.2323
19725TIP3   OH280665   3.312   0.813   5.994  0.2899  0.0992 -0.1234
19725TIP3    H180666   3.333   0.875   5.924 -1.5222  0.3759 -0.4378
19725TIP3    H280667   3.346   0.729   5.964  0.8869  0.5258 -0.6409
19726TIP3   OH280668   2.723   5.846   3.875  0.4366  0.7198 -0.2556
19726TIP3    H180669   2.801   5.871   3.924  1.6202 -2.3537 -0.4571
19726TIP3    H280670   2.664   5.808   3.941  0.3335  0.3583 -0.5525
19727TIP3   OH280671   5.499   2.433  12.933 -0.0775 -0.4125 -0.0556
19727TIP3    H180672   5.424   2.444  12.875  0.1414  1.3945 -0.0168
19727TIP3    H280673   5.575   2.437  12.874  0.0034 -2.2264 -0.0945
19728TIP3   OH280674   6.055   2.403   5.701  0.3811  0.1985 -0.9032
19728TIP3    H180675   5.981   2.354   5.664 -0.3817  0.8113 -0.1835
19728TIP3    H280676   6.069   2.476   5.640 -0.6314  0.9912 -0.1852
19729TIP3   OH280677   1.411   4.735   0.325 -0.2683  0.5246 -0.3302
19729TIP3    H180678   1.437   4.779   0.244 -1.5602  0.2663 -0.8994
19729TIP3    H280679   1.367   4.655   0.296 -0.2180  0.1393  0.6436
19730TIP3   OH280680   2.242   1.858   1.358 -0.0954  0.0860  0.1350
19730TIP3    H180681   2.173   1.800   1.325 -0.6412  1.6552 -1.6087
19730TIP3    H280682   2.212   1.883   1.445 -0.5916 -1.0494  0.3057
19731TIP3   OH280683   5.726   3.092   0.994  0.6421 -0.1387  0.0392
19731TIP3    H180684   5.645   3.118   0.951  1.5724  0.2079 -1.5232
19731TIP3    H280685   5.773   3.174   1.008  1.4563 -0.4989 -0.5705
19732TIP3   OH280686   4.130   3.326   4.702  0.1913  0.0449 -0.3360
19732TIP3    H180687   4.160   3.416   4.718  0.0773  0.2771 -1.4267
19732TIP3    H280688   4.210   3.273   4.709  0.1949  0.1704  0.7141
19733TIP3   OH280689   4.137   3.650   1.844 -0.4391 -0.1524  0.2124
19733TIP3    H180690   4.139   3.740   1.876  0.1533  0.0380 -0.3550
19733TIP3    H280691   4.226   3.618   1.857 -0.8464 -0.9407  1.1880
19734TIP3   OH280692   6.235   6.358  15.975 -0.0013  0.3333 -0.0618
19734TIP3    H180693   6.142   6.378  15.969  0.5004  2.5568 -1.0549
19734TIP3    H280694   6.239   6.263  15.990 -2.4024  0.2322  0.0385
19735TIP3   OH280695   2.813   0.528   0.012 -0.5779  0.1624  0.1869
19735TIP3    H180696   2.723   0.498   0.014 -0.7852  0.8154  3.0599
19735TIP3    H280697   2.809   0.621   0.034  0.6619  0.6486 -1.4690
19736TIP3   OH280698   0.465   1.465   1.962 -0.1332 -0.2645 -0.6097
19736TIP3    H180699   0.430   1.502   2.043  1.4649  0.2347 -0.1314
19736TIP3    H280700   0.389   1.428   1.918 -1.1560  0.2254  0.7112
19737TIP3   OH280701   4.639   3.269   0.830 -0.2795 -0.3104  0.3628
19737TIP3    H180702   4.687   3.202   0.782 -0.2927  0.2507 -0.4420
19737TIP3    H280703   4.669   3.352   0.793  0.0218  0.1499  1.6188
19738TIP3   OH280704   2.902   3.516   1.218 -0.5077 -0.0223  0.1868
19738TIP3    H180705   2.908   3.529   1.123  1.0618  0.1072  0.2929
19738TIP3    H280706   2.966   3.577   1.254 -1.5934  0.4375  1.3829
19739TIP3   OH280707   0.410   4.131  16.452 -0.6587  0.4863  0.0370
19739TIP3    H180708   0.417   4.063  16.519 -2.3238 -1.2754 -1.5336
19739TIP3    H280709   0.467   4.100  16.381  0.2562  1.8080  0.1747
19740TIP3   OH280710   1.855   4.673  16.320 -0.0486  0.2731 -0.0685
19740TIP3    H180711   1.780   4.626  16.283  0.7314 -1.8665  0.9861
19740TIP3    H280712   1.851   4.760  16.279 -2.9878  0.1623 -0.1655
19741TIP3   OH280713   1.507   6.722  12.457 -0.2221  0.5838 -0.4543
19741TIP3    H180714   1.488   6.814  12.441 -1.4790  0.0337 -2.1711
19741TIP3    H280715   1.471   6.704  12.544  0.7073  1.8800  0.2164
19742TIP3   OH280716   4.089   2.138  13.780  0.2539  0.4665  0.8089
19742TIP3    H180717   4.178   2.172  13.770 -0.0922  1.7911  2.0482
19742TIP3    H280718   4.044   2.203  13.834 -1.2690 -0.5467  0.8070
19743TIP3   OH280719   4.143   3.231   0.391 -0.2579  0.4556 -0.3446
19743TIP3    H180720   4.178   3.231   0.302  3.1247  2.5943  0.9066
19743TIP3    H280721   4.107   3.319   0.403  1.5499  1.0237  1.1839
19744TIP3   OH280722   3.845   3.385   0.634 -0.4561  0.2809  0.4258
19744TIP3    H180723   3.844   3.295   0.666  0.9706  0.7909  1.9906
19744TIP3    H280724   3.831   3.439   0.712  0.0756  1.4529 -0.2626
19745TIP3   OH280725   1.183   6.456   3.350  0.4445 -0.2695 -0.2969
19745TIP3    H180726   1.116   6.441   3.416  0.5834 -3.3261 -0.7996
19745TIP3    H280727   1.139   6.507   3.282 -0.4384  0.5596  0.8693
19746TIP3   OH280728   6.096   2.105  11.986  0.2587  0.6355  0.9004
19746TIP3    H180729   6.005   2.127  12.004 -0.3404 -1.7436  0.9360
19746TIP3    H280730   6.111   2.139  11.898 -1.5872 -1.4382 -0.2934
19747TIP3   OH280731   4.974   1.571   0.518 -0.7647  0.3429 -0.6505
19747TIP3    H180732   5.023   1.653   0.514  0.1625 -0.0483  1.6159
19747TIP3    H280733   4.901   1.591   0.577 -0.7840 -0.3273 -0.4441
19748TIP3   OH280734   4.579   0.601  11.457 -0.0247 -0.1821  0.5490
19748TIP3    H180735   4.657   0.567  11.500 -1.0891 -1.5400  1.4335
19748TIP3    H280736   4.591   0.696  11.455  1.6941 -0.3956  0.5663
19749TIP3   OH280737   4.536   3.704  16.101  0.3887  0.1845  0.1669
19749TIP3    H180738   4.482   3.780  16.079  0.4131  0.6611  1.6546
19749TIP3    H280739   4.623   3.740  16.119  0.5441 -0.2628  0.3353
19750TIP3   OH280740   1.053   6.011   3.292 -0.2329 -0.4507  0.2724
19750TIP3    H180741   1.032   6.092   3.246  0.4453 -0.7396 -0.5361
19750TIP3    H280742   1.144   6.022   3.320 -0.6294 -0.2816  1.5409
19751TIP3   OH280743   4.973   6.045   2.041  0.2084 -0.6061 -0.5603
19751TIP3    H180744   4.959   6.009   2.129  1.4757 -0.0767 -0.1377
19751TIP3    H280745   4.895   6.017   1.992 -0.6566 -0.6565  0.8004
19752TIP3   OH280746   3.339   3.217   1.885 -0.4453 -0.1216  0.4120
19752TIP3    H180747   3.373   3.306   1.877  1.7870 -0.7773  2.0458
19752TIP3    H280748   3.417   3.162   1.893 -1.7374 -2.3492 -1.4599
19753TIP3   OH280749   1.127   3.166   4.887  0.4158  0.3785  0.2766
19753TIP3    H180750   1.083   3.235   4.836 -0.4204 -2.4126 -2.9994
19753TIP3    H280751   1.063   3.095   4.891  1.4988 -0.5040  3.0170
19754TIP3   OH280752   3.669   5.426  16.357  0.1601  0.4007  0.3413
19754TIP3    H180753   3.612   5.459  16.426  2.4049  3.3286  0.8943
19754TIP3    H280754   3.615   5.428  16.278 -0.8588  1.9861  1.0658
19755TIP3   OH280755   5.692   4.150   4.546 -0.1215  0.2546 -0.7183
19755TIP3    H180756   5.705   4.227   4.491 -0.7832  0.2407 -0.8972
19755TIP3    H280757   5.666   4.080   4.485  0.7816 -0.1954 -0.5976
19756TIP3   OH280758   0.701   0.443   0.684 -0.8789  0.2556 -0.0175
19756TIP3    H180759   0.723   0.359   0.724 -0.0164 -0.6647 -2.3192
19756TIP3    H280760   0.772   0.501   0.711 -1.4695  0.2637  1.5761
19757TIP3   OH280761   0.551   0.728   3.020 -0.1046  0.3925 -0.2731
19757TIP3    H180762   0.533   0.685   3.103 -0.6131  1.4597  0.1794
19757TIP3    H280763   0.585   0.658   2.963 -1.1254 -0.6369  0.3648
19758TIP3   OH280764   0.851   3.319  10.990 -0.2093  0.2204  0.0381
19758TIP3    H180765   0.822   3.301  11.080 -0.3988 -0.3844 -0.1459
19758TIP3    H280766   0.859   3.415  10.987  0.0551  0.2281  0.7763
19759TIP3   OH280767   1.579   5.551   2.529  0.0600 -0.0114 -0.3424
19759TIP3    H180768   1.594   5.520   2.440  0.8015  1.7605 -0.8525
19759TIP3    H280769   1.655   5.522   2.578  0.5481  0.6189 -0.7225
19760TIP3   OH280770   6.563   2.387  16.483  0.3421 -0.6534 -0.2507
19760TIP3    H180771   6.514   2.438  16.548 -1.2551 -0.1021 -1.8466
19760TIP3    H280772   6.595   2.311  16.532  0.2356  0.3677  1.4635
19761TIP3   OH280773   5.732   5.850   4.847  0.3857  0.2746 -0.2398
19761TIP3    H180774   5.681   5.915   4.799  0.3812 -0.2366 -0.9452
19761TIP3    H280775   5.814   5.843   4.798  0.2417 -0.5000 -0.3749
19762TIP3   OH280776   6.545   6.730   2.151 -0.2124  0.2503 -0.2043
19762TIP3    H180777   6.583   6.650   2.113 -0.0725  0.9200 -1.5163
19762TIP3    H280778   6.612   6.797   2.138 -0.7481  0.8195 -0.0546
19763TIP3   OH280779   6.317   6.458   2.391  0.1761 -0.0556  0.6041
19763TIP3    H180780   6.355   6.526   2.446 -0.8065  1.5058 -0.5979
19763TIP3    H280781   6.242   6.500   2.349  1.4621 -0.8866 -2.6680
19764TIP3   OH280782   3.353   2.817  11.202 -0.1024  0.2936 -0.0774
19764TIP3    H180783   3.304   2.764  11.264  0.0319 -0.3192 -0.4948
19764TIP3    H280784   3.403   2.754  11.150  0.4904  0.8587 -0.2054
19765TIP3   OH280785   6.669   6.604  11.109 -0.4258  0.4902  0.5309
19765TIP3    H180786   6.692   6.694  11.087  0.5513  0.0112 -0.4685
19765TIP3    H280787   6.705   6.551  11.037  0.9975 -0.9074  2.2221
19766TIP3   OH280788   5.337   3.636  13.745 -0.3776 -0.1205 -0.3298
19766TIP3    H180789   5.316   3.690  13.669 -1.0154  1.2862  0.8170
19766TIP3    H280790   5.432   3.626  13.742 -0.3299  0.4667 -0.9420
19767TIP3   OH280791   4.920   4.117   6.323 -0.8427  0.0967  0.3690
19767TIP3    H180792   4.898   4.024   6.335  1.0661 -0.5922 -1.0810
19767TIP3    H280793   4.914   4.130   6.228  0.7825  0.9418  0.3741
19768TIP3   OH280794   4.524   1.451  11.210 -0.1253 -0.0991 -0.0964
19768TIP3    H180795   4.619   1.435  11.210 -0.2163 -0.7736 -1.4204
19768TIP3    H280796   4.495   1.420  11.296  0.7616 -0.4838  0.0791
19769TIP3   OH280797   6.331   6.769  13.788  0.0686 -1.0074 -0.1913
19769TIP3    H180798   6.299   6.733  13.706  0.2801 -0.9591 -0.2939
19769TIP3    H280799   6.403   6.711  13.813  0.1861 -0.8589 -0.1815
19770TIP3   OH280800   1.415   6.317   1.294 -0.4613  0.4391 -0.0699
19770TIP3    H180801   1.447   6.230   1.269  0.1964  0.8630 -0.7157
19770TIP3    H280802   1.320   6.309   1.286 -0.4260 -0.2918  0.1153
19771TIP3   OH280803   5.284   2.103   0.502 -0.1922  0.2738  0.0103
19771TIP3    H180804   5.314   2.015   0.478  0.6399  0.8559 -1.1268
19771TIP3    H280805   5.319   2.117   0.590 -0.6972 -0.6934  0.3778
19772TIP3   OH280806   0.956   1.340   5.670 -0.0220 -0.3193  0.3757
19772TIP3    H180807   0.944   1.421   5.622  0.8142 -1.8793 -2.6213
19772TIP3    H280808   1.045   1.345   5.706 -0.6176  0.8155  1.7262
19773TIP3   OH280809   2.840   4.976   6.187  0.4456  0.4810  0.0822
19773TIP3    H180810   2.914   4.941   6.237 -0.7291 -0.6174  1.1131
19773TIP3    H280811   2.763   4.931   6.224 -0.6419  0.9459 -1.5527
19774TIP3   OH280812   3.110   1.164   3.403  0.1297  0.3424  0.8461
19774TIP3    H180813   3.086   1.252   3.430 -0.9728  0.5955 -0.9583
19774TIP3    H280814   3.108   1.113   3.485  0.2649  1.8497  1.8045
19775TIP3   OH280815   0.919   0.507  16.371 -0.7828 -0.1860 -0.3096
19775TIP3    H180816   0.986   0.452  16.332 -1.4927 -0.7496 -0.7641
19775TIP3    H280817   0.870   0.542  16.297  0.1348  1.6810 -0.0449
19776TIP3   OH280818   4.654   6.816  15.764 -0.0558  0.1272 -0.0905
19776TIP3    H180819   4.743   6.806  15.799 -0.0693 -2.7830 -0.7407
19776TIP3    H280820   4.602   6.846  15.839  0.9744 -0.7004  0.9838
19777TIP3   OH280821   6.103   3.714   1.828  0.1948  0.2811  0.5429
19777TIP3    H180822   6.144   3.683   1.909 -0.2855 -0.0672  0.6524
19777TIP3    H280823   6.150   3.795   1.807  0.7095  0.0623  0.8543
19778TIP3   OH280824   5.526   5.860   2.254 -0.1113  0.5852  0.1628
19778TIP3    H180825   5.442   5.818   2.273  0.2695  1.0511  3.1763
19778TIP3    H280826   5.503   5.943   2.214 -1.1664  1.2707  2.1234
19779TIP3   OH280827   4.656   3.947   3.765 -0.5404  0.2062  0.1597
19779TIP3    H180828   4.704   3.984   3.691  0.2719 -0.3508  0.4009
19779TIP3    H280829   4.698   3.984   3.842 -0.5095 -0.2752  0.3750
19780TIP3   OH280830   0.851   3.692   2.981 -0.0481 -0.2958 -0.0943
19780TIP3    H180831   0.855   3.730   2.893 -2.5342 -0.2011 -0.2133
19780TIP3    H280832   0.907   3.614   2.976 -1.0304 -0.9091 -2.1240
19781TIP3   OH280833   1.910   1.817   2.346 -0.0587  0.1637  0.0652
19781TIP3    H180834   1.823   1.812   2.308  1.1933  0.3979 -2.9756
19781TIP3    H280835   1.952   1.734   2.321  0.9090  0.4648  0.6699
19782TIP3   OH280836   1.472   4.449   4.588 -0.5412 -0.1495 -0.0618
19782TIP3    H180837   1.527   4.375   4.561  0.2253  1.0260 -1.7929
19782TIP3    H280838   1.527   4.499   4.649 -1.2926 -1.3103  1.6297
19783TIP3   OH280839   1.061   4.568  12.151 -0.4170  0.4140  0.3149
19783TIP3    H180840   1.070   4.487  12.101  1.3940  1.5407 -1.2534
19783TIP3    H280841   0.969   4.591  12.144 -0.5369 -0.4237 -0.9620
19784TIP3   OH280842   0.470   1.965  14.997  0.8529  0.1854 -0.1684
19784TIP3    H180843   0.499   1.979  14.907  3.4126  2.0304  0.9183
19784TIP3    H280844   0.428   1.879  14.995  1.1920  0.0526 -3.0393
19785TIP3   OH280845   1.655   0.395  12.968  0.5691  0.8050 -0.7531
19785TIP3    H180846   1.739   0.384  13.011 -0.7934  0.4069  1.8864
19785TIP3    H280847   1.677   0.426  12.880  3.3885  2.4005  0.4523
19786TIP3   OH280848   4.468   6.207   3.844 -0.2375  0.3908 -0.3726
19786TIP3    H180849   4.509   6.217   3.930 -0.9066 -0.1734  0.0174
19786TIP3    H280850   4.414   6.286   3.834  0.9135  1.1324 -0.8846
19787TIP3   OH280851   2.671   6.094  14.947 -0.0648 -0.3176 -0.3482
19787TIP3    H180852   2.631   6.087  14.861  2.7966 -1.9575 -1.6123
19787TIP3    H280853   2.697   6.186  14.955  0.0898 -0.2685 -1.4148
19788TIP3   OH280854   3.941   4.289  12.994  0.2148 -0.0574  0.2071
19788TIP3    H180855   4.029   4.319  12.968 -0.1557  1.7133  0.9351
19788TIP3    H280856   3.957   4.232  13.070  0.6773  0.9133  0.8475
19789TIP3   OH280857   2.029   5.178  15.603 -0.2561  0.3321  0.3527
19789TIP3    H180858   2.116   5.140  15.613 -1.0875 -1.6709  0.2493
19789TIP3    H280859   2.013   5.176  15.509 -1.2217 -1.2388  0.5303
19790TIP3   OH280860   2.119   2.315   6.165 -0.6964  0.3688  0.9227
19790TIP3    H180861   2.202   2.305   6.211 -0.6848 -1.9580  0.4647
19790TIP3    H280862   2.111   2.409   6.149  1.1828  0.7601  2.1796
19791TIP3   OH280863   6.671   3.602   2.380  0.5178  0.4281  0.6064
19791TIP3    H180864   6.733   3.674   2.365 -0.9925  1.6771  0.2773
19791TIP3    H280865   6.598   3.621   2.322 -0.2424 -0.9753  1.0853
19792TIP3   OH280866   4.984   0.102   3.118 -0.0050 -0.0049  0.2110
19792TIP3    H180867   5.020   0.138   3.038  1.2305  1.2127  1.2908
19792TIP3    H280868   4.890   0.118   3.112 -0.2229 -1.8287 -1.9236
19793TIP3   OH280869   6.133   3.044   4.878 -0.0284  0.1025  1.0145
19793TIP3    H180870   6.171   3.130   4.858  0.6460 -0.6255 -0.9158
19793TIP3    H280871   6.091   3.056   4.963  0.1232  2.3197  0.8062
19794TIP3   OH280872   3.913   0.626   4.613 -0.3291 -0.0629  0.3333
19794TIP3    H180873   3.987   0.631   4.551 -0.1219  1.5363  0.6907
19794TIP3    H280874   3.953   0.602   4.696 -0.2504  0.4818  0.4536
19795TIP3   OH280875   6.082   5.120   4.369  0.1596 -0.2301  0.1791
19795TIP3    H180876   6.171   5.141   4.397 -0.2152  0.3096  0.9868
19795TIP3    H280877   6.060   5.188   4.305 -0.0521  0.2428  0.7537
19796TIP3   OH280878   4.811   0.224  16.574 -0.2036  0.4254  0.2396
19796TIP3    H180879   4.732   0.217  16.627 -0.6299 -0.1634 -0.4705
19796TIP3    H280880   4.878   0.177  16.626 -0.6879 -0.4038  0.1238
19797TIP3   OH280881   4.498   3.717  16.981 -0.0418  0.3915  0.2466
19797TIP3    H180882   4.468   3.630  16.957 -0.7092  0.4956  0.7188
19797TIP3    H280883   4.554   3.744  16.907  1.0300 -0.8580  0.5839
19798TIP3   OH280884   1.412   1.615   0.804  0.0118  0.4677  0.3898
19798TIP3    H180885   1.470   1.554   0.850  0.2412  1.9319  2.0994
19798TIP3    H280886   1.339   1.629   0.864 -0.6333  0.9628 -0.4921
19799TIP3   OH280887   5.101   1.195  16.790 -0.3654 -0.1536  0.1191
19799TIP3    H180888   5.073   1.109  16.820  1.1675  0.1967  2.7229
19799TIP3    H280889   5.080   1.255  16.862  1.1080  1.1703 -0.5079
19800TIP3   OH280890   3.072   2.441  12.691  1.0025  0.2713 -0.7019
19800TIP3    H180891   2.993   2.397  12.721  1.7901 -1.3327 -0.8790
19800TIP3    H280892   3.042   2.501  12.623 -0.5076  2.4049  1.7829
19801TIP3   OH280893   4.447   2.089   2.425  0.3478 -0.2120 -0.1941
19801TIP3    H180894   4.535   2.111   2.393  0.4337 -1.2773 -0.7158
19801TIP3    H280895   4.448   2.118   2.517  1.0686  0.2467 -0.3395
19802TIP3   OH280896   1.582   2.849  13.090 -0.1120  0.2477 -0.7173
19802TIP3    H180897   1.619   2.876  13.006  4.0052 -2.9060 -0.1013
19802TIP3    H280898   1.654   2.857  13.152 -2.4821  0.4927  2.1364
19803TIP3   OH280899   5.146   5.846  15.025 -0.1588 -0.5285  0.4798
19803TIP3    H180900   5.062   5.858  14.981  0.0348 -0.3081  0.1736
19803TIP3    H280901   5.150   5.918  15.088 -0.1656 -0.4980  0.4449
19804TIP3   OH280902   3.663   3.785  16.477  0.2935 -0.5118 -0.5779
19804TIP3    H180903   3.682   3.877  16.460  1.9465 -0.4800  1.2615
19804TIP3    H280904   3.716   3.737  16.413  1.4820 -0.2303  0.1772
19805TIP3   OH280905   2.731   0.058   3.688  0.0431  0.5700 -0.0395
19805TIP3    H180906   2.822   0.047   3.660 -0.0475  2.3988 -1.0819
19805TIP3    H280907   2.730   0.026   3.778  1.4195 -0.7024 -0.4482
19806TIP3   OH280908   4.095   2.744  11.948  0.1890  0.8140 -0.7805
19806TIP3    H180909   4.064   2.834  11.937  0.2775  0.9881  0.2895
19806TIP3    H280910   4.098   2.732  12.043  2.4755  0.4735 -0.8807
19807TIP3   OH280911   1.332   5.143  14.850  0.0680  0.1034 -0.3600
19807TIP3    H180912   1.277   5.071  14.817  1.2984 -1.2472  0.4629
19807TIP3    H280913   1.411   5.139  14.797  0.7014 -0.0129  0.5893
19808TIP3   OH280914   4.145   4.348  16.889  0.3479  1.0375 -0.0414
19808TIP3    H180915   4.237   4.333  16.912  0.6017  2.6561  0.0714
19808TIP3    H280916   4.148   4.392  16.804 -0.3004  1.4995  0.1694
19809TIP3   OH280917   4.639   4.684   5.194 -0.0376 -0.1330  0.2437
19809TIP3    H180918   4.713   4.637   5.233  0.0526 -0.1797  0.0164
19809TIP3    H280919   4.595   4.619   5.139  0.0596  0.0340 -0.0320
19810TIP3   OH280920   2.131   5.619  11.224  0.0598  0.9160  0.0909
19810TIP3    H180921   2.191   5.546  11.211  0.6786  1.3202  0.6394
19810TIP3    H280922   2.140   5.673  11.146 -1.7842 -0.5497 -1.1813
19811TIP3   OH280923   1.860   0.100   4.385 -0.0344 -0.1132  0.4707
19811TIP3    H180924   1.819   0.079   4.469 -0.3799  1.7058  0.7642
19811TIP3    H280925   1.911   0.179   4.402 -1.0300  0.9340 -1.3226
19812TIP3   OH280926   3.829   3.671  12.921  0.3885  0.0604  0.8334
19812TIP3    H180927   3.759   3.715  12.970 -0.1731  0.6834 -0.4968
19812TIP3    H280928   3.785   3.635  12.844  1.4661  0.1133  0.1838
19813TIP3   OH280929   2.534   2.663  13.557  0.4338  0.3463 -0.4046
19813TIP3    H180930   2.564   2.754  13.550  0.5061  0.4520  1.1227
19813TIP3    H280931   2.589   2.615  13.495  0.5207  1.3116 -1.0855
19814TIP3   OH280932   0.952   5.399  11.318 -0.3092 -0.3601  0.3660
19814TIP3    H180933   0.890   5.428  11.384  0.0469  0.3202  0.3988
19814TIP3    H280934   0.935   5.454  11.242 -0.5136 -0.9374 -0.0143
19815TIP3   OH280935   1.301   1.626  15.065  0.2848 -0.1558 -0.2345
19815TIP3    H180936   1.213   1.618  15.028 -0.1705  0.6352  0.6437
19815TIP3    H280937   1.359   1.594  14.996 -0.4931  2.0221 -1.9703
19816TIP3   OH280938   1.999   1.681  14.391  0.3467 -0.1562 -0.5953
19816TIP3    H180939   2.045   1.705  14.311 -0.4452  0.3924 -0.8844
19816TIP3    H280940   2.003   1.585  14.393 -0.4171 -0.2223 -1.7634
19817TIP3   OH280941   1.763   2.770   5.434 -0.4250  0.1801 -0.1409
19817TIP3    H180942   1.852   2.805   5.431  0.3805 -1.9334 -1.9872
19817TIP3    H280943   1.727   2.788   5.347 -1.6756  0.6716  0.4678
19818TIP3   OH280944   1.694   3.145   2.548 -0.2262  0.0070  1.0295
19818TIP3    H180945   1.756   3.121   2.479 -2.1683 -0.3556 -0.6783
19818TIP3    H280946   1.694   3.241   2.548  0.7839  0.0059  1.4639
19819TIP3   OH280947   4.831   1.087  13.064  0.5295 -0.9037  0.4620
19819TIP3    H180948   4.788   1.153  13.119 -0.2521  0.4405 -1.6853
19819TIP3    H280949   4.764   1.022  13.046  0.4345 -0.7026  0.0898
19820TIP3   OH280950   0.967   4.169  15.474  0.0316  0.1808  0.1064
19820TIP3    H180951   0.962   4.077  15.449  0.1200  0.1398  0.2431
19820TIP3    H280952   0.940   4.216  15.395 -4.1893 -0.0691  1.2375
19821TIP3   OH280953   3.854   6.657  14.251 -0.1776  0.5494 -0.2755
19821TIP3    H180954   3.769   6.692  14.275 -1.3052 -2.1055 -0.3159
19821TIP3    H280955   3.835   6.581  14.196  2.1289 -1.7688  1.9570
19822TIP3   OH280956   2.759   0.604   4.302  0.2993 -0.5306 -0.2423
19822TIP3    H180957   2.729   0.557   4.380  2.2489 -2.4185 -0.5593
19822TIP3    H280958   2.705   0.570   4.231 -0.0384 -0.3894 -0.0517
19823TIP3   OH280959   1.088   5.983  11.991 -0.3127 -0.4234 -0.0427
19823TIP3    H180960   1.026   6.040  12.035  0.0782  1.4137 -1.7451
19823TIP3    H280961   1.116   5.920  12.057 -1.5964  0.7003  1.5859
19824TIP3   OH280962   2.103   0.936  16.882 -0.3480  0.1396  0.3185
19824TIP3    H180963   2.050   1.015  16.890 -0.3541 -0.0476  2.7953
19824TIP3    H280964   2.040   0.865  16.876 -0.3427  0.2394 -1.0811
19825TIP3   OH280965   1.924   0.813   4.190  0.0265 -0.3269  0.1470
19825TIP3    H180966   1.999   0.846   4.141 -0.5614 -0.0507 -0.5802
19825TIP3    H280967   1.848   0.845   4.141 -0.5695  0.0042  1.2669
19826TIP3   OH280968   6.734   5.291   3.583  0.2889 -0.2352 -0.3733
19826TIP3    H180969   6.684   5.249   3.653  0.8623 -1.5079 -0.7025
19826TIP3    H280970   6.673   5.353   3.543 -0.2627 -0.0298  0.7828
19827TIP3   OH280971   1.214   2.020  12.597 -0.0955  0.4416  0.0616
19827TIP3    H180972   1.123   2.036  12.621 -0.0517  0.3903  0.2608
19827TIP3    H280973   1.263   2.088  12.642 -0.0494  0.5505 -0.1534
19828TIP3   OH280974   6.472   2.900  13.402 -0.1462  0.1053  0.5083
19828TIP3    H180975   6.392   2.851  13.384 -1.1263  1.2551  1.6808
19828TIP3    H280976   6.505   2.862  13.484  0.1472  0.0893  0.3833
19829TIP3   OH280977   2.275   4.107  15.511  0.0539  0.5210 -0.1604
19829TIP3    H180978   2.239   4.075  15.429  1.4417  0.2203 -0.6675
19829TIP3    H280979   2.298   4.198  15.494 -0.2624  0.6489  0.0934
19830TIP3   OH280980   5.543   6.353  14.843 -0.0812  0.5462  0.5192
19830TIP3    H180981   5.566   6.278  14.788 -0.6591 -0.3966  1.5438
19830TIP3    H280982   5.627   6.387  14.874  0.1402 -0.3742  0.9503
19831TIP3   OH280983   4.179   2.076  15.530 -0.0888  0.2835 -0.2528
19831TIP3    H180984   4.264   2.120  15.522  0.1307  0.2950  1.9525
19831TIP3    H280985   4.192   1.991  15.487  0.5121  0.9815 -1.4718
19832TIP3   OH280986   3.243   6.740   2.213 -0.0596 -0.5238 -0.0677
19832TIP3    H180987   3.256   6.648   2.188  0.8579 -0.6838  0.9638
19832TIP3    H280988   3.149   6.753   2.209 -0.1402 -1.2957 -0.9613
19833TIP3   OH280989   0.827   5.767  14.747 -0.2910 -0.2605  0.7101
19833TIP3    H180990   0.895   5.833  14.737 -1.5136  0.9904  0.3935
19833TIP3    H280991   0.823   5.723  14.662  0.0974 -0.3115  0.7197
19834TIP3   OH280992   4.263   6.604   0.526  0.4427 -0.4471  0.0256
19834TIP3    H180993   4.272   6.695   0.498 -0.0980 -0.5858 -0.6062
19834TIP3    H280994   4.217   6.610   0.610  2.5519 -0.0006  1.1833
19835TIP3   OH280995   0.628   6.135   0.827 -0.1218 -0.8894 -0.0970
19835TIP3    H180996   0.585   6.081   0.760 -1.8501  1.2310 -0.7495
19835TIP3    H280997   0.560   6.151   0.893  0.6317 -0.2814  0.5458
19836TIP3   OH280998   5.801   6.324   0.321  0.2454 -0.0351 -0.4111
19836TIP3    H180999   5.839   6.237   0.311  1.0428  0.0529  1.5079
19836TIP3    H281000   5.760   6.323   0.408  3.3059  2.5446  1.1903
19837TIP3   OH281001   2.069   0.033   0.293  0.1152  0.3309  0.2428
19837TIP3    H181002   2.148   0.080   0.269  0.0400  0.3696  0.0731
19837TIP3    H281003   2.039  -0.008   0.212 -0.2283  0.5962  0.2346
19838TIP3   OH281004   2.219   5.464   5.400 -0.4898  0.0904 -0.9514
19838TIP3    H181005   2.155   5.527   5.367 -0.7951 -1.1903 -2.9029
19838TIP3    H281006   2.205   5.386   5.347  2.0011 -0.5735 -0.6875
19839TIP3   OH281007   1.133   1.290  13.020  0.3274 -1.0238 -0.3305
19839TIP3    H181008   1.168   1.226  12.958  0.1068  0.0920 -1.6146
19839TIP3    H281009   1.134   1.373  12.973  0.5565 -0.0820  1.3129
19840TIP3   OH281010   5.686   0.335  15.459 -0.5441  0.6783 -0.4323
19840TIP3    H181011   5.676   0.274  15.386  2.9394  0.3121 -0.6734
19840TIP3    H281012   5.660   0.284  15.536  0.5467 -0.5468 -0.8496
19841TIP3   OH281013   2.588   2.486  16.890  0.4074 -0.4995  0.3762
19841TIP3    H181014   2.571   2.522  16.977  1.9001 -1.9675  1.3081
19841TIP3    H281015   2.529   2.410  16.884  0.6980 -0.7211  0.3317
19842TIP3   OH281016   4.866   4.193  14.476 -0.1650  0.2103  0.0396
19842TIP3    H181017   4.910   4.175  14.393 -0.9624  0.2241 -0.3886
19842TIP3    H281018   4.903   4.276  14.506  0.6506 -0.1641  0.0616
19843TIP3   OH281019   1.819   0.845   3.676  0.0621 -0.1688  0.0814
19843TIP3    H181020   1.773   0.812   3.753  1.0915  0.9195  1.1880
19843TIP3    H281021   1.793   0.937   3.671  2.0427  0.4523  0.7080
19844TIP3   OH281022   2.071   0.247   5.911 -0.0927  0.4193 -0.2797
19844TIP3    H181023   2.083   0.157   5.943  2.8990  0.8191 -0.1378
19844TIP3    H281024   2.042   0.236   5.821 -1.8949 -0.6962  0.4145
19845TIP3   OH281025   3.740   3.618   5.120 -0.5380  0.0913  0.5492
19845TIP3    H181026   3.743   3.707   5.085  2.1767 -0.1502  0.1310
19845TIP3    H281027   3.795   3.567   5.062 -0.2782 -1.4239  2.0927
19846TIP3   OH281028   6.402   0.267   3.823 -0.0756 -0.3337  0.6730
19846TIP3    H181029   6.381   0.174   3.815  0.8933 -0.7035  2.2424
19846TIP3    H281030   6.388   0.287   3.916  3.0574  0.2421  1.0712
19847TIP3   OH281031   2.291   3.882   4.756 -0.1798 -0.0139  0.5551
19847TIP3    H181032   2.198   3.864   4.767 -0.2118 -0.7017 -0.7348
19847TIP3    H281033   2.303   3.893   4.662  0.8972  0.9231  0.7809
19848TIP3   OH281034   0.667   1.371   3.186 -0.1490 -0.0769 -0.1539
19848TIP3    H181035   0.578   1.338   3.196  0.3498 -1.6690 -0.8868
19848TIP3    H281036   0.715   1.300   3.144  0.9044  1.6678 -1.9898
19849TIP3   OH281037   6.274   5.324   3.409 -0.0766 -0.5472  0.9742
19849TIP3    H181038   6.318   5.262   3.467 -0.2800 -0.0863  1.6251
19849TIP3    H281039   6.208   5.367   3.464  0.8668  1.1005  0.8504
19850TIP3   OH281040   5.616   0.994  13.691 -1.0339  0.1352  0.1867
19850TIP3    H181041   5.596   0.911  13.649 -0.8474 -0.3741  1.1120
19850TIP3    H281042   5.702   0.982  13.731  0.2220  1.6382 -1.9620
19851TIP3   OH281043   3.507   2.269  13.519 -0.2794  0.4538 -0.1921
19851TIP3    H181044   3.509   2.240  13.428  1.0968 -0.0843 -0.0168
19851TIP3    H281045   3.442   2.339  13.521  0.5742  1.3358 -1.8545
19852TIP3   OH281046   3.114   0.804  16.036  0.3981  0.2000 -0.2789
19852TIP3    H181047   3.149   0.715  16.028  0.3238 -0.1065  2.3548
19852TIP3    H281048   3.188   0.861  16.015  1.0370 -0.4778  0.1016
19853TIP3   OH281049   1.603   6.095  12.996 -0.1218  0.1505 -0.4452
19853TIP3    H181050   1.600   6.180  13.038  1.3769  0.1289 -0.2762
19853TIP3    H281051   1.695   6.069  12.999 -0.6504 -1.7812  0.1200
19854TIP3   OH281052   0.177   0.948  16.898 -0.0752 -0.0430 -0.0527
19854TIP3    H181053   0.218   0.865  16.873  2.0697 -0.3410  4.0762
19854TIP3    H281054   0.224   1.014  16.849  1.5345 -0.8865  0.3235
19855TIP3   OH281055   6.450   1.057   0.406  0.7476 -0.0389  0.1088
19855TIP3    H181056   6.359   1.027   0.409  0.3332  0.9326 -1.9308
19855TIP3    H281057   6.482   1.045   0.496 -1.3587 -0.4793  0.8304
19856TIP3   OH281058   3.851   5.515   1.164  0.5844  0.1316  0.9644
19856TIP3    H181059   3.935   5.471   1.173  0.7582  0.5126  1.2278
19856TIP3    H281060   3.873   5.601   1.129  0.1018 -0.5900 -1.1968
19857TIP3   OH281061   0.587   6.233   4.417 -0.1435 -0.3126  0.4501
19857TIP3    H181062   0.517   6.250   4.353 -0.2960  0.3983  0.7901
19857TIP3    H281063   0.602   6.319   4.458 -0.7786 -0.9681  2.1002
19858TIP3   OH281064   1.946   0.377   4.496 -0.4233 -0.3423  0.4885
19858TIP3    H181065   1.930   0.466   4.466 -0.5966 -0.9917 -1.3857
19858TIP3    H281066   2.007   0.386   4.569  1.2900  1.1280 -1.1200
19859TIP3   OH281067   5.402   2.432  16.244 -1.0473  0.1666 -0.5673
19859TIP3    H181068   5.442   2.392  16.167 -1.8756 -1.1600 -0.3272
19859TIP3    H281069   5.428   2.376  16.317  2.1369  3.0036  0.6147
19860TIP3   OH281070   5.271   0.062   4.931  0.3816  0.3972 -0.1595
19860TIP3    H181071   5.268   0.084   5.025  0.6557  1.1103 -0.3178
19860TIP3    H281072   5.358   0.088   4.903  0.2556  0.2955 -0.6412
19861TIP3   OH281073   3.117   2.103   1.699  0.2262 -0.1766  0.4177
19861TIP3    H181074   3.066   2.177   1.667 -3.0021 -1.9948  1.1219
19861TIP3    H281075   3.131   2.122   1.792 -0.3941 -0.3414  0.5450
19862TIP3   OH281076   2.264   4.557   5.328  0.1473  0.2327  0.2011
19862TIP3    H181077   2.304   4.472   5.311  0.3196  0.4295 -0.3921
19862TIP3    H281078   2.331   4.620   5.306  0.5827  0.4951  2.2153
19863TIP3   OH281079   4.501   6.243  15.864 -0.0407  0.2183  0.3275
19863TIP3    H181080   4.529   6.327  15.898 -0.7968  0.5198  0.2224
19863TIP3    H281081   4.566   6.180  15.897  2.3685  1.2714 -2.2792
19864TIP3   OH281082   6.439   6.315   2.015 -0.2525 -0.3337 -0.4686
19864TIP3    H181083   6.467   6.375   1.946  1.0688 -2.1388 -1.5510
19864TIP3    H281084   6.346   6.301   2.000 -0.0356 -0.4658 -1.6990
19865TIP3   OH281085   4.184   4.843   3.282  0.0960  0.2487  0.3221
19865TIP3    H181086   4.140   4.927   3.271 -0.0334  0.0906 -0.4561
19865TIP3    H281087   4.195   4.810   3.192 -0.6639 -0.9685  0.6595
19866TIP3   OH281088   1.850   2.020   3.192 -0.5389  0.4079 -0.3692
19866TIP3    H181089   1.757   2.031   3.173 -0.1824  1.3987 -1.5813
19866TIP3    H281090   1.873   1.936   3.152 -0.5580  0.9140 -1.4548
19867TIP3   OH281091   1.529   5.717   4.764  0.2497 -0.1923 -0.0594
19867TIP3    H181092   1.548   5.810   4.757 -0.4806  0.0102  0.5329
19867TIP3    H281093   1.600   5.674   4.718  1.0668  0.6216  0.4346
19868TIP3   OH281094   1.531   0.577  14.096  0.1177  0.7651 -0.2219
19868TIP3    H181095   1.562   0.663  14.124  0.4862  0.8782 -0.9606
19868TIP3    H281096   1.463   0.595  14.031 -0.5481  0.5051  0.4029
19869TIP3   OH281097   1.329   5.074   3.293  0.2293  0.2978 -0.1932
19869TIP3    H181098   1.340   5.001   3.232  2.3713  1.6971 -1.5239
19869TIP3    H281099   1.257   5.046   3.350  1.4723 -3.1665 -0.1997
19870TIP3   OH281100   1.657   5.360   5.406  0.3521  0.9837  0.3587
19870TIP3    H181101   1.688   5.395   5.322  0.1973  2.2965  0.8432
19870TIP3    H281102   1.649   5.437   5.463 -2.9474  0.6003  0.5180
19871TIP3   OH281103   5.438   0.113   1.508  0.3034  0.0253  0.1566
19871TIP3    H181104   5.494   0.123   1.585  0.8490  2.1814 -0.4945
19871TIP3    H281105   5.354   0.151   1.535 -0.6704 -2.4520  0.8479
19872TIP3   OH281106   2.123   1.189  13.827 -1.0556  0.2946 -0.9093
19872TIP3    H181107   2.134   1.095  13.813  3.0120  0.8368 -1.9133
19872TIP3    H281108   2.139   1.228  13.741 -4.1352  1.9015 -0.8500
19873TIP3   OH281109   1.077   3.873  12.123  0.1021  0.0314 -0.0073
19873TIP3    H181110   1.112   3.889  12.210 -0.1022  2.0537 -0.2713
19873TIP3    H281111   1.034   3.956  12.099 -4.0288 -1.9818 -0.0723
19874TIP3   OH281112   4.875   6.443   4.233  0.2152 -1.2023 -0.6730
19874TIP3    H181113   4.830   6.527   4.239  0.6356 -1.0522  0.5657
19874TIP3    H281114   4.871   6.420   4.140  1.2375  0.8218 -1.2570
19875TIP3   OH281115   6.791   5.881  14.691 -0.1227 -0.1025  0.0747
19875TIP3    H181116   6.805   5.791  14.722  2.0802  0.3587  0.4851
19875TIP3    H281117   6.855   5.933  14.739 -0.8584  1.5916 -0.7337
19876TIP3   OH281118   6.363   6.367   0.876  0.5161 -0.2339  0.4804
19876TIP3    H181119   6.407   6.283   0.863 -1.3565 -0.9186 -1.6807
19876TIP3    H281120   6.300   6.350   0.946 -0.0470 -0.7066 -0.1382
19877TIP3   OH281121   6.009   0.005  15.605 -0.3846  0.4908  0.1738
19877TIP3    H181122   5.970   0.053  15.678  0.4532  2.6288 -0.7198
19877TIP3    H281123   5.937  -0.047  15.569 -0.9881  0.0375  2.0123
19878TIP3   OH281124   1.887   3.084  12.171  0.0316 -1.0180 -0.2068
19878TIP3    H181125   1.981   3.067  12.166 -0.3108 -3.0425 -0.2622
19878TIP3    H281126   1.874   3.121  12.258  0.9106 -0.4436 -0.3087
19879TIP3   OH281127   4.688   3.014   3.591  0.8796  0.1661  0.7116
19879TIP3    H181128   4.625   3.086   3.596 -0.1903 -0.6212 -1.1809
19879TIP3    H281129   4.773   3.055   3.606  0.2352  1.7473  0.0765
19880TIP3   OH281130   5.538   3.418  13.161 -0.1080 -0.2757  0.0816
19880TIP3    H181131   5.499   3.500  13.190  0.8630  0.2101  0.0310
19880TIP3    H281132   5.501   3.351  13.219  1.1314  0.5606  1.8683
19881TIP3   OH281133   0.840   0.554  11.418  0.5071  0.2043 -0.3483
19881TIP3    H181134   0.747   0.531  11.411 -0.1860  2.2413  1.5270
19881TIP3    H281135   0.871   0.506  11.495  0.6767  0.5393 -0.2086
19882TIP3   OH281136   3.347   1.419  13.090 -0.3001  0.0334 -0.5071
19882TIP3    H181137   3.253   1.436  13.080 -0.3926  0.3686  0.8037
19882TIP3    H281138   3.372   1.467  13.169  1.2549  0.9787 -1.5530
19883TIP3   OH281139   4.422   5.211  16.375  0.1640  0.2753  0.5355
19883TIP3    H181140   4.449   5.291  16.420 -0.7848  1.4351 -0.9085
19883TIP3    H281141   4.474   5.210  16.294 -0.5697 -0.0203  0.0632
19884TIP3   OH281142   2.510   6.289  10.853  0.0399 -0.5737 -0.3427
19884TIP3    H181143   2.507   6.293  10.757  0.4585 -0.8583 -0.3674
19884TIP3    H281144   2.421   6.311  10.880 -0.1760 -0.8579 -0.8113
19885TIP3   OH281145   3.569   6.627  12.368 -0.5595  0.3194 -0.1185
19885TIP3    H181146   3.569   6.542  12.411 -2.1572  0.1049 -0.5154
19885TIP3    H281147   3.486   6.668  12.394  0.2388  1.8001  0.1527
19886TIP3   OH281148   5.694   0.598  11.858 -0.2793  0.4806 -0.2102
19886TIP3    H181149   5.604   0.629  11.857 -0.7230 -0.1653  4.8498
19886TIP3    H281150   5.687   0.503  11.867  0.9316  0.2831 -1.2631
19887TIP3   OH281151   1.489   0.476  12.466 -0.1226 -0.5588  0.7986
19887TIP3    H181152   1.397   0.471  12.443 -0.2017  0.9238  0.7616
19887TIP3    H281153   1.534   0.434  12.393 -0.8120 -2.0596  1.2219
19888TIP3   OH281154   0.525   2.286  14.876  0.0026  0.0456  0.4493
19888TIP3    H181155   0.437   2.271  14.912  0.6760 -3.0333  0.9079
19888TIP3    H281156   0.578   2.311  14.952  0.1844 -1.0033  0.6666
19889TIP3   OH281157   4.511   4.735  13.547 -0.4259 -0.0481 -0.1321
19889TIP3    H181158   4.552   4.794  13.610 -0.8871 -1.5047  1.5604
19889TIP3    H281159   4.534   4.647  13.578  1.9370 -0.8056 -3.7256
19890TIP3   OH281160   0.258   3.571   3.142  0.5912  0.4514  0.7671
19890TIP3    H181161   0.308   3.617   3.074  0.5373 -0.1084  0.3461
19890TIP3    H281162   0.296   3.483   3.144  0.7715  0.5430  1.6500
19891TIP3   OH281163   2.819   6.471  15.184 -0.1443 -1.0467  0.4988
19891TIP3    H181164   2.770   6.393  15.157 -1.2548 -0.1321 -0.1352
19891TIP3    H281165   2.763   6.544  15.162  0.2557 -0.1085  2.4774
19892TIP3   OH281166   4.190   4.788  12.201  0.6829 -0.0629  0.0432
19892TIP3    H181167   4.162   4.861  12.146 -1.6954 -1.3626 -0.5551
19892TIP3    H281168   4.230   4.726  12.139 -0.5989 -0.8469 -0.0194
19893TIP3   OH281169   1.780   5.025   6.035  0.3110 -0.0407 -0.1684
19893TIP3    H181170   1.825   4.940   6.035  0.7364  0.1755 -1.3414
19893TIP3    H281171   1.783   5.054   6.126  0.1240 -1.3029  0.2480
19894TIP3   OH281172   2.169   2.635   2.104  0.4227  0.0021 -0.2775
19894TIP3    H181173   2.151   2.554   2.057 -2.3583  0.4887 -0.1533
19894TIP3    H281174   2.220   2.688   2.042  2.0728 -1.7158 -0.4310
19895TIP3   OH281175   2.739   0.242   6.245  0.6646  0.5758  0.1885
19895TIP3    H181176   2.800   0.171   6.263 -0.9682 -0.6291  1.0900
19895TIP3    H281177   2.713   0.229   6.154 -1.0564 -1.1374  0.8879
19896TIP3   OH281178   6.161   4.558   2.393  0.0800  0.2093  0.2147
19896TIP3    H181179   6.184   4.539   2.302  0.0533 -0.4943  0.3504
19896TIP3    H281180   6.072   4.593   2.389  0.2377  0.5834 -0.0676
19897TIP3   OH281181   2.692   4.423  14.018  0.1648  0.3559 -0.7596
19897TIP3    H181182   2.753   4.414  14.091 -0.0528 -0.2077 -0.6411
19897TIP3    H281183   2.620   4.476  14.053 -1.2257 -2.1253  0.2766
19898TIP3   OH281184   1.086   1.400  10.540  0.2398  0.3653 -0.2757
19898TIP3    H181185   1.156   1.358  10.590 -0.3402 -0.9232 -0.5106
19898TIP3    H281186   1.046   1.460  10.602  1.1916  0.6916  0.0279
19899TIP3   OH281187   1.181   3.489   5.352 -0.4793 -0.0598 -0.1941
19899TIP3    H181188   1.153   3.516   5.440 -1.3192  0.0651 -0.4973
19899TIP3    H281189   1.262   3.441   5.367 -0.6089 -0.0280  0.6553
19900TIP3   OH281190   1.871   0.423  13.137  0.1068 -0.0696 -0.0139
19900TIP3    H181191   1.880   0.518  13.134  1.6553 -0.1754  0.7362
19900TIP3    H281192   1.820   0.405  13.216 -0.6620  0.1465 -0.4492
19901TIP3   OH281193   1.053   0.730   0.439  0.0167 -0.0788  0.5224
19901TIP3    H181194   1.058   0.640   0.408  1.8935  0.4494 -0.7946
19901TIP3    H281195   1.142   0.752   0.464 -0.1260  1.8901 -0.5921
19902TIP3   OH281196   4.560   6.002  13.582 -0.3646 -0.5174  0.0929
19902TIP3    H181197   4.597   5.969  13.664 -2.6857 -2.2167  0.5129
19902TIP3    H281198   4.536   6.092  13.601  2.1451  0.1704  0.2364
19903TIP3   OH281199   2.126   3.171   3.825 -0.1137 -1.0190 -0.6150
19903TIP3    H181200   2.157   3.259   3.800  0.8054 -1.9729 -2.9657
19903TIP3    H281201   2.031   3.176   3.816 -0.1062 -0.1068 -0.2467
19904TIP3   OH281202   3.171   1.218   3.721  0.3076  0.2176  0.4495
19904TIP3    H181203   3.232   1.146   3.707 -0.8057 -1.0196  1.8579
19904TIP3    H281204   3.203   1.288   3.664  2.3924 -0.7905  0.3485
19905TIP3   OH281205   0.909   5.133  11.263 -0.1241 -0.1211  0.3032
19905TIP3    H181206   0.958   5.133  11.181 -1.0571  0.1861 -0.2579
19905TIP3    H281207   0.897   5.225  11.284  0.4970 -0.2035  1.0148
19906TIP3   OH281208   6.134   2.660   6.152  0.1309 -0.4430 -0.4224
19906TIP3    H181209   6.050   2.614   6.160  0.2139 -0.3325  1.2928
19906TIP3    H281210   6.143   2.678   6.059 -2.1293  0.2129 -0.5449
19907TIP3   OH281211   3.019   0.791  15.636 -0.1703 -0.2575  0.3230
19907TIP3    H181212   3.009   0.824  15.725 -0.1629  0.5751  0.0119
19907TIP3    H281213   3.101   0.828  15.605 -0.1745 -0.5432 -0.0372
19908TIP3   OH281214   1.687   4.294  11.735  0.4986 -0.0793 -0.2386
19908TIP3    H181215   1.748   4.247  11.791  1.5654  1.4876 -0.0344
19908TIP3    H281216   1.647   4.359  11.793  0.8978  0.9041 -1.0363
19909TIP3   OH281217   3.632   3.920  12.206 -0.0181 -0.2689 -0.3887
19909TIP3    H181218   3.605   3.948  12.119  0.2323  1.1278 -0.0312
19909TIP3    H281219   3.709   3.974  12.226  0.3499 -1.0646  0.4161
19910TIP3   OH281220   1.318   6.710   3.692 -0.1104  0.3415  0.1168
19910TIP3    H181221   1.369   6.750   3.762  1.9476  0.0407 -1.1330
19910TIP3    H281222   1.295   6.783   3.634  1.2711  0.1319 -0.7253
19911TIP3   OH281223   2.927   6.127  14.214  0.1195 -0.2288  0.2580
19911TIP3    H181224   2.863   6.057  14.210  0.2061 -0.3404  0.7984
19911TIP3    H281225   2.933   6.149  14.307  1.9285 -1.2012  0.3936
19912TIP3   OH281226   5.954   4.439  11.385  0.3167 -0.5876 -0.0014
19912TIP3    H181227   5.908   4.409  11.463 -1.7641  1.2381 -0.4626
19912TIP3    H281228   5.925   4.529  11.374  1.6899 -0.3728 -2.0705
19913TIP3   OH281229   1.069   0.286  12.696 -0.0682 -0.2107 -0.3223
19913TIP3    H181230   1.112   0.219  12.748  0.6264 -0.8052 -1.6462
19913TIP3    H281231   1.008   0.329  12.757  1.0000 -0.6383  1.0612
19914TIP3   OH281232   4.328   3.539  12.694 -0.1350 -0.0587 -0.2031
19914TIP3    H181233   4.240   3.543  12.732  0.3931 -2.0912  1.2732
19914TIP3    H281234   4.381   3.594  12.751  0.5972 -2.8852  1.9638
19915TIP3   OH281235   3.845   3.798   1.906 -0.1962  0.7832 -0.1931
19915TIP3    H181236   3.920   3.831   1.955 -1.9915  0.8020  2.6443
19915TIP3    H281237   3.783   3.871   1.904 -1.7886 -0.5023  1.0481
19916TIP3   OH281238   0.588   5.765  16.778  0.1204 -1.1196  0.7534
19916TIP3    H181239   0.649   5.804  16.716 -1.1914 -2.8251 -1.6847
19916TIP3    H281240   0.643   5.739  16.852  1.7584  0.6593  0.2161
19917TIP3   OH281241   6.041   0.253  12.437  0.1134  0.4432  0.4415
19917TIP3    H181242   5.990   0.234  12.358  0.0221 -0.3432  0.6857
19917TIP3    H281243   6.110   0.187  12.437  1.4128  1.7768 -0.1285
19918TIP3   OH281244   2.826   3.686  11.701  0.4168  1.0377 -0.9462
19918TIP3    H181245   2.904   3.660  11.750  0.3040  1.2762 -0.6428
19918TIP3    H281246   2.775   3.606  11.693 -0.8440  1.5506  1.6275
19919TIP3   OH281247   4.754   1.887  14.627  0.1365  0.1619 -0.3889
19919TIP3    H181248   4.717   1.856  14.545  0.7451 -3.4993  0.6209
19919TIP3    H281249   4.833   1.935  14.601 -0.1428 -0.2108 -1.9784
19920TIP3   OH281250   0.301   0.497   1.099 -0.0855 -0.4678 -0.3410
19920TIP3    H181251   0.378   0.527   1.051 -1.0295 -0.4094 -1.8799
19920TIP3    H281252   0.227   0.535   1.051 -1.0719 -0.7559  0.9389
19921TIP3   OH281253   1.966   0.404  16.941  0.1663 -0.1935 -0.3268
19921TIP3    H181254   1.881   0.395  16.897  0.4988 -0.8366 -0.8359
19921TIP3    H281255   2.030   0.392  16.872  0.6797  0.3977  0.0447
19922TIP3   OH281256   5.551   4.469  16.224 -0.0931 -0.3560 -0.6381
19922TIP3    H181257   5.530   4.525  16.298 -0.9090 -1.7506  0.2192
19922TIP3    H281258   5.632   4.504  16.188 -0.5674  1.3251 -0.0959
19923TIP3   OH281259   4.512   0.582  13.522  0.0357 -0.2372  0.4685
19923TIP3    H181260   4.466   0.571  13.604  0.6680 -2.1335  0.5914
19923TIP3    H281261   4.601   0.609  13.547  0.8048 -2.6980  0.5333
19924TIP3   OH281262   6.072   1.497   0.783 -0.7180 -0.3465 -0.8604
19924TIP3    H181263   6.112   1.418   0.746 -0.2952 -0.1919 -0.7333
19924TIP3    H281264   6.110   1.569   0.732  0.4933 -0.0665  0.4164
19925TIP3   OH281265   0.654   0.946   2.654  0.2479  0.6410  0.8651
19925TIP3    H181266   0.655   1.009   2.582  1.7568  1.0087  1.1967
19925TIP3    H281267   0.595   0.877   2.625 -1.9546  2.5025  0.7549
19926TIP3   OH281268   6.321   1.132  17.089 -0.3515 -0.0308 -0.3299
19926TIP3    H181269   6.348   1.062  17.147 -0.4308  0.5793  0.4566
19926TIP3    H281270   6.377   1.123  17.012  0.4975 -0.1961  0.2941
19927TIP3   OH281271   5.294   2.224   6.062  0.7857  0.8201  0.0057
19927TIP3    H181272   5.316   2.236   5.969 -0.4892  2.9377 -0.0571
19927TIP3    H281273   5.344   2.147   6.088  1.4912  0.4254 -2.3365
19928TIP3   OH281274   1.178   4.962   0.958  0.5216  0.3772 -0.5066
19928TIP3    H181275   1.196   5.004   1.042 -0.5318  0.7994 -0.4845
19928TIP3    H281276   1.095   4.917   0.971  0.6257 -0.0102 -1.1575
19929TIP3   OH281277   0.274   5.322  15.470  0.7731  0.5656  0.1463
19929TIP3    H181278   0.287   5.359  15.557 -0.7544 -0.9116  1.0153
19929TIP3    H281279   0.187   5.350  15.444  0.7368 -0.0296 -0.3906
19930TIP3   OH281280   2.906   2.237   4.899 -0.2160  0.0104  0.1148
19930TIP3    H181281   2.868   2.169   4.955 -0.8939 -0.5930 -1.0397
19930TIP3    H281282   2.950   2.296   4.959 -0.6689 -0.7870  1.2551
19931TIP3   OH281283   1.520   2.525   1.782  0.1000 -0.0524 -0.1144
19931TIP3    H181284   1.590   2.461   1.767 -1.0062 -1.3986  0.3917
19931TIP3    H281285   1.440   2.480   1.757 -0.7056  1.1115  0.3271
19932TIP3   OH281286   1.472   4.479  10.207  0.5379 -0.4512  0.3125
19932TIP3    H181287   1.412   4.427  10.260  0.5277  0.7170  1.4519
19932TIP3    H281288   1.494   4.555  10.261  0.8242  0.5693 -1.1838
19933TIP3   OH281289   3.859   4.590  16.359 -0.1603  0.3963  0.0064
19933TIP3    H181290   3.887   4.595  16.451 -0.9251 -0.8615  0.3189
19933TIP3    H281291   3.775   4.636  16.357  0.0079  0.6998 -0.1339
19934TIP3   OH281292   4.855   2.477   5.161 -0.7757  0.3576 -0.1958
19934TIP3    H181293   4.919   2.515   5.100 -0.9341  0.2625 -0.4214
19934TIP3    H281294   4.772   2.481   5.113 -1.4033  2.7384  1.0069
19935TIP3   OH281295   1.411   0.846  13.969  0.3538 -0.1960 -0.2154
19935TIP3    H181296   1.503   0.867  13.949  0.6504 -1.4444 -0.1979
19935TIP3    H281297   1.391   0.771  13.913 -1.2363  1.1947 -1.5516
19936TIP3   OH281298   6.594   2.246   3.680 -0.3399 -0.2792 -0.1235
19936TIP3    H181299   6.646   2.315   3.640  0.5899 -1.7513 -1.5210
19936TIP3    H281300   6.656   2.199   3.736 -0.5176 -1.0910 -0.5946
19937TIP3   OH281301   5.033   2.708   3.966 -0.3082 -0.2452 -0.2111
19937TIP3    H181302   4.938   2.717   3.956 -0.2738  1.8089  0.9503
19937TIP3    H281303   5.069   2.751   3.889 -0.3031 -0.5640 -0.3883
19938TIP3   OH281304   6.294   4.989   5.447 -0.1664 -0.3066 -0.1675
19938TIP3    H181305   6.269   4.935   5.372  0.0859 -0.1443 -0.3709
19938TIP3    H281306   6.274   4.935   5.523  0.6536 -0.9310 -0.3884
19939TIP3   OH281307   0.975   1.961  11.717 -0.3083  0.7306 -0.1683
19939TIP3    H181308   1.046   1.975  11.779  0.5491  0.0267 -0.9756
19939TIP3    H281309   0.980   2.035  11.656  0.5196  0.0532 -0.9473
19940TIP3   OH281310   0.008   1.299  15.538  0.0985  0.0216 -0.4201
19940TIP3    H181311   0.080   1.347  15.497 -1.3658  0.8167 -2.1054
19940TIP3    H281312  -0.057   1.366  15.559 -1.3153 -1.0290 -1.3847
19941TIP3   OH281313   5.581   3.345   2.117 -0.0048  0.1297  0.4446
19941TIP3    H181314   5.655   3.406   2.123  0.7378 -0.5770 -1.4567
19941TIP3    H281315   5.527   3.381   2.047 -1.1015  0.2122  1.3129
19942TIP3   OH281316   5.477   0.972   2.656  0.1908  0.0671 -0.4385
19942TIP3    H181317   5.387   0.941   2.651 -0.1401  1.0429 -0.5552
19942TIP3    H281318   5.470   1.064   2.684  1.2604 -0.5166  1.8952
19943TIP3   OH281319   4.226   5.594   0.459  0.0999 -0.0873  0.3272
19943TIP3    H181320   4.256   5.524   0.518 -1.2601  1.3447  2.8068
19943TIP3    H281321   4.137   5.614   0.489  0.0695  1.9525 -1.0455
19944TIP3   OH281322   3.589   1.932  11.638 -0.2181  0.0380 -0.0903
19944TIP3    H181323   3.660   1.982  11.680 -1.4441  0.5841  1.3931
19944TIP3    H281324   3.626   1.846  11.623  1.2732  0.7812 -0.7803
19945TIP3   OH281325   1.407   6.352   3.245  0.5605 -0.2523 -0.1713
19945TIP3    H181326   1.347   6.349   3.319  0.8230  0.3089  0.0688
19945TIP3    H281327   1.351   6.364   3.169  0.0833 -3.3477 -0.3612
19946TIP3   OH281328   6.532   1.246  11.511 -0.1313  0.2909 -0.0492
19946TIP3    H181329   6.450   1.232  11.464 -0.4031  1.6373  0.0262
19946TIP3    H281330   6.507   1.288  11.593  0.3829 -1.7276  1.1911
19947TIP3   OH281331   4.365   6.124   3.601  0.3987  0.3355 -0.3174
19947TIP3    H181332   4.395   6.155   3.686  1.2255  1.7930 -1.1300
19947TIP3    H281333   4.362   6.202   3.546  1.5957 -0.8600 -2.1346
19948TIP3   OH281334   2.602   5.284   1.563  0.1452 -0.0550 -0.0150
19948TIP3    H181335   2.664   5.222   1.604  0.5096  0.3735  0.0844
19948TIP3    H281336   2.613   5.270   1.469 -0.3899 -0.7483  0.0266
19949TIP3   OH281337   5.570   2.815   5.867  0.2409  0.2887  0.3112
19949TIP3    H181338   5.652   2.765   5.868 -0.6075 -1.1075  1.8752
19949TIP3    H281339   5.574   2.870   5.945  0.2387  1.1632 -0.2933
19950TIP3   OH281340   3.059   4.355  14.404 -0.4422  0.4760 -0.6728
19950TIP3    H181341   3.120   4.364  14.331  0.4732 -1.4682 -0.1988
19950TIP3    H281342   3.017   4.271  14.390 -2.3097  1.3633 -0.4463
19951TIP3   OH281343   2.202   4.048  15.771  0.1314  0.3239 -0.6092
19951TIP3    H181344   2.225   4.071  15.681  1.9655 -0.1188 -0.2761
19951TIP3    H281345   2.131   4.109  15.794 -0.2968  0.4864 -2.3106
19952TIP3   OH281346   1.844   5.656  11.015  0.5600 -0.2968 -0.4714
19952TIP3    H181347   1.779   5.710  11.060  2.2141  1.0012  0.4339
19952TIP3    H281348   1.865   5.706  10.935 -2.4509 -2.6425 -2.8491
19953TIP3   OH281349   4.762   3.183   5.417 -0.2624 -0.3395  0.2875
19953TIP3    H181350   4.801   3.220   5.338 -3.1083  0.5041 -0.7856
19953TIP3    H281351   4.762   3.088   5.401  0.2919 -0.2710 -0.1634
19954TIP3   OH281352   1.810   6.515  15.621  0.1020 -0.5624  0.5924
19954TIP3    H181353   1.842   6.601  15.646 -0.1820 -0.0998 -0.5932
19954TIP3    H281354   1.715   6.527  15.610 -0.1647 -1.3813  1.8795
19955TIP3   OH281355   0.963   3.867   1.632  0.4045  0.0176 -0.0096
19955TIP3    H181356   0.918   3.902   1.709  0.7844  1.7804 -0.5611
19955TIP3    H281357   1.056   3.873   1.654  0.4792 -0.4874 -0.1881
19956TIP3   OH281358   3.718   0.574  15.059 -0.0663  0.0938 -0.0274
19956TIP3    H181359   3.652   0.517  15.100  0.3085 -0.3444 -0.0307
19956TIP3    H281360   3.800   0.550  15.101  0.6166 -1.5479 -2.1814
19957TIP3   OH281361   3.693   4.254  13.288 -0.4944  0.2928  0.1303
19957TIP3    H181362   3.612   4.303  13.279 -0.0259  1.0427 -0.0225
19957TIP3    H281363   3.676   4.171  13.243 -0.0833  1.7530 -2.8233
19958TIP3   OH281364   3.943   5.573   0.166 -0.1037 -0.0358  0.9779
19958TIP3    H181365   3.979   5.511   0.230  2.0395 -0.3963 -0.5493
19958TIP3    H281366   4.018   5.603   0.116 -1.1923  3.4583  1.3457
19959TIP3   OH281367   4.227   2.112  17.153  0.1516  0.2321  0.1421
19959TIP3    H181368   4.165   2.108  17.080 -0.2617 -2.9087  0.5701
19959TIP3    H281369   4.186   2.170  17.216  0.4232  2.8466 -2.0178
19960TIP3   OH281370   3.566   4.500  11.816 -0.2534 -0.2600  0.0793
19960TIP3    H181371   3.532   4.416  11.786  0.2115 -1.1211  1.8905
19960TIP3    H281372   3.490   4.558  11.814 -0.8971 -1.0883  0.1463
19961TIP3   OH281373   4.294   5.953  12.037 -0.2666  1.0550 -0.0657
19961TIP3    H181374   4.260   5.988  12.119  0.0484  1.6361 -0.1847
19961TIP3    H281375   4.324   6.029  11.988  0.4944  0.6286 -0.2847
19962TIP3   OH281376   0.563   6.362  11.508 -0.4352 -0.2070  0.2830
19962TIP3    H181377   0.478   6.391  11.476 -0.1597 -0.4352 -0.6884
19962TIP3    H281378   0.611   6.443  11.526 -0.5793 -0.0731  0.0686
19963TIP3   OH281379   4.202   0.207  16.255 -0.5007 -0.0354  0.7107
19963TIP3    H181380   4.291   0.214  16.291 -0.3262  1.4483  0.0543
19963TIP3    H281381   4.214   0.197  16.161 -0.9959 -2.0602  0.8545
19964TIP3   OH281382   3.229   6.287   3.318 -0.2451 -0.1416  0.3845
19964TIP3    H181383   3.282   6.218   3.278 -2.7306 -2.0547  0.2882
19964TIP3    H281384   3.256   6.288   3.410  1.5305  0.4836 -0.1113
19965TIP3   OH281385   1.811   4.090  14.121 -1.1657 -0.4919 -0.1887
19965TIP3    H181386   1.760   4.163  14.156  2.3958  1.2175  1.6821
19965TIP3    H281387   1.810   4.103  14.026 -2.3845  0.7135 -0.0175
19966TIP3   OH281388   5.121   6.005   0.935  0.2989 -0.7630  0.0389
19966TIP3    H181389   5.150   6.096   0.942  2.3489 -1.3597 -0.2650
19966TIP3    H281390   5.186   5.955   0.984 -0.0179 -2.2147 -0.9609
19967TIP3   OH281391   4.135   3.633  14.246 -0.4296  0.6636 -0.0009
19967TIP3    H181392   4.188   3.596  14.176  0.8040  1.5460  0.4441
19967TIP3    H281393   4.195   3.691  14.293 -0.2069 -2.4701  3.8705
19968TIP3   OH281394   2.644   0.937   3.076  0.6660 -0.1402  0.2148
19968TIP3    H181395   2.669   1.026   3.099 -0.3779  0.2818 -0.2967
19968TIP3    H281396   2.610   0.943   2.987 -2.5035 -0.4697  1.3617
19969TIP3   OH281397   2.963   1.325   0.920 -0.6176 -0.3908 -0.3198
19969TIP3    H181398   3.048   1.282   0.931 -0.8783 -0.8119  0.0637
19969TIP3    H281399   2.903   1.274   0.974 -1.0493  0.1068 -0.3260
19970TIP3   OH281400   4.377   0.629  13.769  0.5858  0.1174 -0.4015
19970TIP3    H181401   4.360   0.555  13.827  0.3825  1.0164  0.7068
19970TIP3    H281402   4.320   0.699  13.801  0.4476  0.6244 -1.7027
19971TIP3   OH281403   3.906   6.533  11.471 -0.1352 -0.2797  0.3951
19971TIP3    H181404   3.894   6.608  11.528  1.9561 -0.5827  1.2880
19971TIP3    H281405   3.966   6.563  11.403 -0.0052 -0.8736  0.2392
19972TIP3   OH281406   5.100   1.579  13.978  0.2867 -0.5151  0.9121
19972TIP3    H181407   5.159   1.517  14.022 -1.2470 -1.2669  1.9412
19972TIP3    H281408   5.120   1.663  14.019  2.2329 -0.3404 -0.3452
19973TIP3   OH281409   4.253   5.647   3.841 -0.1737  0.3825  0.7557
19973TIP3    H181410   4.309   5.635   3.764 -0.5650 -2.4125  0.8452
19973TIP3    H281411   4.312   5.674   3.910  0.3574  1.8231 -0.2341
19974TIP3   OH281412   5.861   4.250  13.088 -0.2335  0.2326 -0.7078
19974TIP3    H181413   5.834   4.181  13.027 -2.0274  0.1404  0.1478
19974TIP3    H281414   5.897   4.318  13.032  0.2934 -0.8260 -1.6812
19975TIP3   OH281415   6.081   1.017   5.139 -0.1606  0.0155 -0.2051
19975TIP3    H181416   6.141   0.944   5.127 -1.6901 -1.1736 -0.8199
19975TIP3    H281417   6.053   1.012   5.230 -2.3594 -1.8448 -0.9487
19976TIP3   OH281418   2.489   6.067   5.180  0.1324 -0.0051  0.1480
19976TIP3    H181419   2.402   6.031   5.166 -0.3084  1.1950 -0.3328
19976TIP3    H281420   2.526   6.015   5.251 -0.8322 -0.7703  0.0950
19977TIP3   OH281421   5.967   2.582  13.622 -0.3731 -0.0433 -0.0913
19977TIP3    H181422   5.901   2.547  13.682  0.2226 -1.3165 -0.1698
19977TIP3    H281423   5.982   2.513  13.558  0.6657  0.4245 -0.3723
19978TIP3   OH281424   2.202   4.757  14.172  0.6458 -0.3136  0.3702
19978TIP3    H181425   2.215   4.844  14.135  1.0338 -0.1290  0.9282
19978TIP3    H281426   2.209   4.697  14.097 -0.4443  0.1970 -0.1455
19979TIP3   OH281427   3.484   1.471  13.345  0.1983  0.0950 -0.2209
19979TIP3    H181428   3.463   1.378  13.345 -1.4978  0.4353  1.4477
19979TIP3    H281429   3.462   1.500  13.433 -0.1085  2.2388 -0.9687
19980TIP3   OH281430   0.986   3.895  15.988  0.0167 -0.1944 -0.6173
19980TIP3    H181431   1.072   3.916  15.951 -0.0136  0.4673 -0.3219
19980TIP3    H281432   0.924   3.946  15.936  0.0032  0.9849  0.5261
19981TIP3   OH281433   3.615   1.137  12.645 -0.2887 -0.0974 -0.0530
19981TIP3    H181434   3.537   1.115  12.696  0.9058  0.0981  1.9001
19981TIP3    H281435   3.624   1.065  12.583 -2.6587  0.4404 -1.0640
19982TIP3   OH281436   3.833   2.209  12.365  0.5801  0.3186 -0.2687
19982TIP3    H181437   3.925   2.184  12.372  0.1301 -1.5099 -0.5759
19982TIP3    H281438   3.799   2.203  12.454  0.4932 -0.1458 -0.3296
19983TIP3   OH281439   3.204   0.551   3.654 -0.0550 -0.8142  0.3139
19983TIP3    H181440   3.266   0.600   3.601  0.7562 -1.4727  0.6448
19983TIP3    H281441   3.126   0.542   3.599 -0.6837  1.8815  0.6971
19984TIP3   OH281442   6.793   2.434  10.848  0.0045  0.0908 -0.3427
19984TIP3    H181443   6.882   2.464  10.866  0.2080 -1.4242  1.2925
19984TIP3    H281444   6.737   2.505  10.878  0.5601 -0.2577  1.5964
19985TIP3   OH281445   2.387   2.731   1.025  0.7031  0.4048 -0.3073
19985TIP3    H181446   2.347   2.809   0.987 -0.3911 -1.1438 -2.4666
19985TIP3    H281447   2.325   2.661   1.005  1.8802 -1.0951  1.2022
19986TIP3   OH281448   0.761   5.924  10.944  0.1602 -0.2801  0.4412
19986TIP3    H181449   0.826   5.915  11.014 -1.0381  0.7651  1.7334
19986TIP3    H281450   0.749   5.835  10.911  1.3495 -0.6601  0.9962
19987TIP3   OH281451   0.577   4.135  13.066  0.1714  0.0285 -0.3539
19987TIP3    H181452   0.566   4.123  13.160 -0.4108  0.8895 -0.3052
19987TIP3    H281453   0.494   4.172  13.036 -0.7268 -2.9379 -1.7088
19988TIP3   OH281454   5.547   1.966  14.813  0.1922  0.2609 -0.0290
19988TIP3    H181455   5.576   2.055  14.793 -1.5122  0.2987 -2.6223
19988TIP3    H281456   5.509   1.973  14.901  0.5293  2.0000  0.0085
19989TIP3   OH281457   5.418   2.338  12.090 -0.1039  0.7772  0.2018
19989TIP3    H181458   5.496   2.283  12.081 -0.8386 -0.5422  1.6015
19989TIP3    H281459   5.430   2.407  12.025  0.9863 -0.8809 -1.4039
19990TIP3   OH281460   6.609   4.753   5.619 -0.4508 -0.4333  0.2807
19990TIP3    H181461   6.627   4.844   5.595  1.7805 -1.0955 -0.6513
19990TIP3    H281462   6.650   4.742   5.704  0.3659 -0.8943 -0.1629
19991TIP3   OH281463   5.932   4.905   2.303  0.1167 -0.1482  0.3703
19991TIP3    H181464   5.846   4.932   2.337  0.9219  0.3266  2.0831
19991TIP3    H281465   5.929   4.809   2.307 -0.4401 -0.1428  0.1700
19992TIP3   OH281466   0.545   1.377  16.096  0.2018 -0.4804  0.2586
19992TIP3    H181467   0.509   1.356  16.182 -1.6570 -1.8446 -0.8072
19992TIP3    H281468   0.474   1.358  16.035  1.4017  0.7154 -1.5633
19993TIP3   OH281469   5.254   6.580   1.684 -0.4836  0.5687  0.9922
19993TIP3    H181470   5.183   6.545   1.631  0.0304  1.5801 -0.4047
19993TIP3    H281471   5.218   6.658   1.725 -1.3140 -0.9738  3.2891
19994TIP3   OH281472   1.647   1.129  13.676 -0.9523 -1.2036  0.2194
19994TIP3    H181473   1.655   1.213  13.721  0.2508 -1.6414  0.8825
19994TIP3    H281474   1.623   1.151  13.586 -3.1527 -0.2926  0.9955
19995TIP3   OH281475   6.698   5.227  13.792 -0.0675 -0.0216  0.1274
19995TIP3    H181476   6.790   5.206  13.806  0.0495 -0.1078 -0.7948
19995TIP3    H281477   6.678   5.195  13.705 -0.6556  1.0807 -0.1560
19996TIP3   OH281478   6.120   2.867  14.871  0.1113 -0.1641  0.6915
19996TIP3    H181479   6.147   2.919  14.795  2.6578 -1.0590  0.9264
19996TIP3    H281480   6.047   2.916  14.909  0.8422  1.9302 -0.5217
19997TIP3   OH281481   4.885   0.919  16.670  0.4068  0.3537  0.6311
19997TIP3    H181482   4.846   0.953  16.750 -0.2772  1.7496 -0.2772
19997TIP3    H281483   4.812   0.879  16.623  1.1629 -2.2534  1.5977
19998TIP3   OH281484   6.317   1.375   4.288 -0.1094  0.1723  0.0494
19998TIP3    H181485   6.260   1.418   4.352 -1.2430 -2.1414  0.6430
19998TIP3    H281486   6.293   1.415   4.204 -0.6490  1.1644  0.6602
19999TIP3   OH281487   5.851   3.605   5.497  0.3159  0.8869 -0.4159
19999TIP3    H181488   5.801   3.557   5.563  0.8045  1.0829  0.0973
19999TIP3    H281489   5.927   3.549   5.479  0.6542  1.2582 -0.1456
20000TIP3   OH281490   5.909   6.153  16.913 -0.4795 -0.0609  0.5060
20000TIP3    H181491   5.925   6.236  16.958  0.3930 -0.0494  0.1931
20000TIP3    H281492   5.951   6.087  16.968  0.7225 -0.0306 -0.3506
20001TIP3   OH281493   2.362   6.283  14.352 -0.0585  0.0999  0.5099
20001TIP3    H181494   2.349   6.222  14.279 -1.0212 -0.6310  1.2735
20001TIP3    H281495   2.307   6.358  14.331  2.1967  1.3566 -1.1232
20002TIP3   OH281496   2.233   5.440  15.234  0.0820 -0.2646 -0.7242
20002TIP3    H181497   2.225   5.520  15.181  1.0334 -0.2745 -0.9020
20002TIP3    H281498   2.268   5.470  15.318 -0.3979 -0.3837 -0.4812
20003TIP3   OH281499   2.348   3.887   3.160  0.2181  0.2587  0.1994
20003TIP3    H181500   2.409   3.904   3.233  1.5995 -0.9633 -0.6604
20003TIP3    H281501   2.331   3.974   3.124  1.7181  0.6016  0.2574
20004TIP3   OH281502   6.580   6.479  11.416  0.2114 -0.3682  0.1368
20004TIP3    H181503   6.671   6.509  11.427  0.2773  0.3183 -2.0120
20004TIP3    H281504   6.587   6.384  11.416  1.0412 -0.3257 -0.5722
20005TIP3   OH281505   5.245   0.981   4.138 -0.2870  0.2763  0.2877
20005TIP3    H181506   5.209   0.961   4.224  0.9431 -0.0562  0.7431
20005TIP3    H281507   5.268   0.896   4.101  0.5804  0.5142  0.2658
20006TIP3   OH281508   3.176   4.550  11.988 -0.3600 -0.0295  0.1643
20006TIP3    H181509   3.231   4.598  11.927 -1.1083  0.6345  0.0103
20006TIP3    H281510   3.152   4.470  11.942 -0.2239  0.0790 -0.0914
20007TIP3   OH281511   6.229   5.955  13.101 -1.2025 -0.6097 -0.1280
20007TIP3    H181512   6.241   5.873  13.148 -2.1410 -0.0820  1.0730
20007TIP3    H281513   6.241   5.933  13.009  0.6327 -1.6835  0.3534
20008TIP3   OH281514   1.568   3.988   3.812 -0.2279  0.0052  0.0189
20008TIP3    H181515   1.658   3.983   3.778 -0.3275  1.8815 -0.5603
20008TIP3    H281516   1.580   4.007   3.905  0.0017  3.6161 -0.6702
20009TIP3   OH281517   1.265   2.487   0.793  0.3319  0.7964 -0.5371
20009TIP3    H181518   1.306   2.476   0.878  1.7344  0.4227 -1.2439
20009TIP3    H281519   1.315   2.429   0.735 -2.1831 -0.8845 -1.1044
20010TIP3   OH281520   0.466   1.756   1.109 -0.2631 -0.1260 -0.5732
20010TIP3    H181521   0.413   1.818   1.059 -1.7278 -1.5920 -0.8943
20010TIP3    H281522   0.412   1.731   1.184  0.7509 -0.1681  0.1640
20011TIP3   OH281523   0.575   4.864   5.116 -0.6837 -0.2171 -0.1404
20011TIP3    H181524   0.484   4.837   5.105 -0.8524 -1.0030  2.9370
20011TIP3    H281525   0.626   4.783   5.109 -0.4379 -0.1306  0.5798
20012TIP3   OH281526   2.171   5.565   5.644  0.3261  0.1832  0.1291
20012TIP3    H181527   2.078   5.584   5.631  0.1954 -0.2490  0.4252
20012TIP3    H281528   2.203   5.545   5.556 -0.2207 -1.2322  0.2356
20013TIP3   OH281529   5.636   3.421  12.639 -0.3868 -0.0349 -0.1698
20013TIP3    H181530   5.628   3.480  12.713 -0.1812 -0.0647 -0.1236
20013TIP3    H281531   5.714   3.451  12.592  0.0860 -0.6653  0.2064
20014TIP3   OH281532   3.733   0.013  13.895  0.0198 -0.0840 -0.0595
20014TIP3    H181533   3.689   0.086  13.850  2.2327  1.7686  0.6908
20014TIP3    H281534   3.666  -0.021  13.955 -0.3725  2.8603  1.2540
20015TIP3   OH281535   6.492   4.651  17.271 -0.0443 -0.1640  0.4061
20015TIP3    H181536   6.536   4.715  17.216  0.4554  0.1879  1.1983
20015TIP3    H281537   6.400   4.656  17.245  0.2377 -0.2212 -0.5928
20016TIP3   OH281538   2.390   2.462   1.196 -0.7321 -0.1470  0.1353
20016TIP3    H181539   2.468   2.506   1.231  0.1322 -1.2691 -0.3494
20016TIP3    H281540   2.359   2.521   1.127  0.4171 -0.2662 -0.5085
20017TIP3   OH281541   0.655   4.184  11.899 -0.6168 -0.6382 -0.6446
20017TIP3    H181542   0.618   4.177  11.987  0.0018 -0.6261 -0.3742
20017TIP3    H281543   0.596   4.242  11.851 -0.6639 -0.2044 -0.0678
20018TIP3   OH281544   0.111   0.385   3.313 -0.3421  0.6949 -0.0556
20018TIP3    H181545   0.069   0.471   3.302 -0.7056  0.7968  1.9848
20018TIP3    H281546   0.038   0.323   3.316 -0.2505  0.6613  1.5891
20019TIP3   OH281547   0.653   1.955   1.135 -0.4151  0.2395 -0.9897
20019TIP3    H181548   0.617   1.999   1.213  2.8894  0.2613  0.5887
20019TIP3    H281549   0.598   1.877   1.125  0.3333 -0.8396  2.6099
20020TIP3   OH281550   6.775   4.744   2.194 -0.1450 -0.0558  0.2385
20020TIP3    H181551   6.723   4.680   2.244 -1.5536  0.4282 -0.6008
20020TIP3    H281552   6.802   4.809   2.259 -0.3723 -0.4401  0.7181
20021TIP3   OH281553   1.430   3.579   0.881 -0.3384  0.4926  0.0389
20021TIP3    H181554   1.417   3.614   0.969  2.2419 -0.5969  0.9095
20021TIP3    H281555   1.386   3.494   0.881 -1.2760  0.9741 -0.0858
20022TIP3   OH281556   4.121   3.061  12.194  0.0588  0.2337 -0.0875
20022TIP3    H181557   4.158   3.001  12.260  0.9347  1.7802  0.8518
20022TIP3    H281558   4.059   3.115  12.243  0.6970  1.3716 -0.5271
20023TIP3   OH281559   5.341   5.552  10.216  0.4311 -0.1628 -0.1609
20023TIP3    H181560   5.348   5.646  10.232 -0.0066 -0.1451 -0.0682
20023TIP3    H281561   5.354   5.513  10.303  1.6751 -0.2388 -0.3764
20024TIP3   OH281562   1.082   2.785   0.414 -0.2605  0.7386  0.1255
20024TIP3    H181563   1.034   2.868   0.420 -0.5185  0.6205 -0.2844
20024TIP3    H281564   1.140   2.786   0.490  0.4038  1.7248 -0.3808
20025TIP3   OH281565   3.254   5.698  13.572 -0.4790  0.1754  0.3888
20025TIP3    H181566   3.313   5.650  13.514  0.9468  0.2772  1.7232
20025TIP3    H281567   3.216   5.766  13.517  3.0223  2.0779  0.2294
20026TIP3   OH281568   3.835   5.730  11.652  0.6580  0.5307 -0.2403
20026TIP3    H181569   3.814   5.776  11.733 -1.3643  0.1440 -0.5345
20026TIP3    H281570   3.905   5.783  11.613  0.9954  1.2333  1.2812
20027TIP3   OH281571   4.609   4.154   1.886  0.5622 -0.3012  0.3487
20027TIP3    H181572   4.595   4.086   1.820 -0.5458 -0.0857  0.3546
20027TIP3    H281573   4.602   4.108   1.970  0.7497 -0.3491  0.3388
20028TIP3   OH281574   5.732   0.607  15.065  0.3351 -0.3569 -0.0787
20028TIP3    H181575   5.667   0.676  15.050  0.0939 -0.3322  1.0339
20028TIP3    H281576   5.751   0.573  14.977 -2.0366 -1.1599 -0.3213
20029TIP3   OH281577   6.488   6.320   5.269 -0.2139 -0.1982  0.5514
20029TIP3    H181578   6.464   6.259   5.200  0.5962 -2.4939  2.2411
20029TIP3    H281579   6.425   6.303   5.339  0.5154  0.3513  1.3527
20030TIP3   OH281580   4.661   6.669  11.149 -0.3208  0.0310 -0.0918
20030TIP3    H181581   4.629   6.651  11.061 -0.5306 -1.6754  0.3064
20030TIP3    H281582   4.604   6.617  11.206  1.5817 -1.1360  0.8124
20031TIP3   OH281583   1.288   6.529  16.791 -0.5272 -0.1903  0.3686
20031TIP3    H181584   1.289   6.599  16.726  1.1906 -0.2210  0.3181
20031TIP3    H281585   1.197   6.499  16.794 -1.1066  1.4725 -0.2152
20032TIP3   OH281586   5.378   5.742   1.952 -0.3613  0.4422  0.1637
20032TIP3    H181587   5.352   5.708   2.038 -0.7752  1.8177  0.5992
20032TIP3    H281588   5.307   5.802   1.928 -0.3687 -0.1278 -1.2544
20033TIP3   OH281589   0.696   5.510   0.641  0.3719  0.1284  0.6374
20033TIP3    H181590   0.676   5.603   0.650 -0.1914  0.0798 -0.0234
20033TIP3    H281591   0.620   5.465   0.678  0.6653 -0.0657  1.0016
20034TIP3   OH281592   0.999   6.383  16.123 -0.0673  0.6195  0.3986
20034TIP3    H181593   0.965   6.432  16.049 -2.3585 -1.7371 -0.1915
20034TIP3    H281594   0.923   6.367  16.179  0.8679 -1.0574  1.2327
20035TIP3   OH281595   2.311   0.994  13.591 -0.3847 -0.7618  0.0235
20035TIP3    H181596   2.360   1.074  13.570 -2.6087 -0.2028 -3.4112
20035TIP3    H281597   2.376   0.924  13.583  0.7169  0.3227 -0.7898
20036TIP3   OH281598   2.659   5.322   4.390 -0.2465  0.0579 -0.1916
20036TIP3    H181599   2.566   5.307   4.378 -0.2748 -0.2795  0.3930
20036TIP3    H281600   2.668   5.417   4.393 -0.3667  0.1242 -1.7471
20037TIP3   OH281601   4.709   4.036  12.677  0.2777 -0.0512 -0.4749
20037TIP3    H181602   4.619   4.029  12.708  0.4451 -0.3453 -0.0427
20037TIP3    H281603   4.742   3.946  12.677  0.1199 -0.1166 -2.0330
20038TIP3   OH281604   4.359   5.942  11.018 -0.3371 -0.4561 -1.0783
20038TIP3    H181605   4.386   5.928  11.109 -2.4014 -1.9347 -0.6719
20038TIP3    H281606   4.438   5.975  10.975  0.4258  1.1964  1.4567
20039TIP3   OH281607   5.626   4.220   6.676 -0.7825 -0.3064 -0.2635
20039TIP3    H181608   5.607   4.235   6.769  0.0203 -1.2065  0.0486
20039TIP3    H281609   5.542   4.192   6.640 -1.6885  2.3499 -0.3307
20040TIP3   OH281610   1.316   4.328  10.393  0.1742  0.0932  0.5262
20040TIP3    H181611   1.306   4.362  10.482  0.9056 -1.3310  1.1619
20040TIP3    H281612   1.228   4.336  10.355 -0.6810 -1.3491  2.1340
20041TIP3   OH281613   3.528   6.466   2.447  0.1311  0.0421  0.2658
20041TIP3    H181614   3.571   6.426   2.522  0.2732 -1.4497 -0.5751
20041TIP3    H281615   3.487   6.545   2.481 -0.3366 -0.9418  2.0416
20042TIP3   OH281616   6.639   1.228  11.842  0.2423  0.3629 -0.3872
20042TIP3    H181617   6.605   1.316  11.826 -1.4357  0.0684  1.4326
20042TIP3    H281618   6.621   1.212  11.934  2.1934 -1.1970 -0.2483
20043TIP3   OH281619   4.089   3.175   5.873  0.3723 -0.3806 -0.3171
20043TIP3    H181620   4.127   3.202   5.956  1.0860 -1.4562 -0.2833
20043TIP3    H281621   3.997   3.200   5.879  0.1660 -1.4792  1.2562
20044TIP3   OH281622   2.605   0.460  12.905  0.6727  0.2780  0.4698
20044TIP3    H181623   2.526   0.420  12.942  0.9572  0.7323  1.5894
20044TIP3    H281624   2.601   0.440  12.812 -0.3680 -0.3724  0.6515
20045TIP3   OH281625   2.791   0.243  16.407 -0.2380 -0.6203 -0.1935
20045TIP3    H181626   2.844   0.324  16.406  0.0333 -0.7844  0.5915
20045TIP3    H281627   2.800   0.208  16.319  1.4086 -0.9201  0.0706
20046TIP3   OH281628   5.907   5.965   6.087 -0.1768  0.0671 -0.2126
20046TIP3    H181629   5.919   5.879   6.128 -0.6675  0.1092  0.0138
20046TIP3    H281630   5.845   6.011   6.143 -0.8665  0.1170 -0.9934
20047TIP3   OH281631   0.708   5.326  12.908  0.0478 -0.2516 -0.4755
20047TIP3    H181632   0.747   5.240  12.915  2.0461  0.7214  0.6913
20047TIP3    H281633   0.747   5.364  12.829  0.2003  0.0940 -0.2338
20048TIP3   OH281634   5.800   5.178  13.614  0.3037  0.6135 -0.4552
20048TIP3    H181635   5.814   5.124  13.536 -0.1521  2.1126 -1.5996
20048TIP3    H281636   5.796   5.115  13.686  0.7996 -0.7905 -1.6282
20049TIP3   OH281637   3.576   1.227   5.101 -0.1643  0.0942  0.3594
20049TIP3    H181638   3.666   1.253   5.085 -0.1214  0.7511  1.6089
20049TIP3    H281639   3.531   1.309   5.122 -1.5807  0.1305 -2.5549
20050TIP3   OH281640   1.897   4.286  10.797  0.1698  0.3651  0.2584
20050TIP3    H181641   1.888   4.203  10.844  0.9701 -0.2970 -0.7659
20050TIP3    H281642   1.807   4.318  10.788 -0.1059 -0.1968  0.9865
20051TIP3   OH281643   6.215   0.135   2.770  0.1641  0.1427  0.7672
20051TIP3    H181644   6.199   0.205   2.707 -0.5755  0.2667  1.0909
20051TIP3    H281645   6.203   0.054   2.720 -3.6389  0.1934  1.4860
20052TIP3   OH281646   5.219   3.648  13.026  0.0138  0.1823  1.1097
20052TIP3    H181647   5.249   3.571  13.074  0.1913 -0.3112  0.2185
20052TIP3    H281648   5.130   3.626  13.000 -1.2299  1.7213  3.9152
20053TIP3   OH281649   5.172   1.633   0.826  0.2502 -0.6780 -0.0929
20053TIP3    H181650   5.110   1.562   0.842  0.1307 -0.8740 -1.3526
20053TIP3    H281651   5.243   1.592   0.777 -0.5362  0.3438 -2.1780
20054TIP3   OH281652   5.244   3.844   1.116 -0.2931 -0.7024 -0.1771
20054TIP3    H181653   5.292   3.866   1.196 -2.5842 -0.4922  1.1820
20054TIP3    H281654   5.312   3.827   1.051  1.6010  0.9501  1.3193
20055TIP3   OH281655   2.910   2.941  16.743 -0.5527  0.0207 -0.0614
20055TIP3    H181656   2.974   2.890  16.694  0.0396  0.3251  0.3815
20055TIP3    H281657   2.846   2.969  16.678  1.4430  2.3331 -1.1028
20056TIP3   OH281658   3.183   5.845  12.665 -0.0509  0.1151  0.2020
20056TIP3    H181659   3.230   5.887  12.737 -0.9522 -0.6619  1.2538
20056TIP3    H281660   3.160   5.758  12.699 -2.0116  0.3903 -0.4003
20057TIP3   OH281661   3.137   5.704   5.165 -0.4375 -0.0471  0.0903
20057TIP3    H181662   3.159   5.719   5.073  0.5857  0.7572  0.4485
20057TIP3    H281663   3.124   5.792   5.201 -0.7031 -0.3550  0.7450
20058TIP3   OH281664   6.719   4.286  11.629 -0.4443  0.4005 -0.1191
20058TIP3    H181665   6.680   4.207  11.667  0.2530  0.2384  0.2526
20058TIP3    H281666   6.764   4.328  11.703  0.6228  0.2666 -0.6924
20059TIP3   OH281667   4.386   1.615  11.025 -0.4557  0.2069 -0.5089
20059TIP3    H181668   4.440   1.572  11.092 -1.4356  1.3242  1.0371
20059TIP3    H281669   4.449   1.665  10.972  0.1165  1.1814  1.0272
20060TIP3   OH281670   3.513   5.905   2.387 -0.0607 -0.6059  0.4482
20060TIP3    H181671   3.529   5.993   2.419  0.6599 -0.2759 -0.7955
20060TIP3    H281672   3.418   5.901   2.375  0.1678  0.9582 -2.1696
20061TIP3   OH281673   1.940   3.899  16.293 -0.7479 -0.4403 -0.3616
20061TIP3    H181674   1.863   3.925  16.242 -1.9326 -1.5699  0.7896
20061TIP3    H281675   1.991   3.979  16.302 -3.8558  1.3592  2.3812
20062TIP3   OH281676   6.187   6.237   2.496 -0.0528 -0.1941  0.6306
20062TIP3    H181677   6.226   6.310   2.450  0.0221 -1.8635 -2.0576
20062TIP3    H281678   6.098   6.266   2.516 -0.5290  0.0852 -1.7937
20063TIP3   OH281679   5.827   3.209  12.271 -0.1695  0.4020  0.2789
20063TIP3    H181680   5.835   3.303  12.252 -1.3587  0.2924 -0.8169
20063TIP3    H281681   5.853   3.201  12.363  1.1478  1.6217  0.0460
20064TIP3   OH281682   1.341   2.290  15.947  0.3854 -1.4150  0.0421
20064TIP3    H181683   1.406   2.306  15.879  0.0638  0.9176  0.2449
20064TIP3    H281684   1.257   2.289  15.901  0.2251 -0.4618  0.3024
20065TIP3   OH281685   2.398   4.875   0.862  0.1290 -0.0812  0.2583
20065TIP3    H181686   2.470   4.900   0.804  0.0606  1.0130  0.6324
20065TIP3    H281687   2.320   4.910   0.819  0.5006  4.8660  3.2053
20066TIP3   OH281688   1.290   2.691  16.644  0.3573 -0.2716 -0.3250
20066TIP3    H181689   1.384   2.694  16.625  0.5819  2.6501  1.0543
20066TIP3    H281690   1.248   2.712  16.561  1.0019  0.6950 -0.4225
20067TIP3   OH281691   5.995   6.712   0.650 -0.5445  0.4831  0.0476
20067TIP3    H181692   5.907   6.748   0.664 -0.1257  1.3078  0.5804
20067TIP3    H281693   6.050   6.756   0.715 -0.4161 -2.6725  2.2481
20068TIP3   OH281694   3.254   0.600  15.491 -0.2610 -0.6544  0.1172
20068TIP3    H181695   3.202   0.645  15.559 -0.0850 -2.9528  1.8368
20068TIP3    H281696   3.326   0.661  15.472  0.0345 -0.2194  2.4587
20069TIP3   OH281697   0.840   3.755  14.472  0.2949 -0.4211 -0.3145
20069TIP3    H181698   0.769   3.690  14.477  0.5492 -0.6141  0.6940
20069TIP3    H281699   0.808   3.819  14.407 -0.7774 -0.5355  0.0847
20070TIP3   OH281700   2.737   0.662   6.525 -0.3174  0.3228 -0.3156
20070TIP3    H181701   2.800   0.731   6.504 -0.9757  0.7113 -1.0307
20070TIP3    H281702   2.741   0.601   6.451  0.5953 -0.6526  0.5294
20071TIP3   OH281703   6.626   3.511  13.158  0.3457 -0.0756  0.2128
20071TIP3    H181704   6.721   3.498  13.164  0.0520 -1.9926  1.3027
20071TIP3    H281705   6.600   3.543  13.244 -0.0928 -0.2966  0.1654
20072TIP3   OH281706   5.498   4.062  12.761  0.0890  0.4731 -0.6089
20072TIP3    H181707   5.407   4.037  12.743  0.8468 -1.4068 -2.0897
20072TIP3    H281708   5.549   4.003  12.706  2.3402 -0.6540  2.5839
20073TIP3   OH281709   6.211   5.754   2.604 -0.4652  0.3760 -0.3564
20073TIP3    H181710   6.194   5.675   2.552  1.9359 -1.0784  0.9985
20073TIP3    H281711   6.157   5.743   2.682 -0.6235  0.4185 -0.4575
20074TIP3   OH281712   0.441   0.461   6.103 -0.5612 -0.4560 -0.5033
20074TIP3    H181713   0.358   0.468   6.150 -0.3444  1.0628 -0.3465
20074TIP3    H281714   0.487   0.390   6.148 -1.8916 -1.5487 -0.8078
20075TIP3   OH281715   2.534   6.484   1.042  0.6545 -0.9390  0.1821
20075TIP3    H181716   2.628   6.484   1.024  0.8049 -1.0971  0.9468
20075TIP3    H281717   2.521   6.413   1.105 -0.0013 -1.0226 -0.0433
20076TIP3   OH281718   5.934   1.049  16.710 -0.0029 -0.0049  0.3559
20076TIP3    H181719   5.900   1.138  16.713  1.1194  0.4278  0.4434
20076TIP3    H281720   5.992   1.043  16.786  0.3745 -0.6202  0.0272
20077TIP3   OH281721   5.538   0.746  11.104 -0.0152 -0.3288  0.1730
20077TIP3    H181722   5.528   0.689  11.180  4.0509 -1.0974  0.2433
20077TIP3    H281723   5.485   0.704  11.036  0.2941 -2.4364  1.1789
20078TIP3   OH281724   6.458   3.184  13.409  0.1741  0.3658  0.3873
20078TIP3    H181725   6.552   3.196  13.416  0.3856  0.8974 -2.5988
20078TIP3    H281726   6.444   3.091  13.428  1.2548  0.3744  1.2346
20079TIP3   OH281727   4.412   1.990  15.789 -0.0435  0.2215  0.2500
20079TIP3    H181728   4.504   1.988  15.762 -0.6040 -1.9603 -1.6732
20079TIP3    H281729   4.408   1.930  15.864  0.0165 -0.0852  0.0111
20080TIP3   OH281730   0.141   6.444   5.163 -0.4062  0.2547  0.0907
20080TIP3    H181731   0.110   6.462   5.074 -2.0188 -0.7854  0.4230
20080TIP3    H281732   0.087   6.371   5.193 -0.2271  0.9137  2.1093
20081TIP3   OH281733   4.130   6.036   1.028 -0.7740 -0.2847 -0.3369
20081TIP3    H181734   4.127   6.094   1.103  1.4399 -0.0827 -0.3849
20081TIP3    H281735   4.085   6.084   0.958  0.1246  0.9417 -0.0844
20082TIP3   OH281736   5.624   1.409  15.046 -0.3791  0.2868  0.5994
20082TIP3    H181737   5.638   1.410  15.141 -1.9699  0.9236  0.8359
20082TIP3    H281738   5.559   1.341  15.032  1.0711 -0.9524 -0.2322
20083TIP3   OH281739   4.324   5.909   4.534 -0.0505 -0.1764 -0.1292
20083TIP3    H181740   4.315   5.874   4.445  0.4164 -1.6800  0.4087
20083TIP3    H281741   4.362   5.996   4.521 -0.1976 -0.2883 -1.4187
20084TIP3   OH281742   5.928   4.330   2.367 -0.0571  0.6065  0.0117
20084TIP3    H181743   5.875   4.274   2.423 -0.2915  1.2990  0.4805
20084TIP3    H281744   6.008   4.346   2.418 -0.0406  0.7905 -0.0708
20085TIP3   OH281745   0.966   5.980   5.670 -0.0326  0.0230  0.2193
20085TIP3    H181746   0.930   5.994   5.757 -1.0614 -0.6540 -0.0918
20085TIP3    H281747   1.045   6.034   5.668 -0.4414  0.6722  1.2852
20086TIP3   OH281748   4.372   3.870   1.734  0.0273  0.6353 -0.1600
20086TIP3    H181749   4.359   3.779   1.710 -0.2474  0.7158 -0.3217
20086TIP3    H281750   4.467   3.881   1.738  0.1104  0.8238 -2.0416
20087TIP3   OH281751   1.492   2.188  17.209 -0.3438  0.1790  0.0402
20087TIP3    H181752   1.499   2.133  17.132 -1.4401 -0.6311  0.5066
20087TIP3    H281753   1.398   2.206  17.217 -0.0491  1.7744  0.1269
20088TIP3   OH281754   1.356   2.265  13.109 -0.0600 -0.3401  0.5207
20088TIP3    H181755   1.349   2.336  13.172  1.7278 -0.5219  0.9304
20088TIP3    H281756   1.267   2.255  13.075 -1.5894 -1.7491  4.6337
20089TIP3   OH281757   2.287   4.144  14.017 -0.1333  0.2289 -0.0643
20089TIP3    H181758   2.215   4.083  14.002 -0.5803  0.8498 -0.4586
20089TIP3    H281759   2.245   4.227  14.041  0.5264 -0.2615  2.9880
20090TIP3   OH281760   2.465   5.891  15.680  0.1274 -0.4086  0.9113
20090TIP3    H181761   2.471   5.853  15.593  1.2519  1.4160  0.1746
20090TIP3    H281762   2.521   5.835  15.734  0.2057 -0.9601  0.2679
20091TIP3   OH281763   4.145   2.750   0.943  0.0630 -0.2724  0.1042
20091TIP3    H181764   4.057   2.780   0.922 -0.0023 -0.0488  0.6946
20091TIP3    H281765   4.171   2.697   0.868  0.0022  0.8712 -0.7446
20092TIP3   OH281766   1.573   0.071  16.390 -0.0910  0.1688  0.7500
20092TIP3    H181767   1.662   0.051  16.417  0.8134  3.5634  0.4389
20092TIP3    H281768   1.576   0.162  16.360 -3.6558  0.3551  0.7134
20093TIP3   OH281769   6.051   2.456   0.647 -0.0651  0.2463 -0.3394
20093TIP3    H181770   5.967   2.458   0.693 -0.3358  2.1693 -0.8718
20093TIP3    H281771   6.106   2.400   0.701 -1.4686 -0.4667  0.3940
20094TIP3   OH281772   0.279   1.766  15.200 -0.2884  0.4337 -0.1919
20094TIP3    H181773   0.373   1.765  15.221 -0.8131 -0.1682  2.2726
20094TIP3    H281774   0.273   1.722  15.115  1.6657  0.5344 -0.4088
20095TIP3   OH281775   3.285   2.076   5.149  0.1013 -0.3760 -0.1020
20095TIP3    H181776   3.286   2.149   5.211  2.4033 -1.1565  0.8564
20095TIP3    H281777   3.212   2.095   5.090  0.8990  2.9375 -0.1535
20096TIP3   OH281778   0.193   0.161  11.910 -1.0436  0.1975 -0.1677
20096TIP3    H181779   0.140   0.170  11.831 -0.8185 -1.0052 -0.4730
20096TIP3    H281780   0.155   0.086  11.955 -0.2651 -0.0213  0.1365
20097TIP3   OH281781   2.865   2.819   4.084  0.6535 -0.8714  0.3794
20097TIP3    H181782   2.809   2.809   4.162 -1.2772 -2.0524 -1.1207
20097TIP3    H281783   2.908   2.735   4.075  3.2424  0.2263  1.8827
20098TIP3   OH281784   1.979   5.914   3.901  0.4243 -0.1427 -0.4471
20098TIP3    H181785   2.012   5.966   3.974  0.8427  1.8190 -1.9674
20098TIP3    H281786   2.053   5.862   3.872  0.8118  0.5199 -0.6686
20099TIP3   OH281787   1.895   6.258  13.689 -0.1161  0.2982 -0.5344
20099TIP3    H181788   1.801   6.263  13.704 -0.0483  0.0550 -0.0035
20099TIP3    H281789   1.904   6.229  13.598 -0.5491  0.4125 -0.6131
20100TIP3   OH281790   0.614   2.558  13.892 -0.2421  0.3686  0.3230
20100TIP3    H181791   0.680   2.513  13.840 -0.0648  2.4829 -1.3288
20100TIP3    H281792   0.545   2.493  13.904  0.0263 -0.3860 -1.9661
20101TIP3   OH281793   2.390   0.658  12.352  0.4339 -0.1148  0.2611
20101TIP3    H181794   2.485   0.659  12.339  0.5356  0.3787  1.0041
20101TIP3    H281795   2.359   0.584  12.299  1.3196 -0.7235  0.5879
20102TIP3   OH281796   5.073   5.017   1.388  0.2937  0.0830 -0.0725
20102TIP3    H181797   5.055   5.097   1.438 -0.4402 -0.4343  0.5072
20102TIP3    H281798   5.061   4.947   1.452  1.3542 -0.4683 -0.4675
20103TIP3   OH281799   6.468   6.501  14.214  0.0755 -0.4684 -0.3226
20103TIP3    H181800   6.420   6.475  14.135 -0.3153 -0.6157 -0.0381
20103TIP3    H281801   6.421   6.458  14.286 -0.8564  1.3699  0.1914
20104TIP3   OH281802   4.100   3.379  10.487  0.7053 -0.1903  0.0349
20104TIP3    H181803   4.057   3.464  10.502  0.6197 -0.5159  1.7387
20104TIP3    H281804   4.182   3.386  10.535  0.6992 -1.0817  0.1687
20105TIP3   OH281805   2.345   5.613  14.761 -0.3599  0.1605 -0.3329
20105TIP3    H181806   2.278   5.624  14.828 -0.9976 -0.1341 -0.9253
20105TIP3    H281807   2.335   5.524  14.729  0.1509  0.1926 -0.6015
20106TIP3   OH281808   1.888   1.870   3.660  1.0005 -0.1769 -0.4490
20106TIP3    H181809   1.881   1.920   3.579  0.3137  1.0765  0.3745
20106TIP3    H281810   1.878   1.934   3.729 -1.3640 -1.6591  0.6302
20107TIP3   OH281811   0.174   2.178  13.078 -0.1185 -0.7226  0.6078
20107TIP3    H181812   0.110   2.116  13.114 -0.4870 -1.5530 -1.4063
20107TIP3    H281813   0.162   2.172  12.984  0.8969  1.3316  0.3248
20108TIP3   OH281814   0.970   5.832  16.383 -0.1541 -0.1429 -0.1266
20108TIP3    H181815   0.959   5.827  16.478 -1.6929  0.5855 -0.2534
20108TIP3    H281816   0.942   5.921  16.360  1.1346  0.0128 -1.1479
20109TIP3   OH281817   6.248   5.711   0.623 -0.3203 -0.4034  0.0225
20109TIP3    H181818   6.342   5.694   0.616 -0.6309 -1.1636 -2.8567
20109TIP3    H281819   6.242   5.805   0.638  0.9463 -0.6565  2.4091
20110TIP3   OH281820   5.906   4.802  15.295  0.0175  0.3288  0.2006
20110TIP3    H181821   5.907   4.897  15.282 -1.3025  0.0187 -2.5301
20110TIP3    H281822   5.830   4.787  15.352 -1.3656  0.7189 -1.4877
20111TIP3   OH281823   0.570   5.291  15.375 -0.0760  0.0897  0.6075
20111TIP3    H181824   0.611   5.219  15.424  1.5174  0.5375 -0.0399
20111TIP3    H281825   0.483   5.301  15.415  0.6515 -0.5127  2.3901
20112TIP3   OH281826   1.028   5.980  13.764  0.1456 -0.3292 -0.1504
20112TIP3    H181827   1.008   5.900  13.813 -0.9711 -0.6827 -1.1452
20112TIP3    H281828   0.956   6.039  13.786  0.7145  0.2194  0.2102
20113TIP3   OH281829   6.589   4.903  13.257  0.7237 -0.5203 -0.0119
20113TIP3    H181830   6.574   4.901  13.162 -1.7900 -2.3158  0.3695
20113TIP3    H281831   6.588   4.996  13.279  1.1508 -0.0882 -1.7187
20114TIP3   OH281832   6.768   5.429   4.144 -0.1546  0.1451  0.6396
20114TIP3    H181833   6.722   5.497   4.095  1.2410  0.2093 -0.6058
20114TIP3    H281834   6.820   5.383   4.078  0.2391 -1.0212  1.7509
20115TIP3   OH281835   6.531   1.283   0.883  0.4188  0.3535 -0.2386
20115TIP3    H181836   6.458   1.230   0.915  0.6068  0.6355  0.6799
20115TIP3    H281837   6.498   1.323   0.802  0.1059 -0.7558 -0.6580
20116TIP3   OH281838   2.921   2.397   4.433  0.3996 -0.4547  1.3827
20116TIP3    H181839   2.887   2.366   4.517 -4.4781  2.4154  0.6439
20116TIP3    H281840   2.845   2.400   4.376  2.4204  3.4377 -1.3690
20117TIP3   OH281841   1.290   0.937   0.557  0.0825  0.6610 -0.6384
20117TIP3    H181842   1.380   0.947   0.525  0.7610  0.5758  1.2194
20117TIP3    H281843   1.246   1.017   0.530  0.0159 -0.3122 -3.7102
20118TIP3   OH281844   5.372   5.099  11.277  0.3543 -0.7649  0.0385
20118TIP3    H181845   5.414   5.013  11.281 -0.1099 -1.1079 -1.7361
20118TIP3    H281846   5.444   5.161  11.283  0.8005 -1.2945  0.2633
20119TIP3   OH281847   3.753   2.575  15.571 -0.1516 -0.8933  0.5245
20119TIP3    H181848   3.688   2.539  15.632 -0.1998 -2.1936 -0.2691
20119TIP3    H281849   3.777   2.501  15.516  1.0719 -0.1120 -0.0161
20120TIP3   OH281850   0.749   2.690  12.799  0.1546  0.0076  0.1831
20120TIP3    H181851   0.675   2.746  12.776 -0.3109 -0.0730  1.4511
20120TIP3    H281852   0.766   2.709  12.892 -1.3506 -3.4332  1.2388
20121TIP3   OH281853   6.734   3.282   5.329  0.0010 -0.1887 -0.0953
20121TIP3    H181854   6.768   3.359   5.375 -1.1658 -0.2374  0.8682
20121TIP3    H281855   6.725   3.310   5.238  0.2593  0.5795  0.1139
20122TIP3   OH281856   3.211   3.548  16.447 -0.0189  0.3465 -0.4736
20122TIP3    H181857   3.259   3.631  16.448  0.0580  0.3094  1.4158
20122TIP3    H281858   3.153   3.555  16.372  0.5084  1.8240 -0.7657
20123TIP3   OH281859   3.263   4.413  12.484  0.8195 -0.4953  0.0448
20123TIP3    H181860   3.193   4.440  12.543  1.2289 -1.1331  0.8284
20123TIP3    H281861   3.244   4.460  12.402  0.5535  0.8180  0.8364
20124TIP3   OH281862   2.060   2.150   2.758 -0.4747  0.9561 -0.0540
20124TIP3    H181863   2.077   2.059   2.779  1.9769  1.5500  0.6726
20124TIP3    H281864   1.966   2.153   2.739 -0.4185 -1.8815 -1.0664
20125TIP3   OH281865   1.513   5.561   6.173  0.1535  0.6063  0.2477
20125TIP3    H181866   1.604   5.538   6.192  0.3726  0.8162 -0.5116
20125TIP3    H281867   1.466   5.541   6.253  0.7449 -0.2428  0.3919
20126TIP3   OH281868   6.752   0.492  11.862 -0.0642  0.2305  0.2621
20126TIP3    H181869   6.712   0.543  11.932  0.8261  0.9089  0.2764
20126TIP3    H281870   6.754   0.551  11.787  0.1678 -0.0749  0.0256
20127TIP3   OH281871   6.662   4.346   1.836 -0.1594 -0.3339  0.1551
20127TIP3    H181872   6.706   4.426   1.806  0.0676 -0.0347  1.2794
20127TIP3    H281873   6.712   4.275   1.795  0.0536  0.0765 -0.3022
20128TIP3   OH281874   5.891   2.485  10.558  0.3170  0.4899  0.0750
20128TIP3    H181875   5.919   2.466  10.647  1.9105 -0.9501 -0.6931
20128TIP3    H281876   5.967   2.526  10.517  0.2913 -0.6239 -1.1604
20129TIP3   OH281877   1.502   4.612  12.033  0.0770 -0.2617 -0.2008
20129TIP3    H181878   1.537   4.647  12.115 -0.0896  0.9220 -0.6240
20129TIP3    H281879   1.574   4.560  11.997  0.2360 -0.5889  0.5654
20130TIP3   OH281880   0.617   5.309  14.752  0.4966  0.5677 -0.1801
20130TIP3    H181881   0.666   5.341  14.827  2.1423  1.0494 -1.4237
20130TIP3    H281882   0.531   5.351  14.759  0.9520  1.3368  0.8992
20131TIP3   OH281883   2.108   4.734  12.881 -0.6497 -0.0606  0.5613
20131TIP3    H181884   2.095   4.758  12.789 -0.2051  0.6771  0.6846
20131TIP3    H281885   2.124   4.817  12.925 -0.2274 -0.4764  1.1970
20132TIP3   OH281886   4.252   0.286   2.413  1.1666  0.2561  0.0079
20132TIP3    H181887   4.240   0.208   2.359 -0.9618  0.0658  0.7120
20132TIP3    H281888   4.344   0.283   2.439  1.7768 -0.6035 -2.1081
20133TIP3   OH281889   2.533   1.160  14.143  0.0727 -0.4559 -0.2666
20133TIP3    H181890   2.572   1.245  14.122  1.3376 -1.2203 -1.0819
20133TIP3    H281891   2.497   1.172  14.231 -1.3502  1.4448 -1.0668
20134TIP3   OH281892   5.244   6.401   0.639  0.1786  0.1276  0.1362
20134TIP3    H181893   5.280   6.419   0.552 -1.8375  3.0212 -0.1537
20134TIP3    H281894   5.152   6.379   0.624  0.6989 -3.1164  1.2480
20135TIP3   OH281895   4.674   0.549  11.826  0.1889 -0.1645  0.4438
20135TIP3    H181896   4.631   0.481  11.774 -2.5895  1.9756 -0.1834
20135TIP3    H281897   4.611   0.571  11.894  0.2230  3.1002 -0.5057
20136TIP3   OH281898   2.871   4.072  17.243  0.5594  0.0885  0.2383
20136TIP3    H181899   2.915   4.122  17.312  0.4902 -0.4860  0.7049
20136TIP3    H281900   2.920   4.092  17.164  3.0210 -2.1935  1.1129
20137TIP3   OH281901   4.259   2.270  11.723 -0.0348  0.5222 -0.2348
20137TIP3    H181902   4.334   2.237  11.773  0.4088 -1.1547 -1.9846
20137TIP3    H281903   4.187   2.272  11.787  0.8332 -0.3572  0.7872
20138TIP3   OH281904   4.087   3.279   4.214 -0.1791 -0.0206 -0.0114
20138TIP3    H181905   4.063   3.308   4.302 -1.2594 -0.0220 -0.2946
20138TIP3    H281906   4.085   3.359   4.161 -1.4905 -0.3315 -0.4406
20139TIP3   OH281907   6.458   0.196  14.867  0.1535 -0.6857 -0.4524
20139TIP3    H181908   6.387   0.258  14.847 -0.1228 -0.5446  0.9357
20139TIP3    H281909   6.523   0.249  14.913 -1.0484 -1.8506  2.7226
20140TIP3   OH281910   2.838   6.531  13.066 -0.2606  0.4826  0.1113
20140TIP3    H181911   2.859   6.624  13.073 -1.6113  0.7968  0.0873
20140TIP3    H281912   2.768   6.517  13.130 -0.7886 -0.2923 -0.6216
20141TIP3   OH281913   6.791   2.098   5.544  0.8732 -0.7225 -0.5632
20141TIP3    H181914   6.822   2.165   5.483 -0.0176 -0.4951 -0.7644
20141TIP3    H281915   6.696   2.100   5.536  0.8997 -2.9356 -1.5304
20142TIP3   OH281916   4.247   0.115   4.090 -0.4607 -0.3545  0.1670
20142TIP3    H181917   4.161   0.155   4.106 -0.6238 -1.3590  1.9098
20142TIP3    H281918   4.235   0.065   4.009 -2.4744 -3.0049  1.9957
20143TIP3   OH281919   4.272   4.051   0.100  0.1091  0.2153 -0.1277
20143TIP3    H181920   4.305   4.130   0.143  0.5492 -0.0843  0.0914
20143TIP3    H281921   4.185   4.038   0.136  0.1660  0.4156  0.0840
20144TIP3   OH281922   6.096   0.274   4.644 -0.1222 -0.1763 -0.2697
20144TIP3    H181923   6.060   0.211   4.707  0.1037 -0.3570 -0.3227
20144TIP3    H281924   6.053   0.357   4.667 -0.6137 -0.3997 -0.3646
20145TIP3   OH281925   1.705   3.971  13.481 -0.3209  0.6841  0.1122
20145TIP3    H181926   1.670   4.036  13.420  0.4378  0.0330 -1.0573
20145TIP3    H281927   1.630   3.942  13.532 -1.0246  1.0588 -0.7012
20146TIP3   OH281928   0.199   5.249  11.411 -0.3410  0.8704 -0.1944
20146TIP3    H181929   0.236   5.310  11.475 -1.1523  0.4412  0.6977
20146TIP3    H281930   0.220   5.288  11.326  1.1833  1.1973  0.3035
20147TIP3   OH281931   5.800   4.223  11.086 -0.7234 -0.5936 -0.4178
20147TIP3    H181932   5.779   4.153  11.024 -0.4508 -1.5762  0.5858
20147TIP3    H281933   5.716   4.246  11.125 -1.0476  0.7226 -1.8714
20148TIP3   OH281934   1.122   4.289  12.086  0.0573  0.0316  0.0857
20148TIP3    H181935   1.130   4.282  12.181  0.4091  2.6641  0.2795
20148TIP3    H281936   1.204   4.328  12.057  0.0710 -1.0100 -1.3403
20149TIP3   OH281937   5.074   6.716   5.345 -0.2016  0.0635  0.5654
20149TIP3    H181938   5.166   6.723   5.321 -0.4966  1.4349 -0.1921
20149TIP3    H281939   5.040   6.805   5.341 -2.6361 -0.9167 -3.5303
20150TIP3   OH281940   0.966   0.707  15.708  0.0124  0.7448  0.0406
20150TIP3    H181941   1.002   0.661  15.633 -0.3078  1.2366 -0.4225
20150TIP3    H281942   0.986   0.799  15.691 -1.1094  0.9828 -0.0345
20151TIP3   OH281943   3.253   6.142  13.549 -0.5656 -0.4937  0.4285
20151TIP3    H181944   3.238   6.126  13.456 -1.5576  0.8706  0.3434
20151TIP3    H281945   3.294   6.228  13.553 -1.3746 -0.1364  1.3065
20152TIP3   OH281946   6.732   4.576  10.681 -0.6669  0.1896  0.2335
20152TIP3    H181947   6.797   4.510  10.706 -3.0319 -1.8518  1.2764
20152TIP3    H281948   6.722   4.565  10.586  2.5469  2.4969 -0.4301
20153TIP3   OH281949   6.283   6.641   5.392  0.6733  0.2308  0.1519
20153TIP3    H181950   6.327   6.571   5.440 -0.4670  0.5193  1.6445
20153TIP3    H281951   6.351   6.707   5.377  1.2223 -0.2170  0.6712
20154TIP3   OH281952   1.630   0.077   3.636 -0.6431  0.1438  0.2303
20154TIP3    H181953   1.720   0.048   3.624 -0.3998 -0.7514  3.7343
20154TIP3    H281954   1.603   0.110   3.550  2.5038 -0.9631 -1.2193
20155TIP3   OH281955   3.088   3.838  15.050 -0.7582 -0.3585  0.2428
20155TIP3    H181956   3.157   3.904  15.048 -0.6958 -0.3818  1.2529
20155TIP3    H281957   3.020   3.876  15.106 -1.1721 -0.7071 -0.0209
20156TIP3   OH281958   3.550   6.330   3.347  0.5993  0.3032 -0.3228
20156TIP3    H181959   3.528   6.282   3.267  0.6055 -0.4167  0.0987
20156TIP3    H281960   3.489   6.296   3.412  1.3649  0.0468  0.2614
20157TIP3   OH281961   2.681   4.233  11.809 -0.0442  0.1469 -0.0801
20157TIP3    H181962   2.611   4.249  11.746  0.8832  1.0939 -0.8973
20157TIP3    H281963   2.748   4.298  11.787  1.8888 -1.9309 -0.4978
20158TIP3   OH281964   6.678   6.172  11.812 -0.3477  0.4329  0.0140
20158TIP3    H181965   6.765   6.155  11.847  0.0317  0.2508 -1.0208
20158TIP3    H281966   6.620   6.114  11.862  0.1373  0.4655  0.6121
20159TIP3   OH281967   6.332   5.785  12.247  0.4155 -0.9304  0.2963
20159TIP3    H181968   6.420   5.763  12.217  0.2541  0.9361 -1.6709
20159TIP3    H281969   6.322   5.878  12.225 -1.2557 -0.5429  2.4726
20160TIP3   OH281970   3.363   0.344   6.149 -0.4878  0.0126  0.2119
20160TIP3    H181971   3.287   0.292   6.176 -0.7753  0.7400  0.8120
20160TIP3    H281972   3.352   0.428   6.193  0.4747  0.2529  0.0150
20161TIP3   OH281973   5.342   4.723  13.325  0.0061 -0.1780 -0.2355
20161TIP3    H181974   5.277   4.725  13.255  1.2519 -2.2120 -1.4857
20161TIP3    H281975   5.397   4.800  13.310 -2.0607  1.5704  0.8363
20162TIP3   OH281976   5.997   3.310   0.196 -0.0445 -0.4272  0.4338
20162TIP3    H181977   6.086   3.344   0.191 -0.2495  0.2432  1.2742
20162TIP3    H281978   5.979   3.277   0.108  1.2860 -1.2235  0.4401
20163TIP3   OH281979   5.518   4.795  10.958 -0.1653  0.3086 -0.2739
20163TIP3    H181980   5.479   4.733  10.897  0.3676  0.4295 -0.7479
20163TIP3    H281981   5.520   4.878  10.910  0.4865  0.3484 -0.1838
20164TIP3   OH281982   5.566   1.098   4.804  0.4301 -0.3622 -0.3535
20164TIP3    H181983   5.557   1.124   4.895 -1.3993 -0.5246 -0.4698
20164TIP3    H281984   5.499   1.148   4.758  0.1133 -1.6432 -1.3198
20165TIP3   OH281985   2.678   0.913  16.029  0.3386 -0.2668  0.5435
20165TIP3    H181986   2.628   0.976  15.977  2.7395  1.4291  0.1974
20165TIP3    H281987   2.612   0.869  16.082 -1.5920  1.4951 -0.2903
20166TIP3   OH281988   6.735   4.845   3.949 -0.8225 -0.1921  0.5321
20166TIP3    H181989   6.707   4.807   3.866 -0.1553 -0.9522  0.6482
20166TIP3    H281990   6.785   4.923   3.924  1.9336 -2.0316  0.0424
20167TIP3   OH281991   1.594   2.352   4.813 -0.3524  0.4286  0.4313
20167TIP3    H181992   1.508   2.315   4.835 -0.1095 -0.2039  0.3359
20167TIP3    H281993   1.629   2.381   4.897 -0.7030  0.7903  0.4570
20168TIP3   OH281994   2.462   4.773  12.199  0.0439 -0.3107 -0.4938
20168TIP3    H181995   2.429   4.846  12.147 -0.4337 -0.5641 -0.5529
20168TIP3    H281996   2.393   4.707  12.194 -0.8103  0.3700  1.9729
20169TIP3   OH281997   2.656   2.461  15.281 -0.0107  0.0570 -0.2361
20169TIP3    H181998   2.726   2.523  15.301  2.1377 -2.3567  0.1491
20169TIP3    H281999   2.666   2.445  15.187 -0.2329 -0.0686 -0.2379
20170TIP3   OH282000   4.110   5.322  12.437 -0.0573 -0.0145  0.4414
20170TIP3    H182001   4.096   5.416  12.424 -2.5953 -0.4132  0.0654
20170TIP3    H282002   4.055   5.300  12.511  0.5432 -1.2319  0.5392
20171TIP3   OH282003   6.421   4.072  14.844  0.2203 -0.4426 -0.0269
20171TIP3    H182004   6.342   4.064  14.790  0.7422  0.5441 -0.9366
20171TIP3    H282005   6.387   4.093  14.932 -0.4859  1.1127 -0.6498
20172TIP3   OH282006   2.634   0.342  15.443  0.4683 -1.3186  0.2138
20172TIP3    H182007   2.715   0.390  15.421  0.2819 -0.7545  0.7313
20172TIP3    H282008   2.602   0.309  15.359  0.5195 -0.3903 -0.1795
20173TIP3   OH282009   5.249   4.534  13.015 -0.0346  0.5899 -0.1804
20173TIP3    H182010   5.221   4.483  12.939 -2.1507  1.5912 -0.1138
20173TIP3    H282011   5.281   4.616  12.978  2.0700 -0.2066 -0.1914
20174TIP3   OH282012   5.685   2.984  13.146 -0.2548  0.7487 -0.2630
20174TIP3    H182013   5.743   2.988  13.222  1.6140 -3.1187 -1.3541
20174TIP3    H282014   5.730   3.035  13.079  0.8364 -0.3861 -0.4170
20175TIP3   OH282015   1.926   4.382  16.216  0.3740  0.7264 -0.4584
20175TIP3    H182016   1.868   4.359  16.144 -0.4326  1.1736  0.0340
20175TIP3    H282017   1.874   4.441  16.271  0.9367  0.3212  0.5365
20176TIP3   OH282018   2.713   2.239  13.369 -0.2769  0.0989 -0.6161
20176TIP3    H182019   2.752   2.233  13.457 -0.0794 -0.1770 -0.7206
20176TIP3    H282020   2.666   2.156  13.358  0.6003 -0.3336 -1.1942
20177TIP3   OH282021   3.452   4.890  14.588  0.1673  0.4517 -0.0215
20177TIP3    H182022   3.451   4.844  14.505  2.5854  0.4165 -0.0817
20177TIP3    H282023   3.482   4.979  14.566  0.0173  0.6883  0.7019
20178TIP3   OH282024   4.454   6.145   6.875  0.6874  0.6771 -0.1086
20178TIP3    H182025   4.493   6.226   6.844  2.5330 -0.5769 -1.1957
20178TIP3    H282026   4.528   6.084   6.883 -0.7755 -1.1892 -0.3315
20179TIP3   OH282027   4.182   0.267   0.790 -0.4548 -0.4125 -0.2287
20179TIP3    H182028   4.118   0.199   0.770  0.5310 -1.9580  1.7486
20179TIP3    H282029   4.149   0.309   0.869 -1.0106  1.3822 -1.3863
20180TIP3   OH282030   1.103   5.002  14.757  0.3241  0.0904  0.0102
20180TIP3    H182031   1.022   5.051  14.747  0.2498  0.1056  0.6727
20180TIP3    H282032   1.126   4.975  14.668 -1.5000 -1.7128  0.0688
20181TIP3   OH282033   5.707   5.403  13.871 -0.6471  0.0682 -0.2945
20181TIP3    H182034   5.691   5.324  13.922 -2.3596  1.1177  0.8748
20181TIP3    H282035   5.746   5.465  13.933 -0.4136  0.5260 -0.8862
20182TIP3   OH282036   0.306   0.031   5.400 -0.2024 -0.0758 -0.6926
20182TIP3    H182037   0.240   0.071   5.344 -1.7278 -1.5520  0.0005
20182TIP3    H282038   0.265  -0.050   5.431  1.1426  0.0158  1.4130
20183TIP3   OH282039   5.809   1.232  17.115  0.2093  0.4868 -0.6028
20183TIP3    H182040   5.752   1.196  17.047 -1.0460  1.8055 -0.2675
20183TIP3    H282041   5.763   1.214  17.197  1.5778 -0.8390 -0.0877
20184TIP3   OH282042   6.506   2.488   4.866  0.0814  0.3888  0.1004
20184TIP3    H182043   6.594   2.455   4.884  0.5386  1.1474 -0.7358
20184TIP3    H282044   6.456   2.410   4.839  0.5421 -0.0093  0.4024
20185TIP3   OH282045   4.616   4.489   6.576  0.1210  0.3302  0.2781
20185TIP3    H182046   4.529   4.461   6.601 -0.6692 -0.2964 -2.8553
20185TIP3    H282047   4.642   4.426   6.507  2.6359  1.0564  0.5108
20186TIP3   OH282048   1.584   6.576   4.518 -0.2753 -0.1386 -0.0350
20186TIP3    H182049   1.558   6.540   4.602  0.2315  0.5860  0.4355
20186TIP3    H282050   1.551   6.666   4.518  0.5547  0.1771 -0.2033
20187TIP3   OH282051   3.071   2.799  11.021 -0.3659 -0.2841  0.0045
20187TIP3    H182052   3.047   2.714  11.058  1.6878 -0.3261  1.3066
20187TIP3    H282053   3.077   2.857  11.097 -0.5612  0.7380 -0.7492
20188TIP3   OH282054   1.885   2.409   1.972  0.5550 -0.1242 -0.3497
20188TIP3    H182055   1.855   2.494   1.940 -0.2931 -0.1576  0.3536
20188TIP3    H282056   1.827   2.346   1.930 -0.7000 -0.1584  1.3576
20189TIP3   OH282057   4.768   6.775   2.943 -0.1596  0.0609 -0.2271
20189TIP3    H182058   4.716   6.787   2.863  0.4024 -0.0625 -0.6080
20189TIP3    H282059   4.857   6.761   2.912 -0.0044 -0.3679  0.4068
20190TIP3   OH282060   0.139   4.746  14.770 -0.1938 -0.6785  0.2108
20190TIP3    H182061   0.218   4.719  14.816  0.0764 -0.5432 -0.1646
20190TIP3    H282062   0.170   4.768  14.682 -0.1458  2.2556  0.8987
20191TIP3   OH282063   0.146   0.785   2.889  0.3965  0.0762  0.0887
20191TIP3    H182064   0.145   0.881   2.887  0.6347  0.0703 -0.6628
20191TIP3    H282065   0.088   0.761   2.961 -1.0552  0.7582 -0.8448
20192TIP3   OH282066   0.339   3.463  13.949  0.5315 -0.4396  0.4629
20192TIP3    H182067   0.302   3.452  14.036  0.7801  0.3315  0.6648
20192TIP3    H282068   0.263   3.475  13.892  0.4799  1.3718  0.9070
20193TIP3   OH282069   0.684   6.627  11.416 -0.5177  0.3285  0.4832
20193TIP3    H182070   0.591   6.621  11.398 -0.2191 -0.3229 -0.8824
20193TIP3    H282071   0.716   6.696  11.358  0.3315 -1.3562 -1.1102
20194TIP3   OH282072   2.629   6.441  12.585 -0.5175  0.6071  0.3143
20194TIP3    H182073   2.704   6.391  12.553 -1.5122 -1.4412  1.0643
20194TIP3    H282074   2.630   6.427  12.679 -1.4345  1.1231  0.4031
20195TIP3   OH282075   4.067   0.141  11.586  0.2752  0.0200  0.2317
20195TIP3    H182076   4.050   0.233  11.609 -0.7716 -0.4332  1.3446
20195TIP3    H282077   3.984   0.109  11.552  0.9288 -0.2426 -1.1399
20196TIP3   OH282078   4.327   2.220   5.087 -0.6321  0.3627 -0.1958
20196TIP3    H182079   4.349   2.138   5.131  0.0658  0.4494 -0.3846
20196TIP3    H282080   4.380   2.219   5.007 -1.4103  0.5107 -0.7149
20197TIP3   OH282081   5.109   3.946   0.435 -0.3511 -0.5720 -0.0492
20197TIP3    H182082   5.121   3.948   0.340  0.1369  1.2215  0.0439
20197TIP3    H282083   5.045   3.876   0.449 -1.3415 -0.0424 -1.7867
20198TIP3   OH282084   4.025   1.592   0.472  0.2340 -0.3140 -0.5015
20198TIP3    H182085   3.963   1.557   0.536 -0.8491  0.5637 -1.0609
20198TIP3    H282086   3.991   1.563   0.388  0.9266 -0.3516 -0.7654
20199TIP3   OH282087   0.971   1.199  13.992 -0.2202  0.3033  0.2139
20199TIP3    H182088   0.983   1.273  13.932 -1.1691  0.3357  0.0599
20199TIP3    H282089   1.027   1.130  13.956 -1.6094 -0.0437 -1.3594
20200TIP3   OH282090   3.115   1.452  13.654  0.0712  0.5897  0.4521
20200TIP3    H182091   3.103   1.527  13.597 -0.0425  1.9684  2.2483
20200TIP3    H282092   3.186   1.478  13.713  0.3600 -0.8988  0.7833
20201TIP3   OH282093   1.355   3.077   4.679 -0.2901 -0.2708  0.3611
20201TIP3    H182094   1.343   3.005   4.616 -2.0534  0.0804  0.2582
20201TIP3    H282095   1.280   3.069   4.738 -0.8123  1.8286  0.0103
20202TIP3   OH282096   4.425   2.443   0.572  0.2085  0.0911 -0.1944
20202TIP3    H182097   4.497   2.380   0.562 -0.6423 -0.8281 -0.6975
20202TIP3    H282098   4.369   2.404   0.640 -0.0506  0.5657 -0.1358
20203TIP3   OH282099   6.728   5.001  12.685 -0.0993 -0.0634 -0.2259
20203TIP3    H182100   6.732   4.910  12.713 -0.2295 -0.0721 -0.2338
20203TIP3    H282101   6.647   5.034  12.724  0.2099  0.1913  0.2118
20204TIP3   OH282102   0.451   3.932  13.520 -0.0465  0.1919 -1.2088
20204TIP3    H182103   0.538   3.954  13.553  0.2631 -0.6297 -1.4814
20204TIP3    H282104   0.392   3.989  13.569  0.5957  0.3579 -0.6260
20205TIP3   OH282105   1.377   4.349  12.031  0.2268  0.2236 -0.5157
20205TIP3    H182106   1.413   4.263  12.010  2.0708  0.8035  0.1494
20205TIP3    H282107   1.427   4.377  12.108 -2.4501  0.5815  1.1656
20206TIP3   OH282108   0.009   4.992   5.410 -0.2341 -0.4477 -0.1005
20206TIP3    H182109   0.042   4.902   5.401 -0.1857 -0.4612  0.2043
20206TIP3    H282110  -0.076   4.990   5.365 -0.3736 -0.7271  0.1685
20207TIP3   OH282111   5.796   4.815   3.953 -0.2000 -0.6097 -0.4809
20207TIP3    H182112   5.721   4.860   3.912 -0.7747 -2.3076 -1.3262
20207TIP3    H282113   5.858   4.802   3.882 -0.2733 -1.6171 -0.3729
20208TIP3   OH282114   0.303   5.824  14.823 -0.1668 -0.0103 -0.1561
20208TIP3    H182115   0.314   5.796  14.732 -1.8282  0.0564 -0.3917
20208TIP3    H282116   0.382   5.793  14.867 -0.4938 -2.2359 -1.0898
20209TIP3   OH282117   5.087   1.882  16.374 -0.6297  0.2036 -0.3699
20209TIP3    H182118   5.042   1.831  16.307 -0.1924 -0.0361 -0.4857
20209TIP3    H282119   5.170   1.908  16.332 -1.7490  2.8263 -1.0854
20210TIP3   OH282120   4.788   5.902  11.229 -0.6357 -0.4426 -0.4236
20210TIP3    H182121   4.833   5.851  11.161 -0.1092  0.0338 -0.4390
20210TIP3    H282122   4.858   5.932  11.287 -0.8497  0.8531 -0.8117
20211TIP3   OH282123   4.968   6.462  15.353 -0.5775  0.0726 -0.0435
20211TIP3    H182124   4.932   6.485  15.439 -0.1989  1.2056 -0.1846
20211TIP3    H282125   5.025   6.387  15.370 -3.0184 -1.7898  0.1711
20212TIP3   OH282126   4.830   3.367  16.752  0.5898  0.5807 -0.2957
20212TIP3    H182127   4.902   3.355  16.691  0.8532  0.4900  0.0330
20212TIP3    H282128   4.820   3.282  16.795 -1.2940 -0.1211 -2.0640
20213TIP3   OH282129   3.217   1.323   2.220  0.3702 -0.6046 -0.1906
20213TIP3    H182130   3.301   1.367   2.205 -0.3524  0.7648 -0.2806
20213TIP3    H282131   3.231   1.233   2.190  2.7105 -1.1967  2.4931
20214TIP3   OH282132   3.385   5.666  11.466  0.3354  0.1364 -0.3436
20214TIP3    H182133   3.440   5.729  11.512  0.6701 -0.2039 -0.2706
20214TIP3    H282134   3.303   5.664  11.515  0.9588 -0.7723  0.6792
20215TIP3   OH282135   3.045   3.680   2.588 -0.1272 -0.1855 -0.0393
20215TIP3    H182136   3.059   3.585   2.593 -1.2371 -0.2848  1.6285
20215TIP3    H282137   2.995   3.692   2.507  0.1261 -1.0062 -0.3293
20216TIP3   OH282138   5.519   3.996   0.120  0.0912 -0.0143  0.1962
20216TIP3    H182139   5.576   3.926   0.090  0.0925 -0.8138  2.0283
20216TIP3    H282140   5.562   4.076   0.091  1.0822 -0.6849 -0.1977
20217TIP3   OH282141   3.863   6.379  13.156 -0.4638  0.2883 -0.2201
20217TIP3    H182142   3.833   6.352  13.069  0.6693 -0.5415 -0.3700
20217TIP3    H282143   3.860   6.300  13.209 -1.1140  0.7828  0.5002
20218TIP3   OH282144   4.904   4.348  13.506 -0.5636 -0.1133  0.1804
20218TIP3    H182145   4.839   4.323  13.440 -1.3170  0.3238  0.7515
20218TIP3    H282146   4.921   4.441  13.488  0.0994 -0.2936 -0.1329
20219TIP3   OH282147   3.031   4.384   1.805 -0.1816 -0.2165 -0.3412
20219TIP3    H182148   2.944   4.367   1.770  0.5209 -1.0859 -1.7276
20219TIP3    H282149   3.068   4.297   1.822  0.0334  0.1673  1.1998
20220TIP3   OH282150   6.022   5.606  11.333  0.3943 -0.0954  0.5029
20220TIP3    H182151   6.045   5.665  11.261  1.1797 -0.8477  0.1266
20220TIP3    H282152   6.003   5.522  11.290  1.1682 -0.6341  1.2067
20221TIP3   OH282153   3.986   5.742   3.603 -0.2964  0.5377 -0.1840
20221TIP3    H182154   4.076   5.732   3.571 -1.2855  0.1112 -2.8923
20221TIP3    H282155   3.989   5.822   3.656  1.7044  0.4294 -0.0874
20222TIP3   OH282156   6.773   0.826  13.309  0.0040  0.7413  0.5032
20222TIP3    H182157   6.824   0.857  13.384 -3.0015  2.2753  1.9803
20222TIP3    H282158   6.734   0.744  13.338  1.5673 -0.4441 -0.6343
20223TIP3   OH282159   0.402   3.502   6.557  0.2590  0.1970  0.2620
20223TIP3    H182160   0.404   3.593   6.586 -2.8088  0.3103  0.2275
20223TIP3    H282161   0.368   3.453   6.631 -0.1838 -0.6117 -0.4662
20224TIP3   OH282162   6.195   0.905   0.376  0.0523 -0.1413 -0.2825
20224TIP3    H182163   6.195   0.816   0.341  0.0145  0.0097 -0.6668
20224TIP3    H282164   6.145   0.898   0.457 -0.4391 -0.3584 -0.6012
20225TIP3   OH282165   1.716   4.355   5.015 -0.0122 -0.1352  0.2429
20225TIP3    H182166   1.681   4.280   5.062  2.2840 -0.8015  0.9277
20225TIP3    H282167   1.759   4.408   5.082  2.3829 -0.5650 -0.9122
20226TIP3   OH282168   4.838   3.235  13.586 -0.4289 -0.2764 -0.1286
20226TIP3    H182169   4.926   3.232  13.625 -0.2244 -0.3098 -0.5946
20226TIP3    H282170   4.818   3.144  13.564 -0.6596 -0.2945  0.1487
20227TIP3   OH282171   5.889   2.710  12.273  0.1259 -0.4104 -0.3289
20227TIP3    H182172   5.858   2.644  12.334  0.1890  0.7294  0.9717
20227TIP3    H282173   5.965   2.670  12.231 -1.0617 -1.9267 -1.0756
20228TIP3   OH282174   1.832   2.729  15.931 -0.2293 -0.3787 -0.1128
20228TIP3    H182175   1.775   2.670  15.980 -2.6379  2.1730  0.2837
20228TIP3    H282176   1.885   2.772  15.998 -1.6338  1.1463  0.0432
20229TIP3   OH282177   0.782   1.925   0.667  0.6099  0.2702  0.1196
20229TIP3    H182178   0.858   1.971   0.703  0.7407  0.4721 -0.4046
20229TIP3    H282179   0.737   1.991   0.615  0.8798 -0.2288 -0.7594
20230TIP3   OH282180   0.011   5.678  13.039  0.3795  0.3623 -0.2511
20230TIP3    H182181   0.105   5.680  13.057  0.6281 -0.5885 -1.3837
20230TIP3    H282182   0.005   5.675  12.944 -0.6229 -4.7475 -0.1683
20231TIP3   OH282183   4.024   6.558   2.489  0.0171  0.4093 -0.3068
20231TIP3    H182184   3.957   6.540   2.422  0.7663  0.0237 -0.9632
20231TIP3    H282185   4.045   6.650   2.477  1.0165  0.0518 -1.4209
20232TIP3   OH282186   1.150   5.938   3.949 -0.4933  0.1737 -0.3189
20232TIP3    H182187   1.244   5.950   3.961 -0.3175 -1.2500 -0.1547
20232TIP3    H282188   1.140   5.919   3.856 -0.3489 -1.7682  0.0250
20233TIP3   OH282189   5.343   6.769  13.039 -0.3607  0.6172 -0.6535
20233TIP3    H182190   5.327   6.821  13.118  0.9170  2.4568 -1.5850
20233TIP3    H282191   5.427   6.799  13.007 -0.3440 -0.9275 -2.1123
20234TIP3   OH282192   1.165   1.904  14.544  0.2553 -0.2195 -0.0333
20234TIP3    H182193   1.106   1.898  14.619 -0.6959 -1.3067 -0.8448
20234TIP3    H282194   1.229   1.970  14.569 -0.4700 -0.0538  1.4450
20235TIP3   OH282195   4.289   1.858   1.323  0.2990 -0.0931  0.1097
20235TIP3    H182196   4.318   1.768   1.308  1.1471  0.2947 -0.6367
20235TIP3    H282197   4.369   1.905   1.345 -0.0030  0.6681 -0.4118
20236TIP3   OH282198   6.473   0.240   2.715 -0.5570  0.8383  0.0480
20236TIP3    H182199   6.420   0.188   2.655 -0.0647  0.7019 -0.2652
20236TIP3    H282200   6.452   0.205   2.802  0.6096 -0.6484 -0.2437
20237TIP3   OH282201   5.249   5.471  16.581  0.6949 -0.3234  0.3107
20237TIP3    H182202   5.333   5.501  16.618  0.4397  1.2513 -0.3417
20237TIP3    H282203   5.272   5.430  16.498  0.8651 -0.2550  0.3239
20238TIP3   OH282204   6.229   6.129  15.345  0.3020  0.3823  0.7979
20238TIP3    H182205   6.266   6.213  15.369 -1.7011  1.8663 -1.0629
20238TIP3    H282206   6.142   6.129  15.385 -0.5518  0.1563 -1.0052
20239TIP3   OH282207   0.003   6.088   1.031 -0.4343 -0.1725 -0.0297
20239TIP3    H182208   0.049   6.139   0.964 -2.1465  0.3018 -0.8605
20239TIP3    H282209   0.072   6.039   1.075  0.8459  0.3774 -1.3875
20240TIP3   OH282210   0.374   4.806  15.507 -0.3436 -0.2916  0.3206
20240TIP3    H182211   0.281   4.827  15.500  0.1915  2.4991  0.8359
20240TIP3    H282212   0.381   4.752  15.585 -1.8314 -2.6662 -1.1344
20241TIP3   OH282213   3.912   5.254  12.650  0.4315  0.0465  0.3095
20241TIP3    H182214   3.831   5.306  12.651  1.5733  1.9822 -2.6315
20241TIP3    H282215   3.971   5.300  12.710 -0.3432 -0.9380  1.8625
20242TIP3   OH282216   5.624   4.861   0.446 -0.6843  0.3500 -0.0879
20242TIP3    H182217   5.629   4.777   0.491  1.1669 -0.1694 -1.2248
20242TIP3    H282218   5.713   4.878   0.415 -1.8167  0.8601 -3.2744
20243TIP3   OH282219   3.332   4.717  16.549 -0.1742 -0.2049 -0.0092
20243TIP3    H182220   3.301   4.661  16.477  0.2171  0.2733 -0.5605
20243TIP3    H282221   3.350   4.656  16.620 -1.9169 -0.5406  0.1713
20244TIP3   OH282222   6.394   6.806   3.901 -0.3728  0.2389  0.1302
20244TIP3    H182223   6.457   6.767   3.961 -0.5207 -0.9440 -0.4761
20244TIP3    H282224   6.313   6.814   3.953 -0.7233 -1.4973 -0.1399
20245TIP3   OH282225   3.137   2.189  16.542 -0.3697 -0.0784  0.4858
20245TIP3    H182226   3.127   2.267  16.488  0.7744 -0.4450 -0.2878
20245TIP3    H282227   3.054   2.181  16.589 -0.7229  1.2529  0.1189
20246TIP3   OH282228   6.076   1.191   0.474 -0.1808  0.4575  0.4149
20246TIP3    H182229   6.049   1.160   0.388  0.1636 -1.8313  1.0939
20246TIP3    H282230   5.994   1.212   0.519 -0.7015 -2.7854  1.1117
20247TIP3   OH282231   0.006   2.596  15.693 -0.1579 -0.5657  0.6018
20247TIP3    H182232   0.101   2.585  15.691  0.0457  1.2797 -0.1206
20247TIP3    H282233  -0.014   2.649  15.616 -1.7801 -0.8856  0.7840
20248TIP3   OH282234   1.081   0.173   0.919  0.0698  0.3180  0.0110
20248TIP3    H182235   1.117   0.124   0.846 -0.8440  1.5037 -1.2718
20248TIP3    H282236   1.017   0.114   0.959  1.8376 -0.9767  0.9563
20249TIP3   OH282237   3.049   3.955   4.626  0.0867  0.1671  0.0584
20249TIP3    H182238   3.069   3.929   4.536 -1.1289 -0.5855 -0.0003
20249TIP3    H282239   3.095   3.890   4.680 -0.5998 -0.4107 -0.0476
20250TIP3   OH282240   3.520   5.030   5.574  0.2538  0.2871  0.3801
20250TIP3    H182241   3.462   4.955   5.560  0.7908 -0.6217  2.8226
20250TIP3    H282242   3.608   4.994   5.562  0.4563  0.8600  0.1457
20251TIP3   OH282243   2.834   4.781   2.737 -0.1295  0.0120 -0.4507
20251TIP3    H182244   2.886   4.737   2.670 -2.0782 -1.9131 -0.7774
20251TIP3    H282245   2.841   4.724   2.814  0.0064  0.8699  0.1859
20252TIP3   OH282246   5.501   4.929  12.039  0.0457  0.2614 -0.5863
20252TIP3    H182247   5.535   4.865  12.101 -0.0566  1.2280  0.4866
20252TIP3    H282248   5.457   4.877  11.972  0.2683 -0.7988  0.0828
20253TIP3   OH282249   0.221   3.849  12.797 -0.0889 -0.3658  0.1621
20253TIP3    H182250   0.249   3.884  12.881 -2.2855 -0.6821  1.0590
20253TIP3    H282251   0.199   3.926  12.745 -0.9574 -0.2635  0.6857
20254TIP3   OH282252   2.987   6.448  16.540 -0.4146  0.0108  0.2413
20254TIP3    H182253   2.956   6.379  16.481 -0.6856 -0.9738  1.5217
20254TIP3    H282254   2.910   6.502  16.555 -0.4866 -0.0666  0.1534
20255TIP3   OH282255   2.388   3.321  13.834 -0.5395 -0.4292 -1.0280
20255TIP3    H182256   2.356   3.325  13.744 -1.5928  0.5453 -0.6337
20255TIP3    H282257   2.452   3.391  13.840 -0.6055 -0.3731 -0.9740
20256TIP3   OH282258   6.742   6.289   4.816  0.0533 -0.5583 -0.1651
20256TIP3    H182259   6.755   6.194   4.816  1.1484 -0.4381  1.5200
20256TIP3    H282260   6.797   6.321   4.744  0.6924 -1.1005  0.0757
20257TIP3   OH282261   1.220   0.868   0.159 -0.0885 -0.2367 -0.1350
20257TIP3    H182262   1.137   0.848   0.203  1.0458 -1.4710  1.4866
20257TIP3    H282263   1.261   0.934   0.214 -0.0046  0.4411 -0.9891
20258TIP3   OH282264   1.768   0.578  10.770  0.1476  0.3964  0.0226
20258TIP3    H182265   1.839   0.640  10.782 -0.1888  0.6533  0.6967
20258TIP3    H282266   1.791   0.530  10.690  0.4806  1.2751 -0.4083
20259TIP3   OH282267   4.930   4.523   5.093 -0.0474 -0.7540  0.0867
20259TIP3    H182268   4.930   4.452   5.158  0.4170 -1.3277 -0.5244
20259TIP3    H282269   5.007   4.575   5.115 -0.4889 -0.3333  0.6449
20260TIP3   OH282270   4.268   6.770   5.592 -0.1074 -0.1975 -0.6261
20260TIP3    H182271   4.279   6.821   5.672  0.3810 -0.0283 -0.7968
20260TIP3    H282272   4.283   6.833   5.521 -0.2592 -0.4074 -0.8443
20261TIP3   OH282273   6.794   4.574  14.285 -0.4309  1.2017 -0.2511
20261TIP3    H182274   6.716   4.520  14.274 -0.9203  2.0929 -1.1943
20261TIP3    H282275   6.813   4.608  14.198  1.3539  0.5471 -0.1461
20262TIP3   OH282276   4.029   1.180  12.287 -0.1988  0.3081 -0.0277
20262TIP3    H182277   3.995   1.123  12.218 -0.9958 -1.1071  1.5018
20262TIP3    H282278   4.078   1.121  12.345  0.4634  1.4784  0.6124
20263TIP3   OH282279   4.187   2.623   6.518  0.2151  0.2529  0.3980
20263TIP3    H182280   4.139   2.694   6.560 -0.8948 -0.4854  0.4128
20263TIP3    H282281   4.126   2.588   6.454  0.6103 -0.9313  0.6555
20264TIP3   OH282282   3.901   5.685  10.666  0.7920  0.3640  0.4435
20264TIP3    H182283   3.850   5.620  10.617  0.5395 -0.2455  1.5132
20264TIP3    H282284   3.984   5.641  10.684  0.0155 -0.2948  2.6047
20265TIP3   OH282285   3.624   1.596   2.799  0.4237  0.0811 -0.3676
20265TIP3    H182286   3.711   1.559   2.784  0.7289  1.2109 -1.3799
20265TIP3    H282287   3.615   1.665   2.734  0.1203  2.2811  1.9577
20266TIP3   OH282288   6.044   6.330   2.993 -0.2191 -0.0310  0.1548
20266TIP3    H182289   6.093   6.257   3.033  0.5463  0.8191  0.8010
20266TIP3    H282290   6.103   6.365   2.927 -0.3056  0.4454  0.3301
20267TIP3   OH282291   3.291   3.871   6.427  0.0410  0.2948 -0.1133
20267TIP3    H182292   3.353   3.822   6.374 -2.4268 -3.0220 -0.0664
20267TIP3    H282293   3.303   3.837   6.516 -1.0711  0.4157  0.0937
20268TIP3   OH282294   2.970   4.590  13.170  0.2153  0.6263  0.1895
20268TIP3    H182295   2.971   4.601  13.075  0.4024 -0.0353  0.1107
20268TIP3    H282296   3.006   4.502  13.184  0.5004  0.8527  0.8892
20269TIP3   OH282297   0.807   1.441  16.064 -0.2948  0.2201 -0.1515
20269TIP3    H182298   0.714   1.424  16.054 -0.0727 -1.5211  0.5787
20269TIP3    H282299   0.813   1.504  16.136 -0.8627 -0.3648  0.4125
20270TIP3   OH282300   6.283   5.551   6.645  0.0353 -0.1182 -0.2905
20270TIP3    H182301   6.220   5.621   6.663  1.6762  1.3468 -0.1784
20270TIP3    H282302   6.290   5.503   6.727  0.4951  0.8733  0.2529
20271TIP3   OH282303   5.405   0.672   1.618 -0.6274  0.0096 -0.1564
20271TIP3    H182304   5.355   0.679   1.699  0.1358  0.6386  0.2695
20271TIP3    H282305   5.377   0.589   1.579 -1.6575  0.1343  0.2967
20272TIP3   OH282306   0.516   4.809   4.044  0.0172 -0.3480  0.1448
20272TIP3    H182307   0.484   4.815   4.135  0.4529  0.9851  0.2185
20272TIP3    H282308   0.537   4.716   4.033 -0.3059 -0.5810  1.3179
20273LIG      O82309   1.569   1.320  16.427  0.5255 -0.2196 -0.2230
20273LIG     C182310   1.609   1.347  16.565 -0.8816 -0.5823  0.5226
20273LIG     C282311   1.535   1.467  16.612 -0.1130 -0.0430 -0.2879
20273LIG     C382312   1.579   1.220  16.639 -0.4380 -0.5383  0.0334
20273LIG     H182313   1.716   1.372  16.576 -0.1987 -2.8721 -0.4652
20273LIG     H282314   1.425   1.451  16.600 -0.2779  0.5358  0.4290
20273LIG     H382315   1.575   1.551  16.551 -0.7292 -0.1899 -0.9120
20273LIG     H482316   1.557   1.489  16.718  0.0190 -3.2170  0.3778
20273LIG     H582317   1.643   1.135  16.609 -0.1434  0.8010 -3.3339
20273LIG     H682318   1.470   1.200  16.636 -0.2811 -1.5405  0.8957
20273LIG     H782319   1.612   1.241  16.743 -0.3556  1.7847 -0.4370
20273LIG     H882320   1.601   1.232  16.405  0.2825 -0.4371  0.2894
   6.82013   6.82013  17.29240
